      -----------------------------------------------------------      
     |                   =====================                   |     
     |                           x T B                           |     
     |                   =====================                   |     
     |                         S. Grimme                         |     
     |          Mulliken Center for Theoretical Chemistry        |     
     |                    University of Bonn                     |     
      -----------------------------------------------------------      

   * xtb version 6.5.1 (b24c23e) compiled by 'conda@728c89f4b128' on 2022-07-12

   xtb is free software: you can redistribute it and/or modify it under
   the terms of the GNU Lesser General Public License as published by
   the Free Software Foundation, either version 3 of the License, or
   (at your option) any later version.
   
   xtb is distributed in the hope that it will be useful,
   but WITHOUT ANY WARRANTY; without even the implied warranty of
   MERCHANTABILITY or FITNESS FOR A PARTICULAR PURPOSE.  See the
   GNU Lesser General Public License for more details.
   
   Cite this work as:
   * C. Bannwarth, E. Caldeweyher, S. Ehlert, A. Hansen, P. Pracht,
     J. Seibert, S. Spicher, S. Grimme, WIREs Comput. Mol. Sci., 2020, 11,
     e01493. DOI: 10.1002/wcms.1493
   
   for GFN2-xTB:
   * C. Bannwarth, S. Ehlert and S. Grimme., J. Chem. Theory Comput., 2019,
     15, 1652-1671. DOI: 10.1021/acs.jctc.8b01176
   for GFN1-xTB:
   * S. Grimme, C. Bannwarth, P. Shushkov, J. Chem. Theory Comput., 2017,
     13, 1989-2009. DOI: 10.1021/acs.jctc.7b00118
   for GFN0-xTB:
   * P. Pracht, E. Caldeweyher, S. Ehlert, S. Grimme, ChemRxiv, 2019, preprint.
     DOI: 10.26434/chemrxiv.8326202.v1
   for GFN-FF:
   * S. Spicher and S. Grimme, Angew. Chem. Int. Ed., 2020, 59, 15665-15673.
     DOI: 10.1002/anie.202004239
   
   for ALPB and GBSA implicit solvation:
   * S. Ehlert, M. Stahn, S. Spicher, S. Grimme, J. Chem. Theory Comput.,
     2021, 17, 4250-4261. DOI: 10.1021/acs.jctc.1c00471
   
   for DFT-D4:
   * E. Caldeweyher, C. Bannwarth and S. Grimme, J. Chem. Phys., 2017,
     147, 034112. DOI: 10.1063/1.4993215
   * E. Caldeweyher, S. Ehlert, A. Hansen, H. Neugebauer, S. Spicher,
     C. Bannwarth and S. Grimme, J. Chem. Phys., 2019, 150, 154122.
     DOI: 10.1063/1.5090222
   * E. Caldeweyher, J.-M. Mewes, S. Ehlert and S. Grimme, Phys. Chem. Chem. Phys.
     2020, 22, 8499-8512. DOI: 10.1039/D0CP00502A
   
   for sTDA-xTB:
   * S. Grimme and C. Bannwarth, J. Chem. Phys., 2016, 145, 054103.
     DOI: 10.1063/1.4959605
   
   in the mass-spec context:
   * V. Asgeirsson, C. Bauer and S. Grimme, Chem. Sci., 2017, 8, 4879.
     DOI: 10.1039/c7sc00601b
   * J. Koopman and S. Grimme, ACS Omega 2019, 4, 12, 15120-15133.
     DOI: 10.1021/acsomega.9b02011
   
   for metadynamics refer to:
   * S. Grimme, J. Chem. Theory Comput., 2019, 155, 2847-2862
     DOI: 10.1021/acs.jctc.9b00143
   
   for SPH calculations refer to:
   * S. Spicher and S. Grimme, J. Chem. Theory Comput., 2021, 17, 1701-1714
     DOI: 10.1021/acs.jctc.0c01306
   
   with help from (in alphabetical order)
   P. Atkinson, C. Bannwarth, F. Bohle, G. Brandenburg, E. Caldeweyher
   M. Checinski, S. Dohm, S. Ehlert, S. Ehrlich, I. Gerasimov, C. Hölzer
   A. Katbashev, J. Koopman, C. Lavigne, S. Lehtola, F. März, M. Müller,
   F. Musil, H. Neugebauer, J. Pisarek, C. Plett, P. Pracht, F. Pultar,
   J. Seibert, P. Shushkov, S. Spicher, M. Stahn, M. Steiner, T. Strunk,
   J. Stückrath, T. Rose, and J. Unsleber
   
 * started run on 2022/07/30 at 07:13:51.616     

           -------------------------------------------------
          |                Calculation Setup                |
           -------------------------------------------------

          program call               : xtb xtbopt.xyz --gfn 1 --vipea
          hostname                   : cx3-14-19.cx3.hpc.ic.ac.uk
          coordinate file            : xtbopt.xyz
          omp threads                :                     1

   ID    Z sym.   atoms
    1   30 Zn     1, 55, 115, 168
    2    6 C      2-6, 8-11, 13-17, 19-24, 26-29, 31-36, 56-60, 62-65, 67-71,
                  73-78, 80-83, 85-90, 109-114, 116-120, 122-125, 127-131,
                  133-138, 140-143, 145-150, 169-173, 175-178, 180-184,
                  186-191, 193-196, 198-203
    3    7 N      7, 12, 18, 25, 30, 37, 61, 66, 72, 79, 84, 91, 121, 126,
                  132, 139, 144, 151, 174, 179, 185, 192, 197, 204
    4    1 H      38-54, 92-108, 152-167, 205-220

           -------------------------------------------------
          |                 I P E A - x T B                 |
           -------------------------------------------------

        Reference                      10.1039/c7sc00601b
      * Hamiltonian:
        H0-scaling (s, p, d)           2.150000    2.300000    2.000000
        zeta-weighting                 0.000000
      * Dispersion:
        s8                             2.400000
        a1                             0.630000
        a2                             5.000000
        s9                             0.000000
      * Repulsion:
        kExp                           1.500000
        rExp                           1.000000
      * Coulomb:
        alpha                          1.000000
        third order                    atomic
        anisotropic                    false
      * Halogen bond correction:
        rad-scale                      1.300000
        damping                        0.440000


          ...................................................
          :                      SETUP                      :
          :.................................................:
          :  # basis functions                 898          :
          :  # atomic orbitals                 898          :
          :  # shells                          590          :
          :  # electrons                       698          :
          :  # halogen bonds                     0          :
          :  max. iterations                   250          :
          :  Hamiltonian                  GFN1-xTB          :
          :  restarted?                      false          :
          :  GBSA solvation                  false          :
          :  PC potential                    false          :
          :  electronic temp.          300.0000000     K    :
          :  accuracy                    1.0000000          :
          :  -> integral cutoff          0.2500000E+02      :
          :  -> integral neglect         0.1000000E-07      :
          :  -> SCF convergence          0.1000000E-05 Eh   :
          :  -> wf. convergence          0.2000000E-04 e    :
          :  Broyden damping             0.4000000          :
          ...................................................

 iter      E             dE          RMSdq      gap      omega  full diag
   1   -440.9310862 -0.440931E+03  0.103E+01    1.30       0.0  T
   2   -441.1985286 -0.267442E+00  0.664E+00    1.36       1.0  T
   3   -437.2978824  0.390065E+01  0.487E+00    0.83       1.0  T
   4   -442.8439185 -0.554604E+01  0.157E+00    1.50       1.0  T
   5   -444.0632621 -0.121934E+01  0.323E-01    1.17       1.0  T
   6   -444.1078134 -0.445513E-01  0.986E-02    1.19       1.0  T
   7   -444.1101933 -0.237995E-02  0.522E-02    1.19       1.0  T
   8   -444.1111823 -0.988994E-03  0.241E-02    1.19       1.0  T
   9   -444.1111579  0.244743E-04  0.169E-02    1.19       1.0  T
  10   -444.1112736 -0.115746E-03  0.519E-03    1.19       1.3  T
  11   -444.1112847 -0.110613E-04  0.205E-03    1.19       3.3  T
  12   -444.1112867 -0.205623E-05  0.409E-04    1.19      16.5  T
  13   -444.1112868 -0.781257E-07  0.143E-04    1.19      47.2  T
  14   -444.1112868 -0.711572E-08  0.488E-05    1.19     138.2  T

   *** convergence criteria satisfied after 14 iterations ***

         #    Occupation            Energy/Eh            Energy/eV
      -------------------------------------------------------------
         1        2.0000           -1.0225100             -27.8239
       ...           ...                  ...                  ...
       343        2.0000           -0.4004178             -10.8959
       344        2.0000           -0.4003811             -10.8949
       345        2.0000           -0.3985076             -10.8439
       346        2.0000           -0.3983919             -10.8408
       347        2.0000           -0.3957732             -10.7695
       348        2.0000           -0.3865226             -10.5178
       349        2.0000           -0.3779360             -10.2842 (HOMO)
       350                         -0.3341794              -9.0935 (LUMO)
       351                         -0.3232736              -8.7967
       352                         -0.3165655              -8.6142
       353                         -0.3165049              -8.6125
       354                         -0.3148832              -8.5684
       ...                                ...                  ...
       898                        540.7626702           14714.9012
      -------------------------------------------------------------
                  HL-Gap            0.0437566 Eh            1.1907 eV
             Fermi-level           -0.3560577 Eh           -9.6888 eV

 SCC (total)                   0 d,  0 h,  0 min, 10.071 sec
 SCC setup                      ...        0 min,  0.010 sec (  0.104%)
 Dispersion                     ...        0 min,  0.016 sec (  0.154%)
 classical contributions        ...        0 min,  0.005 sec (  0.047%)
 integral evaluation            ...        0 min,  1.077 sec ( 10.691%)
 iterations                     ...        0 min,  6.135 sec ( 60.911%)
 molecular gradient             ...        0 min,  2.707 sec ( 26.881%)
 printout                       ...        0 min,  0.122 sec (  1.211%)

         :::::::::::::::::::::::::::::::::::::::::::::::::::::
         ::                     SUMMARY                     ::
         :::::::::::::::::::::::::::::::::::::::::::::::::::::
         :: total energy            -435.648109392486 Eh    ::
         :: gradient norm              0.076606336348 Eh/a0 ::
         :: HOMO-LUMO gap              1.190677314097 eV    ::
         ::.................................................::
         :: SCC energy              -444.111286801953 Eh    ::
         :: -> electrostatic           0.439755693630 Eh    ::
         :: repulsion energy           8.673669084430 Eh    ::
         :: dispersion energy         -0.210491674962 Eh    ::
         :: halogen bond corr.         0.000000000000 Eh    ::
         :: add. restraining           0.000000000000 Eh    ::
         :: total charge               0.000000000000 e     ::
         :::::::::::::::::::::::::::::::::::::::::::::::::::::

           ------------------------------------------------- 
          |        vertical delta SCC IP calculation        |
           ------------------------------------------------- 
   1   -443.6988054 -0.443699E+03  0.951E-02    1.19       0.0  T
   2   -443.7007640 -0.195865E-02  0.899E-02    1.15       1.0  T
   3   -443.7057627 -0.499866E-02  0.500E-02    1.17       1.0  T
   4   -443.7052037  0.558959E-03  0.449E-02    1.16       1.0  T
   5   -443.7058546 -0.650904E-03  0.341E-02    1.17       1.0  T
   6   -443.7068266 -0.971999E-03  0.170E-02    1.17       1.0  T
   7   -443.7070367 -0.210111E-03  0.665E-03    1.17       1.0  T
   8   -443.7070559 -0.192152E-04  0.256E-03    1.17       2.6  T
   9   -443.7070584 -0.242572E-05  0.119E-03    1.17       5.7  T
  10   -443.7070589 -0.550322E-06  0.587E-04    1.17      11.5  T
  11   -443.7070591 -0.140314E-06  0.193E-04    1.17      34.9  T
  12   -443.7070591 -0.152111E-07  0.917E-05    1.17      73.5  T
     SCC iter.                  ...        0 min,  5.981 sec
     gradient                   ...        0 min,  2.712 sec
------------------------------------------------------------------------
empirical IP shift (eV):    4.8455
delta SCC IP (eV):    6.1541
------------------------------------------------------------------------
           ------------------------------------------------- 
          |        vertical delta SCC EA calculation        |
           ------------------------------------------------- 
   1   -444.3887579 -0.444389E+03  0.169E-01    0.35       0.0  T
   2   -444.4038249 -0.150670E-01  0.151E-01    0.15       1.0  T
   3   -444.4161577 -0.123328E-01  0.821E-02    0.23       1.0  T
   4   -444.4171281 -0.970340E-03  0.571E-02    0.20       1.0  T
   5   -444.4155113  0.161671E-02  0.507E-02    0.21       1.0  T
   6   -444.4155523 -0.409841E-04  0.445E-02    0.21       1.0  T
   7   -444.4180153 -0.246297E-02  0.102E-02    0.21       1.0  T
   8   -444.4180933 -0.780183E-04  0.370E-03    0.20       1.8  T
   9   -444.4180979 -0.454586E-05  0.169E-03    0.20       4.0  T
  10   -444.4180992 -0.136090E-05  0.768E-04    0.20       8.8  T
  11   -444.4180994 -0.176257E-06  0.377E-04    0.20      17.9  T
  12   -444.4180995 -0.527626E-07  0.183E-04    0.20      36.9  T
  13   -444.4180995 -0.101571E-07  0.712E-05    0.20      94.7  T
     SCC iter.                  ...        0 min,  6.460 sec
     gradient                   ...        0 min,  2.727 sec
------------------------------------------------------------------------
empirical EA shift (eV):    4.8455
delta SCC EA (eV):    3.5033
------------------------------------------------------------------------
           -------------------------------------------------
          |                Property Printout                |
           -------------------------------------------------

    * Orbital Energies and Occupations

         #    Occupation            Energy/Eh            Energy/eV
      -------------------------------------------------------------
         1        2.0000           -0.9731493             -26.4807
       ...           ...                  ...                  ...
       338        2.0000           -0.3824762             -10.4077
       339        2.0000           -0.3822489             -10.4015
       340        2.0000           -0.3821393             -10.3985
       341        2.0000           -0.3786117             -10.3025
       342        2.0000           -0.3524563              -9.5908
       343        2.0000           -0.3519729              -9.5777
       344        2.0000           -0.3513268              -9.5601
       345        2.0000           -0.3464396              -9.4271
       346        2.0000           -0.3446693              -9.3789
       347        2.0000           -0.3443416              -9.3700
       348        2.0000           -0.3357745              -9.1369
       349        2.0000           -0.3241100              -8.8195
       350        0.9801           -0.2801275              -7.6227 (HOMO)
       351        0.0189           -0.2726683              -7.4197 (LUMO)
       352        0.0007           -0.2694584              -7.3323
       353        0.0003           -0.2688391              -7.3155
       354        0.0000           -0.2623149              -7.1380
       355        0.0000           -0.2621215              -7.1327
       356        0.0000           -0.2619992              -7.1294
       357                         -0.2499355              -6.8011
       358                         -0.2287853              -6.2256
       359                         -0.2239797              -6.0948
       360                         -0.2190352              -5.9603
       361                         -0.2137211              -5.8156
       ...                                ...                  ...
       898                        540.8172740           14716.3871
      -------------------------------------------------------------
                  HL-Gap            0.0074592 Eh            0.2030 eV
             Fermi-level           -0.2892709 Eh           -7.8715 eV

  Mulliken/CM5 charges         n(s)   n(p)   n(d)
     1Zn    0.36724  0.69243   0.762  0.871  0.000
     2C    -0.02520 -0.06633   1.088  2.937  0.000
     3C     0.05772  0.11947   1.119  2.824  0.000
     4C    -0.03764 -0.08368   1.089  2.949  0.000
     5C    -0.03430 -0.07992   1.083  2.951  0.000
     6C     0.05877  0.12427   1.110  2.831  0.000
     7N    -0.23729 -0.48105   1.349  3.888  0.000
     8C     0.00967  0.01520   1.091  2.900  0.000
     9C     0.02405  0.01747   1.102  2.874  0.000
    10C    -0.01542 -0.06310   1.080  2.935  0.000
    11C     0.05467  0.07932   1.128  2.818  0.000
    12N    -0.25633 -0.45214   1.375  3.881  0.000
    13C     0.05407  0.07876   1.128  2.818  0.000
    14C    -0.01621 -0.06392   1.080  2.936  0.000
    15C     0.05789  0.12257   1.108  2.834  0.000
    16C    -0.03372 -0.07937   1.079  2.954  0.000
    17C    -0.03329 -0.07874   1.083  2.951  0.000
    18N    -0.23442 -0.47746   1.351  3.884  0.000
    19C     0.06245  0.12878   1.123  2.815  0.000
    20C     0.01675  0.02358   1.087  2.897  0.000
    21C     0.06243  0.12878   1.123  2.815  0.000
    22C    -0.03329 -0.07872   1.082  2.951  0.000
    23C    -0.03369 -0.07935   1.079  2.955  0.000
    24C     0.05787  0.12254   1.108  2.834  0.000
    25N    -0.23447 -0.47748   1.351  3.884  0.000
    26C     0.00967  0.01520   1.091  2.899  0.000
    27C     0.02403  0.01745   1.102  2.874  0.000
    28C    -0.01617 -0.06389   1.080  2.936  0.000
    29C     0.05412  0.07880   1.128  2.818  0.000
    30N    -0.25637 -0.45218   1.376  3.881  0.000
    31C     0.05454  0.07921   1.128  2.818  0.000
    32C    -0.01554 -0.06324   1.080  2.935  0.000
    33C     0.05878  0.12429   1.110  2.831  0.000
    34C    -0.03428 -0.07991   1.083  2.951  0.000
    35C    -0.03763 -0.08369   1.089  2.949  0.000
    36C     0.05772  0.11946   1.119  2.824  0.000
    37N    -0.23730 -0.48108   1.349  3.888  0.000
    38H     0.02605  0.08490   0.974  0.000  0.000
    39H     0.03248  0.08897   0.968  0.000  0.000
    40H     0.02667  0.08543   0.973  0.000  0.000
    41H     0.02777  0.08587   0.972  0.000  0.000
    42H     0.03075  0.09666   0.969  0.000  0.000
    43H     0.02925  0.09516   0.971  0.000  0.000
    44H     0.02633  0.08442   0.974  0.000  0.000
    45H     0.02799  0.08685   0.972  0.000  0.000
    46H     0.02583  0.08417   0.974  0.000  0.000
    47H     0.02627  0.08461   0.974  0.000  0.000
    48H     0.02847  0.08733   0.972  0.000  0.000
    49H     0.02647  0.08456   0.974  0.000  0.000
    50H     0.02941  0.09532   0.971  0.000  0.000
    51H     0.03038  0.09629   0.970  0.000  0.000
    52H     0.02721  0.08531   0.973  0.000  0.000
    53H     0.02672  0.08552   0.973  0.000  0.000
    54H     0.03249  0.08899   0.968  0.000  0.000
    55Zn    0.36737  0.69260   0.761  0.871  0.000
    56C    -0.02498 -0.06611   1.088  2.937  0.000
    57C     0.05779  0.11954   1.119  2.824  0.000
    58C    -0.03750 -0.08354   1.089  2.948  0.000
    59C    -0.03421 -0.07981   1.083  2.951  0.000
    60C     0.05891  0.12442   1.110  2.831  0.000
    61N    -0.23721 -0.48095   1.349  3.888  0.000
    62C     0.00973  0.01527   1.091  2.899  0.000
    63C     0.02402  0.01744   1.102  2.874  0.000
    64C    -0.01558 -0.06327   1.080  2.935  0.000
    65C     0.05459  0.07925   1.128  2.818  0.000
    66N    -0.25625 -0.45207   1.376  3.881  0.000
    67C     0.05419  0.07887   1.128  2.818  0.000
    68C    -0.01619 -0.06388   1.080  2.936  0.000
    69C     0.05807  0.12278   1.108  2.834  0.000
    70C    -0.03354 -0.07919   1.079  2.954  0.000
    71C    -0.03311 -0.07852   1.083  2.950  0.000
    72N    -0.23442 -0.47747   1.351  3.884  0.000
    73C     0.06245  0.12878   1.123  2.815  0.000
    74C     0.01701  0.02384   1.087  2.896  0.000
    75C     0.06251  0.12882   1.123  2.815  0.000
    76C    -0.03311 -0.07853   1.083  2.950  0.000
    77C    -0.03355 -0.07922   1.080  2.954  0.000
    78C     0.05814  0.12284   1.108  2.833  0.000
    79N    -0.23443 -0.47743   1.351  3.884  0.000
    80C     0.00970  0.01523   1.091  2.900  0.000
    81C     0.02396  0.01739   1.102  2.874  0.000
    82C    -0.01621 -0.06391   1.080  2.936  0.000
    83C     0.05407  0.07875   1.128  2.818  0.000
    84N    -0.25624 -0.45204   1.376  3.881  0.000
    85C     0.05470  0.07936   1.128  2.818  0.000
    86C    -0.01542 -0.06314   1.080  2.935  0.000
    87C     0.05893  0.12443   1.110  2.831  0.000
    88C    -0.03419 -0.07983   1.083  2.951  0.000
    89C    -0.03751 -0.08355   1.089  2.949  0.000
    90C     0.05777  0.11951   1.119  2.824  0.000
    91N    -0.23714 -0.48097   1.349  3.888  0.000
    92H     0.02626  0.08511   0.974  0.000  0.000
    93H     0.03266  0.08916   0.967  0.000  0.000
    94H     0.02691  0.08568   0.973  0.000  0.000
    95H     0.02726  0.08535   0.973  0.000  0.000
    96H     0.03047  0.09638   0.970  0.000  0.000
    97H     0.02956  0.09547   0.970  0.000  0.000
    98H     0.02661  0.08468   0.973  0.000  0.000
    99H     0.02877  0.08762   0.971  0.000  0.000
   100H     0.02644  0.08471   0.974  0.000  0.000
   101H     0.02599  0.08428   0.974  0.000  0.000
   102H     0.02818  0.08707   0.972  0.000  0.000
   103H     0.02636  0.08447   0.974  0.000  0.000
   104H     0.02934  0.09525   0.971  0.000  0.000
   105H     0.03084  0.09675   0.969  0.000  0.000
   106H     0.02778  0.08590   0.972  0.000  0.000
   107H     0.02682  0.08559   0.973  0.000  0.000
   108H     0.03266  0.08916   0.967  0.000  0.000
   109C    -0.02921 -0.03146   1.069  2.961  0.000
   110C    -0.02471 -0.02695   1.074  2.951  0.000
   111C    -0.02747 -0.02966   1.071  2.956  0.000
   112C    -0.02766 -0.02985   1.071  2.956  0.000
   113C    -0.02424 -0.02650   1.075  2.950  0.000
   114C    -0.02888 -0.03115   1.069  2.960  0.000
   115Zn    0.36743  0.69120   0.763  0.869  0.000
   116C     0.01114  0.01800   1.081  2.908  0.000
   117C     0.06192  0.12829   1.123  2.815  0.000
   118C    -0.03629 -0.08175   1.081  2.955  0.000
   119C    -0.03426 -0.07994   1.080  2.954  0.000
   120C     0.05563  0.12027   1.106  2.838  0.000
   121N    -0.23569 -0.47867   1.350  3.886  0.000
   122C     0.01153  0.01696   1.092  2.896  0.000
   123C     0.02454  0.01794   1.102  2.873  0.000
   124C    -0.01545 -0.06316   1.080  2.936  0.000
   125C     0.05425  0.07892   1.128  2.818  0.000
   126N    -0.25674 -0.45257   1.375  3.881  0.000
   127C     0.05439  0.07907   1.128  2.818  0.000
   128C    -0.01527 -0.06294   1.080  2.935  0.000
   129C     0.05573  0.12028   1.106  2.838  0.000
   130C    -0.03418 -0.07987   1.080  2.955  0.000
   131C    -0.03529 -0.08084   1.081  2.954  0.000
   132N    -0.23524 -0.47812   1.350  3.885  0.000
   133C     0.06213  0.12852   1.123  2.815  0.000
   134C     0.01320  0.02004   1.084  2.903  0.000
   135C     0.06214  0.12853   1.123  2.815  0.000
   136C    -0.03528 -0.08083   1.081  2.954  0.000
   137C    -0.03414 -0.07983   1.079  2.955  0.000
   138C     0.05576  0.12033   1.106  2.838  0.000
   139N    -0.23517 -0.47800   1.350  3.885  0.000
   140C     0.01157  0.01701   1.092  2.896  0.000
   141C     0.02452  0.01791   1.102  2.873  0.000
   142C    -0.01526 -0.06292   1.080  2.935  0.000
   143C     0.05441  0.07908   1.128  2.818  0.000
   144N    -0.25671 -0.45254   1.375  3.881  0.000
   145C     0.05426  0.07893   1.128  2.818  0.000
   146C    -0.01546 -0.06318   1.080  2.936  0.000
   147C     0.05564  0.12030   1.106  2.838  0.000
   148C    -0.03423 -0.07991   1.080  2.954  0.000
   149C    -0.03626 -0.08171   1.081  2.955  0.000
   150C     0.06189  0.12828   1.123  2.815  0.000
   151N    -0.23581 -0.47847   1.350  3.886  0.000
   152H     0.02246  0.08079   0.978  0.000  0.000
   153H     0.02567  0.08453   0.974  0.000  0.000
   154H     0.02679  0.08491   0.973  0.000  0.000
   155H     0.02929  0.09520   0.971  0.000  0.000
   156H     0.02961  0.09553   0.970  0.000  0.000
   157H     0.02703  0.08517   0.973  0.000  0.000
   158H     0.02626  0.08509   0.974  0.000  0.000
   159H     0.02356  0.08200   0.976  0.000  0.000
   160H     0.02345  0.08190   0.977  0.000  0.000
   161H     0.02624  0.08508   0.974  0.000  0.000
   162H     0.02703  0.08518   0.973  0.000  0.000
   163H     0.02966  0.09557   0.970  0.000  0.000
   164H     0.02927  0.09519   0.971  0.000  0.000
   165H     0.02671  0.08484   0.973  0.000  0.000
   166H     0.02574  0.08460   0.974  0.000  0.000
   167H     0.02237  0.08065   0.978  0.000  0.000
   168Zn    0.36738  0.69149   0.763  0.870  0.000
   169C     0.01346  0.02030   1.084  2.903  0.000
   170C     0.06216  0.12855   1.123  2.815  0.000
   171C    -0.03517 -0.08071   1.081  2.954  0.000
   172C    -0.03416 -0.07983   1.079  2.955  0.000
   173C     0.05583  0.12042   1.106  2.838  0.000
   174N    -0.23515 -0.47800   1.350  3.885  0.000
   175C     0.01149  0.01693   1.092  2.896  0.000
   176C     0.02452  0.01791   1.102  2.873  0.000
   177C    -0.01524 -0.06289   1.080  2.935  0.000
   178C     0.05447  0.07915   1.128  2.818  0.000
   179N    -0.25676 -0.45259   1.375  3.881  0.000
   180C     0.05413  0.07881   1.128  2.818  0.000
   181C    -0.01559 -0.06333   1.080  2.936  0.000
   182C     0.05573  0.12041   1.106  2.838  0.000
   183C    -0.03423 -0.07991   1.080  2.954  0.000
   184C    -0.03632 -0.08172   1.081  2.955  0.000
   185N    -0.23578 -0.47886   1.350  3.886  0.000
   186C     0.06185  0.12821   1.123  2.816  0.000
   187C     0.01122  0.01809   1.081  2.908  0.000
   188C     0.06181  0.12818   1.123  2.815  0.000
   189C    -0.03630 -0.08171   1.081  2.955  0.000
   190C    -0.03419 -0.07986   1.080  2.954  0.000
   191C     0.05572  0.12041   1.106  2.838  0.000
   192N    -0.23577 -0.47884   1.350  3.886  0.000
   193C     0.01154  0.01698   1.092  2.896  0.000
   194C     0.02451  0.01790   1.102  2.873  0.000
   195C    -0.01555 -0.06325   1.080  2.935  0.000
   196C     0.05417  0.07884   1.128  2.818  0.000
   197N    -0.25671 -0.45254   1.375  3.881  0.000
   198C     0.05449  0.07918   1.128  2.818  0.000
   199C    -0.01527 -0.06294   1.080  2.935  0.000
   200C     0.05584  0.12041   1.106  2.838  0.000
   201C    -0.03412 -0.07979   1.079  2.955  0.000
   202C    -0.03514 -0.08069   1.081  2.954  0.000
   203C     0.06221  0.12862   1.123  2.815  0.000
   204N    -0.23520 -0.47792   1.350  3.885  0.000
   205H     0.02363  0.08206   0.976  0.000  0.000
   206H     0.02636  0.08519   0.974  0.000  0.000
   207H     0.02729  0.08542   0.973  0.000  0.000
   208H     0.02985  0.09576   0.970  0.000  0.000
   209H     0.02893  0.09484   0.971  0.000  0.000
   210H     0.02621  0.08433   0.974  0.000  0.000
   211H     0.02620  0.08507   0.974  0.000  0.000
   212H     0.02314  0.08143   0.977  0.000  0.000
   213H     0.02309  0.08135   0.977  0.000  0.000
   214H     0.02626  0.08511   0.974  0.000  0.000
   215H     0.02631  0.08444   0.974  0.000  0.000
   216H     0.02899  0.09490   0.971  0.000  0.000
   217H     0.02984  0.09575   0.970  0.000  0.000
   218H     0.02723  0.08534   0.973  0.000  0.000
   219H     0.02639  0.08522   0.974  0.000  0.000
   220H     0.02364  0.08208   0.976  0.000  0.000

Wiberg/Mayer (AO) data.
largest (>0.10) Wiberg bond orders for each atom

 ---------------------------------------------------------------------------
     #   Z sym  total        # sym  WBO       # sym  WBO       # sym  WBO
 ---------------------------------------------------------------------------
     1  30 Zn   2.422 --    37 N    0.566     7 N    0.566    18 N    0.561
                            25 N    0.561
     2   6 C    3.807 --    36 C    1.388     3 C    1.388    38 H    0.998
     3   6 C    3.946 --     2 C    1.388     7 N    1.283     4 C    1.197
     4   6 C    3.848 --     5 C    1.647     3 C    1.197    39 H    0.993
     5   6 C    3.834 --     4 C    1.647     6 C    1.204    40 H    0.998
     6   6 C    3.916 --     8 C    1.366     7 N    1.280     5 C    1.204
     7   7 N    3.002 --     3 C    1.283     6 C    1.280     1 Zn   0.566
     8   6 C    3.833 --     6 C    1.366    15 C    1.361     9 C    1.050
     9   6 C    3.910 --    14 C    1.427    10 C    1.427     8 C    1.050
    10   6 C    3.870 --    11 C    1.448     9 C    1.427    41 H    0.988
                            13 C    0.101
    11   6 C    3.999 --    12 N    1.478    10 C    1.448    42 H    0.983
                            14 C    0.101
    12   7 N    2.938 --    13 C    1.479    11 C    1.478
    13   6 C    4.000 --    12 N    1.479    14 C    1.447    43 H    0.983
                            10 C    0.101
    14   6 C    3.870 --    13 C    1.447     9 C    1.427    44 H    0.989
                            11 C    0.101
    15   6 C    3.903 --     8 C    1.361    18 N    1.272    16 C    1.215
    16   6 C    3.820 --    17 C    1.626    15 C    1.215    45 H    0.997
    17   6 C    3.824 --    16 C    1.626    19 C    1.226    46 H    0.999
    18   7 N    3.013 --    19 C    1.309    15 C    1.272     1 Zn   0.561
    19   6 C    3.920 --    18 N    1.309    20 C    1.299    17 C    1.226
    20   6 C    3.828 --    19 C    1.299    21 C    1.299   109 C    1.212
    21   6 C    3.921 --    25 N    1.309    20 C    1.299    22 C    1.225
    22   6 C    3.823 --    23 C    1.626    21 C    1.225    47 H    0.999
    23   6 C    3.820 --    22 C    1.626    24 C    1.215    48 H    0.997
    24   6 C    3.903 --    26 C    1.362    25 N    1.272    23 C    1.215
    25   7 N    3.013 --    21 C    1.309    24 C    1.272     1 Zn   0.561
    26   6 C    3.833 --    33 C    1.366    24 C    1.362    27 C    1.050
    27   6 C    3.910 --    32 C    1.427    28 C    1.427    26 C    1.050
    28   6 C    3.870 --    29 C    1.447    27 C    1.427    49 H    0.989
                            31 C    0.101
    29   6 C    4.000 --    30 N    1.479    28 C    1.447    50 H    0.983
                            32 C    0.101
    30   7 N    2.939 --    29 C    1.479    31 C    1.478
    31   6 C    3.999 --    30 N    1.478    32 C    1.448    51 H    0.983
                            28 C    0.101
    32   6 C    3.870 --    31 C    1.448    27 C    1.427    52 H    0.989
                            29 C    0.101
    33   6 C    3.916 --    26 C    1.366    37 N    1.280    34 C    1.204
    34   6 C    3.834 --    35 C    1.647    33 C    1.204    53 H    0.998
    35   6 C    3.848 --    34 C    1.647    36 C    1.197    54 H    0.993
    36   6 C    3.946 --     2 C    1.388    37 N    1.283    35 C    1.197
    37   7 N    3.002 --    36 C    1.283    33 C    1.280     1 Zn   0.566
    38   1 H    1.032 --     2 C    0.998
    39   1 H    1.020 --     4 C    0.993
    40   1 H    1.034 --     5 C    0.998
    41   1 H    1.055 --    10 C    0.988
    42   1 H    1.055 --    11 C    0.983
    43   1 H    1.055 --    13 C    0.983
    44   1 H    1.055 --    14 C    0.989
    45   1 H    1.033 --    16 C    0.997
    46   1 H    1.036 --    17 C    0.999
    47   1 H    1.035 --    22 C    0.999
    48   1 H    1.032 --    23 C    0.997
    49   1 H    1.055 --    28 C    0.989
    50   1 H    1.055 --    29 C    0.983
    51   1 H    1.055 --    31 C    0.983
    52   1 H    1.055 --    32 C    0.989
    53   1 H    1.034 --    34 C    0.998
    54   1 H    1.020 --    35 C    0.993
    55  30 Zn   2.423 --    91 N    0.566    61 N    0.566    72 N    0.561
                            79 N    0.561
    56   6 C    3.807 --    90 C    1.388    57 C    1.388    92 H    0.998
    57   6 C    3.946 --    56 C    1.388    61 N    1.283    58 C    1.197
    58   6 C    3.849 --    59 C    1.647    57 C    1.197    93 H    0.993
    59   6 C    3.834 --    58 C    1.647    60 C    1.204    94 H    0.998
    60   6 C    3.916 --    62 C    1.366    61 N    1.280    59 C    1.204
    61   7 N    3.003 --    57 C    1.283    60 C    1.280    55 Zn   0.566
    62   6 C    3.833 --    60 C    1.366    69 C    1.362    63 C    1.049
    63   6 C    3.910 --    68 C    1.427    64 C    1.427    62 C    1.049
    64   6 C    3.870 --    65 C    1.448    63 C    1.427    95 H    0.989
                            67 C    0.101
    65   6 C    3.999 --    66 N    1.478    64 C    1.448    96 H    0.983
                            68 C    0.101
    66   7 N    2.939 --    67 C    1.479    65 C    1.478
    67   6 C    4.000 --    66 N    1.479    68 C    1.447    97 H    0.983
                            64 C    0.101
    68   6 C    3.870 --    67 C    1.447    63 C    1.427    98 H    0.988
                            65 C    0.101
    69   6 C    3.904 --    62 C    1.362    72 N    1.272    70 C    1.214
    70   6 C    3.821 --    71 C    1.627    69 C    1.214    99 H    0.997
    71   6 C    3.826 --    70 C    1.627    73 C    1.225   100 H    0.999
    72   7 N    3.013 --    73 C    1.308    69 C    1.272    55 Zn   0.561
    73   6 C    3.922 --    72 N    1.308    74 C    1.301    71 C    1.225
    74   6 C    3.829 --    73 C    1.301    75 C    1.301   114 C    1.207
    75   6 C    3.922 --    79 N    1.308    74 C    1.301    76 C    1.225
    76   6 C    3.825 --    77 C    1.627    75 C    1.225   101 H    0.999
    77   6 C    3.821 --    76 C    1.627    78 C    1.215   102 H    0.997
    78   6 C    3.903 --    80 C    1.361    79 N    1.273    77 C    1.215
    79   7 N    3.013 --    75 C    1.308    78 C    1.273    55 Zn   0.561
    80   6 C    3.833 --    87 C    1.366    78 C    1.361    81 C    1.051
    81   6 C    3.910 --    82 C    1.426    86 C    1.426    80 C    1.051
    82   6 C    3.870 --    83 C    1.447    81 C    1.426   103 H    0.989
                            85 C    0.101
    83   6 C    4.000 --    84 N    1.479    82 C    1.447   104 H    0.983
                            86 C    0.101
    84   7 N    2.938 --    83 C    1.479    85 C    1.478
    85   6 C    3.999 --    84 N    1.478    86 C    1.448   105 H    0.983
                            82 C    0.101
    86   6 C    3.870 --    85 C    1.448    81 C    1.426   106 H    0.988
                            83 C    0.101
    87   6 C    3.916 --    80 C    1.366    91 N    1.280    88 C    1.204
    88   6 C    3.834 --    89 C    1.647    87 C    1.204   107 H    0.998
    89   6 C    3.849 --    88 C    1.647    90 C    1.197   108 H    0.993
    90   6 C    3.946 --    56 C    1.388    91 N    1.283    89 C    1.197
    91   7 N    3.003 --    90 C    1.283    87 C    1.280    55 Zn   0.566
    92   1 H    1.032 --    56 C    0.998
    93   1 H    1.020 --    58 C    0.993
    94   1 H    1.034 --    59 C    0.998
    95   1 H    1.055 --    64 C    0.989
    96   1 H    1.055 --    65 C    0.983
    97   1 H    1.055 --    67 C    0.983
    98   1 H    1.055 --    68 C    0.988
    99   1 H    1.032 --    70 C    0.997
   100   1 H    1.037 --    71 C    0.999
   101   1 H    1.038 --    76 C    0.999
   102   1 H    1.033 --    77 C    0.997
   103   1 H    1.055 --    82 C    0.989
   104   1 H    1.055 --    83 C    0.983
   105   1 H    1.055 --    85 C    0.983
   106   1 H    1.055 --    86 C    0.988
   107   1 H    1.034 --    88 C    0.998
   108   1 H    1.020 --    89 C    0.993
   109   6 C    3.761 --   110 C    2.615    20 C    1.212
   110   6 C    3.765 --   109 C    2.615   116 C    1.212
   111   6 C    3.763 --   112 C    2.605   134 C    1.222
   112   6 C    3.763 --   111 C    2.605   169 C    1.222
   113   6 C    3.764 --   114 C    2.619   187 C    1.207
   114   6 C    3.761 --   113 C    2.619    74 C    1.207
   115  30 Zn   2.414 --   121 N    0.562   132 N    0.562   139 N    0.562
                           151 N    0.561
   116   6 C    3.814 --   117 C    1.295   150 C    1.295   110 C    1.212
   117   6 C    3.923 --   121 N    1.312   116 C    1.295   118 C    1.227
   118   6 C    3.819 --   119 C    1.624   117 C    1.227   152 H    0.999
   119   6 C    3.825 --   118 C    1.624   120 C    1.217   153 H    0.998
   120   6 C    3.902 --   122 C    1.366   121 N    1.267   119 C    1.217
   121   7 N    3.001 --   117 C    1.312   120 C    1.267   115 Zn   0.562
   122   6 C    3.829 --   120 C    1.366   129 C    1.363   123 C    1.052
   123   6 C    3.909 --   124 C    1.427   128 C    1.427   122 C    1.052
   124   6 C    3.869 --   125 C    1.447   123 C    1.427   154 H    0.989
                           127 C    0.101
   125   6 C    3.999 --   126 N    1.479   124 C    1.447   155 H    0.983
                           128 C    0.101
   126   7 N    2.938 --   125 C    1.479   127 C    1.478
   127   6 C    3.999 --   126 N    1.478   128 C    1.448   156 H    0.983
                           124 C    0.101
   128   6 C    3.869 --   127 C    1.448   123 C    1.427   157 H    0.989
                           125 C    0.101
   129   6 C    3.902 --   122 C    1.363   132 N    1.267   130 C    1.219
   130   6 C    3.822 --   131 C    1.622   129 C    1.219   158 H    0.998
   131   6 C    3.819 --   130 C    1.622   133 C    1.229   159 H    0.998
   132   7 N    3.002 --   133 C    1.313   129 C    1.267   115 Zn   0.562
   133   6 C    3.920 --   132 N    1.313   134 C    1.291   131 C    1.229
   134   6 C    3.815 --   133 C    1.291   135 C    1.291   111 C    1.222
   135   6 C    3.920 --   139 N    1.313   134 C    1.291   136 C    1.229
   136   6 C    3.819 --   137 C    1.622   135 C    1.229   160 H    0.998
   137   6 C    3.822 --   136 C    1.622   138 C    1.219   161 H    0.998
   138   6 C    3.902 --   140 C    1.363   139 N    1.268   137 C    1.219
   139   7 N    3.002 --   135 C    1.313   138 C    1.268   115 Zn   0.562
   140   6 C    3.829 --   147 C    1.366   138 C    1.363   141 C    1.052
   141   6 C    3.909 --   146 C    1.427   142 C    1.426   140 C    1.052
   142   6 C    3.870 --   143 C    1.448   141 C    1.426   162 H    0.989
                           145 C    0.101
   143   6 C    3.999 --   144 N    1.478   142 C    1.448   163 H    0.983
                           146 C    0.101
   144   7 N    2.938 --   145 C    1.479   143 C    1.478
   145   6 C    3.999 --   144 N    1.479   146 C    1.447   164 H    0.983
                           142 C    0.101
   146   6 C    3.869 --   145 C    1.447   141 C    1.427   165 H    0.989
                           143 C    0.101
   147   6 C    3.903 --   140 C    1.366   151 N    1.267   148 C    1.217
   148   6 C    3.825 --   149 C    1.624   147 C    1.217   166 H    0.998
   149   6 C    3.819 --   148 C    1.624   150 C    1.227   167 H    0.999
   150   6 C    3.923 --   151 N    1.312   116 C    1.295   149 C    1.227
   151   7 N    3.000 --   150 C    1.312   147 C    1.267   115 Zn   0.561
   152   1 H    1.035 --   118 C    0.999
   153   1 H    1.036 --   119 C    0.998
   154   1 H    1.055 --   124 C    0.989
   155   1 H    1.055 --   125 C    0.983
   156   1 H    1.055 --   127 C    0.983
   157   1 H    1.055 --   128 C    0.989
   158   1 H    1.036 --   130 C    0.998
   159   1 H    1.037 --   131 C    0.998
   160   1 H    1.037 --   136 C    0.998
   161   1 H    1.036 --   137 C    0.998
   162   1 H    1.055 --   142 C    0.989
   163   1 H    1.055 --   143 C    0.983
   164   1 H    1.055 --   145 C    0.983
   165   1 H    1.055 --   146 C    0.989
   166   1 H    1.036 --   148 C    0.998
   167   1 H    1.036 --   149 C    0.999
   168  30 Zn   2.414 --   192 N    0.563   185 N    0.562   174 N    0.562
                           204 N    0.561
   169   6 C    3.816 --   170 C    1.291   203 C    1.290   112 C    1.222
   170   6 C    3.920 --   174 N    1.312   169 C    1.291   171 C    1.229
   171   6 C    3.819 --   172 C    1.622   170 C    1.229   205 H    0.998
   172   6 C    3.822 --   171 C    1.622   173 C    1.219   206 H    0.998
   173   6 C    3.902 --   175 C    1.363   174 N    1.268   172 C    1.219
   174   7 N    3.003 --   170 C    1.312   173 C    1.268   168 Zn   0.562
   175   6 C    3.829 --   182 C    1.367   173 C    1.363   176 C    1.051
   176   6 C    3.909 --   181 C    1.427   177 C    1.427   175 C    1.051
   177   6 C    3.870 --   178 C    1.448   176 C    1.427   207 H    0.989
                           180 C    0.101
   178   6 C    3.999 --   179 N    1.478   177 C    1.448   208 H    0.983
                           181 C    0.101
   179   7 N    2.938 --   180 C    1.479   178 C    1.478
   180   6 C    3.999 --   179 N    1.479   181 C    1.447   209 H    0.984
                           177 C    0.101
   181   6 C    3.869 --   180 C    1.447   176 C    1.427   210 H    0.989
                           178 C    0.101
   182   6 C    3.902 --   175 C    1.367   185 N    1.267   183 C    1.216
   183   6 C    3.825 --   184 C    1.625   182 C    1.216   211 H    0.998
   184   6 C    3.819 --   183 C    1.625   186 C    1.225   212 H    0.999
   185   7 N    3.001 --   186 C    1.311   182 C    1.267   168 Zn   0.562
   186   6 C    3.924 --   185 N    1.311   187 C    1.297   184 C    1.225
   187   6 C    3.814 --   188 C    1.297   186 C    1.297   113 C    1.207
   188   6 C    3.924 --   192 N    1.311   187 C    1.297   189 C    1.225
   189   6 C    3.819 --   190 C    1.626   188 C    1.225   213 H    0.999
   190   6 C    3.827 --   189 C    1.626   191 C    1.216   214 H    0.998
   191   6 C    3.902 --   193 C    1.367   192 N    1.267   190 C    1.216
   192   7 N    3.001 --   188 C    1.311   191 C    1.267   168 Zn   0.563
   193   6 C    3.830 --   191 C    1.367   200 C    1.363   194 C    1.051
   194   6 C    3.909 --   199 C    1.427   195 C    1.427   193 C    1.051
   195   6 C    3.869 --   196 C    1.448   194 C    1.427   215 H    0.989
                           198 C    0.101
   196   6 C    3.999 --   197 N    1.478   195 C    1.448   216 H    0.984
                           199 C    0.101
   197   7 N    2.938 --   198 C    1.479   196 C    1.478
   198   6 C    3.999 --   197 N    1.479   199 C    1.447   217 H    0.983
                           195 C    0.101
   199   6 C    3.870 --   198 C    1.447   194 C    1.427   218 H    0.989
                           196 C    0.101
   200   6 C    3.902 --   193 C    1.363   204 N    1.268   201 C    1.219
   201   6 C    3.822 --   202 C    1.622   200 C    1.219   219 H    0.998
   202   6 C    3.819 --   201 C    1.622   203 C    1.229   220 H    0.998
   203   6 C    3.920 --   204 N    1.313   169 C    1.290   202 C    1.229
   204   7 N    3.002 --   203 C    1.313   200 C    1.268   168 Zn   0.561
   205   1 H    1.037 --   171 C    0.998
   206   1 H    1.036 --   172 C    0.998
   207   1 H    1.054 --   177 C    0.989
   208   1 H    1.055 --   178 C    0.983
   209   1 H    1.055 --   180 C    0.984
   210   1 H    1.055 --   181 C    0.989
   211   1 H    1.035 --   183 C    0.998
   212   1 H    1.034 --   184 C    0.999
   213   1 H    1.034 --   189 C    0.999
   214   1 H    1.035 --   190 C    0.998
   215   1 H    1.055 --   195 C    0.989
   216   1 H    1.055 --   196 C    0.984
   217   1 H    1.055 --   198 C    0.983
   218   1 H    1.054 --   199 C    0.989
   219   1 H    1.036 --   201 C    0.998
   220   1 H    1.037 --   202 C    0.998
 ---------------------------------------------------------------------------

Topologies differ in total number of bonds
Writing topology from bond orders to xtbtopo.mol

 dipole moment from electron density (au)
     X       Y       Z   
-108.0098  -0.0038   0.0542  total (Debye):  274.534


           -------------------------------------------------
          | TOTAL ENERGY             -435.954922052128 Eh   |
          | GRADIENT NORM               0.079604867874 Eh/α |
          | HOMO-LUMO GAP               0.202975428340 eV   |
           -------------------------------------------------
########################################################################
[WARNING] Runtime exception occurred
-1- restart_readRestart: Dimension missmatch in restart file.
########################################################################

------------------------------------------------------------------------
 * finished run on 2022/07/30 at 07:14:23.365     
------------------------------------------------------------------------
 total:
 * wall-time:     0 d,  0 h,  0 min, 31.749 sec
 *  cpu-time:     0 d,  0 h,  0 min, 31.497 sec
 * ratio c/w:     0.992 speedup
 SCF:
 * wall-time:     0 d,  0 h,  0 min, 30.611 sec
 *  cpu-time:     0 d,  0 h,  0 min, 30.374 sec
 * ratio c/w:     0.992 speedup

