220
 energy: -380.857916048645 gnorm: 0.603845589625 xtb: 6.5.1 (b24c23e)
Zn          40.15496100000000        0.01407300000000       -0.01684900000000
C           36.78892700000000       -0.10007800000000       -0.04878500000000
C           37.45186500000000       -1.25850400000000        0.00876800000000
C           36.80022900000000       -2.56143400000000        0.06757900000000
C           37.74008800000000       -3.48180600000000        0.17450500000000
C           39.04625000000000       -2.80903200000000        0.18845800000000
N           38.87009000000000       -1.39611800000000        0.07852300000000
C           40.23514500000000       -3.42696300000000        0.34199900000000
C           40.27092000000000       -4.89815600000000        0.49234400000000
C           40.47619300000000       -5.47461600000000        1.75288200000000
C           40.50486300000000       -6.86591800000000        1.87388000000000
N           40.33220099999999       -7.64974700000000        0.77615500000000
C           40.13026100000000       -7.11479500000000       -0.45760000000000
C           40.09692100000000       -5.72812600000000       -0.62336800000000
C           41.52938600000000       -2.69621300000000        0.38188900000000
C           42.81940300000000       -3.33390600000000        0.67135300000000
C           43.75403099999999       -2.40966500000000        0.58757500000000
N           41.67124300000000       -1.43205200000000        0.12274100000000
C           43.07040600000000       -1.17193500000000        0.23459900000000
C           43.66679200000000        0.00523500000000       -0.01766800000000
C           42.90892800000000        1.22110000000000       -0.39096700000000
C           43.45222299999999        2.29455300000000       -0.95083000000000
C           42.40955100000000        3.29412600000000       -1.06892600000000
C           41.29789499999999        2.76735400000000       -0.56989600000000
N           41.52264599999999        1.43029900000000       -0.11943100000000
C           40.01278900000000        3.50060900000000       -0.43298800000000
C           40.03563599999999        4.98324900000000       -0.48018300000000
C           39.37392400000000        5.67718200000000       -1.50372800000000
C           39.41813400000000        7.07308900000000       -1.52651700000000
N           40.10476799999999        7.75027400000000       -0.56776500000000
C           40.76397100000000        7.10239100000000        0.42876900000000
C           40.74507000000000        5.70705700000000        0.48922500000000
C           38.84589799999999        2.85183000000000       -0.25566700000000
C           37.53369100000000        3.46812500000000       -0.06580300000000
C           36.67145000000000        2.47459400000000        0.02800300000000
C           37.42384200000000        1.22664800000000       -0.08737300000000
N           38.69220500000000        1.43381600000000       -0.25285900000000
H           35.70577700000000       -0.12806000000000       -0.04898100000000
H           35.73584400000000       -2.75597100000000        0.04243100000000
H           37.55155200000000       -4.54478800000000        0.25210000000000
H           40.61259500000000       -4.85320500000000        2.62932600000000
H           40.66367700000000       -7.32306300000000        2.84134100000000
H           39.99508800000000       -7.76635700000000       -1.31052700000000
H           39.93548600000000       -5.30513500000000       -1.60709900000000
H           42.99749800000000       -4.37462800000000        0.90609100000000
H           44.81178899999999       -2.57279000000000        0.74161200000000
H           44.48540200000000        2.41965800000000       -1.24448800000000
H           42.52753500000000        4.29323900000000       -1.46670100000000
H           38.83328000000000        5.14250900000000       -2.27399900000000
H           38.90747400000000        7.61855400000000       -2.30884100000000
H           41.30222800000000        7.67064300000000        1.17590900000000
H           41.27056300000000        5.19595600000000        1.28646100000000
H           37.28916700000000        4.52046500000000       -0.00497700000000
H           35.60433100000000        2.57910500000000        0.17424800000000
Zn          74.40341299999999       -0.00298400000000       -0.01431400000000
C           77.76944800000000        0.09695200000000       -0.07805900000000
C           77.10651000000000        1.22207000000000       -0.35978700000000
C           77.75814499999998        2.48581700000000       -0.68232400000000
C           76.81828699999998        3.39751900000000       -0.84760200000000
C           75.51212500000000        2.75786300000000       -0.63865200000000
N           75.68828400000000        1.37402000000000       -0.33305500000000
C           74.32323000000000        3.39374200000000       -0.67139800000000
C           74.28745400000000        4.84509500000000       -0.95527600000000
C           74.08218099999999        5.76313600000000        0.08321500000000
C           74.05351199999998        7.12951800000000       -0.20551400000000
N           74.22617400000000        7.56034000000000       -1.48370800000000
C           74.42811399999999        6.68980100000000       -2.50864000000000
C           74.46145300000001        5.31483600000000       -2.26409400000000
C           73.02898800000000        2.70615500000000       -0.42077600000000
C           71.73897200000000        3.40045900000000       -0.32921600000000
C           70.80434300000000        2.49178400000000       -0.14066600000000
N           72.88713100000000        1.42125800000000       -0.30119400000000
C           71.48796899999999        1.20489700000000       -0.11854300000000
C           70.89158200000000        0.00523500000000       -0.01766800000000
C           71.64944599999998       -1.26664100000000       -0.02134700000000
C           71.10615199999999       -2.45649700000000       -0.24493500000000
C           72.14882400000000       -3.44722600000000       -0.06731800000000
C           73.26047900000000       -2.79812400000000        0.25700300000000
N           73.03572900000000       -1.38785800000000        0.29928100000000
C           74.54558600000000       -3.45990000000000        0.60118100000000
C           74.52273800000000       -4.89221700000000        0.98708100000000
C           75.18445100000000       -5.85375500000000        0.20949900000000
C           75.14024100000000       -7.19598900000000        0.59353400000000
N           74.45360599999999       -7.56518000000000        1.70775300000000
C           73.79440399999999       -6.65555500000000        2.47287800000000
C           73.81330500000000       -5.30291700000000        2.12505000000000
C           75.71247700000001       -2.78759200000000        0.58221900000000
C           77.02468300000000       -3.32206600000000        0.94306000000000
C           77.88692399999999       -2.34417900000000        0.74396000000000
C           77.13453199999999       -1.18368400000000        0.27074600000000
N           75.86616900000000       -1.43001600000000        0.17264000000000
H           78.85259800000000        0.12366800000000       -0.08638200000000
H           78.82253100000000        2.66463900000000       -0.76294500000000
H           77.00682300000000        4.43714400000000       -1.08240500000000
H           73.94578000000000        5.42338100000000        1.10246600000000
H           73.89469800000001        7.84819000000000        0.58724800000000
H           74.56328599999999        7.06524100000000       -3.51415600000000
H           74.62288800000000        4.62411100000000       -3.08235300000000
H           71.56087700000000        4.46447200000000       -0.40719200000000
H           69.74658500000000        2.69264700000000       -0.04070800000000
H           70.07297299999999       -2.66157400000000       -0.48953500000000
H           72.03083899999999       -4.51882800000000       -0.15743400000000
H           75.72509399999998       -5.56612300000000       -0.68294700000000
H           75.65089999999999       -7.94534100000000        0.00359000000000
H           73.25614700000000       -6.98204000000000        3.35295500000000
H           73.28781100000000       -4.58211000000000        2.73925300000000
H           77.26920800000001       -4.31126400000000        1.30721200000000
H           78.95404399999998       -2.40165700000000        0.91427300000000
C           45.88216100000000        0.00523500000000       -0.01766800000000
C           47.10407899999999        0.00523500000000       -0.01766800000000
C           56.66822799999999        0.00523500000000       -0.01766800000000
C           57.89014600000000        0.00523500000000       -0.01766800000000
C           67.45429600000000        0.00523500000000       -0.01766800000000
C           68.67621300000000        0.00523500000000       -0.01766800000000
Zn          51.81199300000000        0.02893100000000       -0.05085200000000
C           48.44435000000000       -0.00563000000000        0.01900100000000
C           49.09967100000000       -0.80392300000000        0.88171600000000
C           48.45879400000000       -1.62553600000000        1.91047300000000
C           49.39510700000000       -2.30988900000000        2.53707000000000
C           50.69235799999999       -1.97028700000000        1.94352300000000
N           50.51458100000000       -1.00897700000000        0.90009300000000
C           51.87674899999999       -2.49800200000000        2.32019300000000
C           51.91281400000000       -3.53440400000000        3.37826200000000
C           51.38523400000000       -4.81211300000000        3.14157700000000
C           51.44479200000000       -5.77668200000000        4.15014800000000
N           52.01534200000000       -5.47734200000000        5.34755000000000
C           52.53948300000000       -4.24842300000000        5.60041000000000
C           52.49986299999999       -3.25425800000000        4.61992900000000
C           53.17338599999999       -2.08393100000000        1.72584200000000
C           54.44151000000000       -2.78710200000000        1.95850400000000
C           55.39354300000000       -2.11812800000000        1.34011600000000
N           53.34123500000000       -1.02991200000000        0.98940100000000
C           54.73895600000000       -0.98334500000000        0.70220700000000
C           55.35391900000000       -0.00563000000000        0.01900100000000
C           54.60285800000000        1.09463300000000       -0.62064200000000
C           55.13535299999999        2.25205700000000       -0.99111600000000
C           54.10324500000000        2.99509600000000       -1.68941700000000
C           53.01223099999999        2.23779900000000       -1.70116200000000
N           53.23768799999999        1.00224800000000       -1.02481300000000
C           51.75951800000000        2.57872500000000       -2.41756000000000
C           51.82248500000000        3.56781400000000       -3.52185800000000
C           52.62947100000000        3.32264600000000       -4.64211700000000
C           52.69393400000000        4.27250400000000       -5.66430200000000
N           51.98367900000000        5.42786700000000       -5.56791300000000
C           51.19987099999999        5.69497900000000       -4.48956100000000
C           51.10746000000000        4.77264600000000       -3.44464800000000
C           50.58820800000000        1.99528600000000       -2.09736600000000
C           49.31329000000000        2.19607000000000       -2.77869700000000
C           48.42556400000000        1.48762100000000       -2.11103600000000
C           49.12245100000000        0.82406500000000       -1.00367900000000
N           50.38653100000000        1.11380500000000       -0.99229600000000
H           47.40411899999999       -1.68121200000000        2.14448800000000
H           49.20850500000000       -2.99412500000000        3.35442100000000
H           50.93540700000000       -5.05651600000000        2.18716000000000
H           51.03896600000000       -6.76489900000000        3.97990900000000
H           52.98815599999999       -4.04296600000000        6.56294300000000
H           52.92002999999999       -2.27720900000000        4.82493200000000
H           54.59092999999999       -3.69179000000000        2.53306000000000
H           56.44240000000000       -2.38316500000000        1.32827200000000
H           56.15712500000000        2.57277300000000       -0.83766400000000
H           54.21762600000000        3.96754700000000       -2.15060600000000
H           53.19867000000000        2.40471700000000       -4.72350200000000
H           53.31027400000000        4.09128000000000       -6.53465600000000
H           50.65035100000000        6.62558900000000       -4.44148700000000
H           50.48982100000000        4.99550500000000       -2.58326900000000
H           49.10963300000000        2.79093200000000       -3.65930400000000
H           47.37583300000000        1.41633200000000       -2.36197700000000
Zn          62.59806000000000        0.02893100000000       -0.05085200000000
C           59.23041700000000       -0.00563000000000        0.01900100000000
C           59.88573800000000       -0.80392300000000        0.88171600000000
C           59.24486100000000       -1.62553600000000        1.91047300000000
C           60.18117400000000       -2.30988900000000        2.53707000000000
C           61.47842499999999       -1.97028700000000        1.94352300000000
N           61.30064800000000       -1.00897700000000        0.90009300000000
C           62.66281699999999       -2.49800200000000        2.32019300000000
C           62.69888100000000       -3.53440400000000        3.37826200000000
C           62.17130100000000       -4.81211300000000        3.14157700000000
C           62.23085900000000       -5.77668200000000        4.15014800000000
N           62.80140900000000       -5.47734200000000        5.34755000000000
C           63.32555100000000       -4.24842300000000        5.60041000000000
C           63.28592999999999       -3.25425800000000        4.61992900000000
C           63.95945300000000       -2.08393100000000        1.72584200000000
C           65.22757700000000       -2.78710200000000        1.95850400000000
C           66.17961000000000       -2.11812800000000        1.34011600000000
N           64.12730200000000       -1.02991200000000        0.98940100000000
C           65.52502400000000       -0.98334500000000        0.70220700000000
C           66.13998599999999       -0.00563000000000        0.01900100000000
C           65.38892500000000        1.09463300000000       -0.62064200000000
C           65.92142000000000        2.25205700000000       -0.99111600000000
C           64.88931200000000        2.99509600000000       -1.68941700000000
C           63.79829800000000        2.23779900000000       -1.70116200000000
N           64.02375499999999        1.00224800000000       -1.02481300000000
C           62.54558500000000        2.57872500000000       -2.41756000000000
C           62.60855200000000        3.56781400000000       -3.52185800000000
C           63.41553800000000        3.32264600000000       -4.64211700000000
C           63.48000100000000        4.27250400000000       -5.66430200000000
N           62.76974600000000        5.42786700000000       -5.56791300000000
C           61.98593799999999        5.69497900000000       -4.48956100000000
C           61.89352700000000        4.77264600000000       -3.44464800000000
C           61.37427500000000        1.99528600000000       -2.09736600000000
C           60.09935700000000        2.19607000000000       -2.77869700000000
C           59.21163099999999        1.48762100000000       -2.11103600000000
C           59.90851800000000        0.82406500000000       -1.00367900000000
N           61.17259800000000        1.11380500000000       -0.99229600000000
H           58.19018699999999       -1.68121200000000        2.14448800000000
H           59.99457200000000       -2.99412500000000        3.35442100000000
H           61.72147400000000       -5.05651600000000        2.18716000000000
H           61.82503300000000       -6.76489900000000        3.97990900000000
H           63.77422399999999       -4.04296600000000        6.56294300000000
H           63.70609700000000       -2.27720900000000        4.82493200000000
H           65.37699700000000       -3.69179000000000        2.53306000000000
H           67.22846800000001       -2.38316500000000        1.32827200000000
H           66.94319200000000        2.57277300000000       -0.83766400000000
H           65.00369400000000        3.96754700000000       -2.15060600000000
H           63.98473700000000        2.40471700000000       -4.72350200000000
H           64.09634100000000        4.09128000000000       -6.53465600000000
H           61.43641800000000        6.62558900000000       -4.44148700000000
H           61.27588800000000        4.99550500000000       -2.58326900000000
H           59.89570000000000        2.79093200000000       -3.65930400000000
H           58.16190000000000        1.41633200000000       -2.36197700000000
220
 energy: -381.056403727430 gnorm: 0.355869802223 xtb: 6.5.1 (b24c23e)
Zn          40.15749707768793        0.01155586949496       -0.01882503974493
C           36.78846234401501       -0.08125675601601       -0.04928308732729
C           37.45614304267166       -1.25911714431655        0.00935798682678
C           36.80027537840460       -2.55455497647217        0.06729418147191
C           37.75158787567740       -3.48422034392860        0.17527862812922
C           39.04608093342981       -2.80338248705758        0.18730862153200
N           38.84688917167891       -1.41884056048980        0.07750390775889
C           40.25435807056193       -3.41960438495349        0.34243164769809
C           40.27767263196756       -4.89616346006515        0.49236201464318
C           40.47776307270612       -5.47718123451112        1.74639776674376
C           40.50166354765567       -6.86324274151905        1.85452746571352
N           40.33223738669118       -7.64958789519348        0.77611872671845
C           40.13262202736549       -7.10756136838632       -0.43891840519927
C           40.09733992170084       -5.72843588212378       -0.61568043891988
C           41.52766215907588       -2.71168986046156        0.38399608038114
C           42.80780013563434       -3.34690341953132        0.67155329837583
C           43.75645793503940       -2.40552390315144        0.58590369647931
N           41.69660116759670       -1.42810797167006        0.12928621652880
C           43.09545752106371       -1.16550105945620        0.23359196528165
C           43.69943729320377        0.02192300445733       -0.02611014581747
C           42.92098840553986        1.21080882518888       -0.37660109688217
C           43.46062144403570        2.32108201064288       -0.95808498499642
C           42.43645676091550        3.29696152351206       -1.07097957394148
C           41.29394754653502        2.75388941696323       -0.55625599692119
N           41.54062988386261        1.43072390264331       -0.12636283426481
C           40.03001768449023        3.48721453044172       -0.43120099259922
C           40.04648354238316        4.97498782705355       -0.48462878328930
C           39.37780122735361        5.67575163905625       -1.49601037575598
C           39.42883317563360        7.06648231910870       -1.50973409629801
N           40.10467103063375        7.74923665846809       -0.56800040702566
C           40.75215692357959        7.09579363060356        0.41328086045468
C           40.74357527188148        5.70641654718069        0.48234424699645
C           38.84471746199914        2.85015642754426       -0.25432205985772
C           37.54058035579929        3.46646079878308       -0.06771679942460
C           36.65876904834481        2.46298464316958        0.02824453614481
C           37.40132677254099        1.21908226423583       -0.08720043600479
N           38.68728588260845        1.44705386081222       -0.24636249451125
H           35.70553249546745       -0.11947853698500       -0.04860978978336
H           35.73619367581819       -2.74493169651752        0.04127013083644
H           37.56623218386546       -4.54620161579200        0.25243368966000
H           40.61219908240322       -4.85516472021256        2.62586015725482
H           40.66100302872393       -7.32695818891376        2.82654064044426
H           39.99767760543724       -7.76661061456219       -1.29513150567537
H           39.93660079883004       -5.30582909948503       -1.60278710489318
H           42.98582092131159       -4.38283861565048        0.90650230300896
H           44.81295524564243       -2.56209258713151        0.73961574917154
H           44.48984218060195        2.43069922106605       -1.25036951869184
H           42.53616103146430        4.29358053922228       -1.47030711800888
H           38.83573575993939        5.14295236464496       -2.27072981371064
H           38.91650032966231        7.61970030636724       -2.29583785223164
H           41.29319246595252        7.67173616681185        1.16287507997231
H           41.26909195612696        5.19674278700274        1.28340874308080
H           37.30232049687233        4.51933556635328       -0.00682003442680
H           35.59713611253311        2.56989493546424        0.17461201621582
Zn          74.40107872888548       -0.00118770936673       -0.01697809287922
C           77.76987297634312        0.07883630742253       -0.07307124915831
C           77.10226553077196        1.22283187494266       -0.35940577924279
C           77.75810119920527        2.47917294165071       -0.68059361533587
C           76.80678950069992        3.40002635601021       -0.84756577009997
C           75.51229021475952        2.75203685619657       -0.63807911578820
N           75.71142413962151        1.39549746312067       -0.34062853403159
C           74.30387734981487        3.38681457414725       -0.66877685140958
C           74.28064205867921        4.84325463793077       -0.95468900019469
C           74.08060831427382        5.76369795914989        0.07628859372077
C           74.05672318744051        7.12135024581608       -0.22325657423311
N           74.22615750416574        7.56010448018398       -1.48367588651825
C           74.42574435272100        6.68832550563943       -2.48866432542545
C           74.46102788110527        5.31734473666414       -2.25683782134417
C           73.03081059795829        2.72163067013303       -0.42329160359605
C           71.75046182384918        3.41298460339062       -0.33287624906267
C           70.80184135581693        2.48757092230635       -0.14100379636611
N           72.86188873964129        1.41928443351901       -0.29398573102266
C           71.46305960207405        1.19868565723068       -0.11784108888483
C           70.86107424200915       -0.01325888581704       -0.02100723109939
C           71.63742692769060       -1.25302523356126       -0.01058890260041
C           71.09765722817750       -2.48421781161362       -0.24419122397841
C           72.12190724170829       -3.45057286887939       -0.06840199854709
C           73.26438392818540       -2.78125674280170        0.26611641447852
N           73.01773520582771       -1.39027602495418        0.29314458838637
C           74.52842022193290       -3.44657847419790        0.59896516758462
C           74.51187171111056       -4.88565093637899        0.98042468464662
C           75.18058907996436       -5.85013260941344        0.21645554718886
C           75.12954063325064       -7.18479939569834        0.60767462342655
N           74.45369373786443       -7.56418905281863        1.70720310433801
C           73.80622678185723       -6.65376524373501        2.45615760154647
C           73.81477201844450       -5.30429717433144        2.11827949417635
C           75.71363022486136       -2.78559934462950        0.58302501225224
C           77.01782355007342       -3.32102807656288        0.94075068949164
C           77.89958505723068       -2.33304253658377        0.74082420507842
C           77.15699741172713       -1.17641554634173        0.26870775687973
N           75.87105339815261       -1.44074747349298        0.18271228933761
H           78.85280230888037        0.11557214642063       -0.08353899128759
H           78.82216242881294        2.65374556269398       -0.76084628919962
H           76.99211760761388        4.43856102824933       -1.08248872642062
H           73.94617660015635        5.42424155796486        1.09859792986674
H           73.89737130298373        7.84760580642537        0.57194933841524
H           74.56069260117498        7.06995184597491       -3.49948598998023
H           74.62176329172154        4.62601648719538       -3.07843432170782
H           71.57249438402233        4.47243136369222       -0.40921208710652
H           69.74536851740702        2.68194341024201       -0.03953428377594
H           70.06846755908936       -2.67393796385704       -0.49193922099151
H           72.02221864013457       -4.52019287997626       -0.16077879559621
H           75.72263604943805       -5.56559012734079       -0.67970212069985
H           75.64186992328662       -7.94264788759208        0.01636978957012
H           73.26518602734789       -6.98687567959724        3.34079897845444
H           73.28928536323366       -4.58374148563098        2.73658104493363
H           77.25605785758894       -4.31070661108553        1.30511320745501
H           78.96120618701633       -2.39274218589746        0.91194325468132
C           45.79993364586655        0.00462419509457       -0.01556978998439
C           47.03057706023291        0.00979096568532       -0.02141634934458
C           56.67557404772570        0.01736822499451       -0.02489593411723
C           57.88543970727246        0.01196278659018       -0.02481624048400
C           67.52710805790798        0.01638673320431       -0.02437258254390
C           68.75913216407685        0.00642802118593       -0.01981795259932
Zn          51.81381937929007        0.02711521352104       -0.04699753752487
C           48.43142565329016        0.00065793811304        0.00017421973936
C           49.10275790020422       -0.80649021582755        0.88447552155910
C           48.45735015143577       -1.61944809138223        1.90336121129946
C           49.40595601438234       -2.31235758457280        2.53776050564023
C           50.69017531513352       -1.96722008620397        1.94034786394147
N           50.48929753406398       -1.01850468479079        0.92175116265216
C           51.89133850158362       -2.49844038300790        2.31634712104648
C           51.91891528342085       -3.53539393999070        3.37524065679874
C           51.38695447179830       -4.80803759354339        3.14755819478799
C           51.45290165536399       -5.76043600679867        4.15851015892586
N           52.01535544487733       -5.47739073085199        5.34755736318711
C           52.53027222053096       -4.25726370959763        5.58514654335768
C           52.49912857378870       -3.26064707351099        4.61622429891465
C           53.16526223930935       -2.10175594638198        1.74488924367796
C           54.42499272790148       -2.79848607147503        1.97256839146179
C           55.38572996034500       -2.11297634181468        1.33805059153352
N           53.34775852623951       -1.04185497240013        0.98703638960477
C           54.72104314692904       -0.99356707557312        0.70804875353339
C           55.32128935751366        0.00784146766939        0.01168559322516
C           54.58251700147948        1.08787223270699       -0.62816014275493
C           55.13637411347149        2.27416182152813       -1.00721554604458
C           54.12772530390241        3.00141680984598       -1.69246452365647
C           53.00525187106028        2.22444363454589       -1.70568830508643
N           53.23884564382206        1.01565328784142       -1.02384227434023
C           51.77383303603634        2.57116086467114       -2.41043276767674
C           51.83154356411440        3.56698400349910       -3.51297303104405
C           52.62760405681630        3.32787433215561       -4.63749154716014
C           52.68087908231113        4.27973506095561       -5.65033361495604
N           51.98361339070074        5.42728942603110       -5.56722627668566
C           51.21153247683330        5.67836205468888       -4.49457179976944
C           51.11151079034562        4.76637326211743       -3.44835495095238
C           50.58619579251829        1.99451962386911       -2.09767818642628
C           49.31947483439340        2.19660883324976       -2.77571174179607
C           48.41158124307468        1.47954678244048       -2.10162523780925
C           49.10012107315233        0.82180203435309       -1.00124258854213
N           50.38173668627421        1.11694828045692       -1.00789651035356
H           47.40272980550444       -1.67196364470607        2.13374660349786
H           49.22244530455608       -2.99629914168065        3.35407323532428
H           50.93741285228069       -5.05471124879110        2.19054676261918
H           51.04622895446699       -6.75643490843474        3.99071384146165
H           52.98092172056448       -4.05425619859091        6.55520326992969
H           52.91844168153121       -2.28081866860987        4.82343186165533
H           54.57974717753655       -3.69907776917352        2.54046269895840
H           56.43647684622212       -2.37224501604065        1.31920534585108
H           56.15681230676807        2.58150489237105       -0.83988880802705
H           54.22658470046817        3.97249676421956       -2.14834794700840
H           53.19680651029253        2.40764834822322       -4.72231967548828