187
 energy: -373.306754358585 gnorm: 0.000300121905 xtb: 6.5.1 (b24c23e)
Cu          32.28781952667561       -0.00699085079541       -0.05769998761586
C           28.88319218473782       -0.03560302849793       -0.13770664596887
C           29.52156839381361       -1.25284668612910       -0.31911295168813
C           28.84925108863807       -2.50875839162215       -0.49279963504201
C           29.81004903384818       -3.45458514807151       -0.63373919769390
C           31.07913346977546       -2.78168822792193       -0.56053815999098
N           30.87310956793671       -1.44754340024159       -0.36103714454403
C           32.32675205217396       -3.40415342262920       -0.65198339750752
C           32.34375891837360       -4.86464430214846       -0.90400429122856
C           32.91621654939387       -5.73570926728661        0.02798256832503
C           32.92984233982534       -7.09966573095422       -0.19999552820577
C           32.37094948386540       -7.59733332167704       -1.37374649058303
N           32.38360663738339       -9.02855898680074       -1.61907248329677
O           31.88948345180914       -9.42290633618983       -2.64417340289626
O           32.88711301177579       -9.73328126562204       -0.78232063082546
C           31.79951129711012       -6.74715654992936       -2.31624471080429
C           31.78612112787041       -5.38536488839557       -2.07574587279512
C           33.55904811143647       -2.75843046864947       -0.52650108363496
C           34.83843076219344       -3.38900758225751       -0.69052213320330
C           35.78054619025703       -2.42875879841010       -0.51275704317632
N           33.74153258964221       -1.42703279371947       -0.26397424993483
C           35.08454975998388       -1.20574052459457       -0.24675364378049
C           35.71584810103177        0.02654036526196       -0.00426356127955
C           35.05371124482939        1.24440831376412        0.22759301979526
C           35.71715994771644        2.47733676327996        0.52817194745437
C           34.75122344881684        3.41655415694274        0.69021250225167
C           33.49009197221479        2.76406771005773        0.47739307638853
N           33.70667770391577        1.43941289645100        0.20637092193241
C           32.24184955659597        3.38548561128713        0.56248670637359
C           32.21934371500802        4.84172922123303        0.83696723620863
C           31.59582721161118        5.33153608679093        1.98882961164630
C           31.57003005878529        6.68891074376051        2.25187884173395
C           32.16904588795963        7.56610264189930        1.35220930537605
N           32.14111432701593        8.99281144603240        1.62122833534445
O           31.58723260594885        9.36005057810175        2.62567577369431
O           32.67287237582892        9.72128054085133        0.82316190799078
C           32.79330988430956        7.09957240451192        0.19878668449279
C           32.81770552025770        5.73977490271129       -0.05215729021975
C           31.01073449105223        2.74253245704090        0.40807973083896
C           29.72858639870161        3.39424511104790        0.42383917559999
C           28.79170364405143        2.43465646483815        0.22638556454790
C           29.49223461282983        1.19102159269480        0.07794521825200
N           30.83677458957916        1.40712571811611        0.18793917976465
H           27.79856608905375       -0.04417029928800       -0.16492330254356
H           27.77848742255853       -2.63718046436833       -0.49344504371988
H           29.67810670847789       -4.51668195654894       -0.76302919136363
H           33.33724998559725       -5.33675650119127        0.94348722884464
H           33.36505716791088       -7.78293477563042        0.51932659597770
H           31.37526308463040       -7.15926730132636       -3.22391408626513
H           31.35494742410561       -4.71188081395143       -2.80723541302252
H           34.99277494520641       -4.42908057087176       -0.92779243303869
H           36.85289339489959       -2.52883264388774       -0.56263899911602
H           36.78538452910677        2.59706941958435        0.61214161049015
H           34.87803172465919        4.45596676476183        0.94594840959059
H           31.14346050012196        4.63734103884467        2.68743808445776
H           31.09414590568718        7.07699366630606        3.14441704903770
H           33.24864076605852        7.80345245814335       -0.48744817665150
H           33.28897617319625        5.36525962393254       -0.95337866473027
H           29.57294487507781        4.45294765763769        0.55459243546660
H           27.72031367790062        2.54602354418661        0.17391765326695
Cu          59.22271933251468        0.05443618720024       -0.01905788514434
C           62.62578238770367        0.11188196303837       -0.12685983904496
C           61.99081531954693        1.30827395641697        0.16921130912903
C           62.66650838208015        2.53781105507582        0.47122347660016
C           61.70824166023542        3.46843009422499        0.70207194261748
C           60.43722459900371        2.81779158998452        0.52922398331803
N           60.63975478349931        1.50511258173300        0.21588665518803
C           59.19116908846844        3.43137347392976        0.68144717478337
C           59.17692921972504        4.88089849523303        0.99035632572558
C           58.60939740658203        5.34247893922444        2.18200901452319
C           58.59888161810266        6.69301768538905        2.47923146843647
C           59.15552319966277        7.59173058849170        1.57357208619778
N           59.14663602688339        9.01107458599570        1.88022889670590
O           59.63774213408611        9.75885451528785        1.07401854982251
O           58.64914634940942        9.35322615662201        2.92226027185634
C           59.72136222464222        7.15355729687950        0.37963252609702
C           59.73205619679683        5.80024125698453        0.09499763985440
C           57.95754207496140        2.78641858241954        0.56490918386055
C           56.67930173882051        3.43483915703887        0.64822443968294
C           55.73518691406559        2.47675176776960        0.46898198574960
N           57.77245371081661        1.45129441653345        0.32438569708221
C           56.42886156371724        1.23996400601397        0.26893065759560
C           55.79560314446605        0.00218966334434        0.06232917364437
C           56.45576354756885       -1.21766889062012       -0.16508804324304
C           55.79132775910075       -2.47625431361632       -0.32325594345313
C           56.75486210924281       -3.40756298008024       -0.53724089338036
C           58.01521051498035       -2.72006007656976       -0.52171944968463
N           57.80110806760496       -1.38915507564021       -0.28148748074587
C           59.26090020064182       -3.32623418589802       -0.70185616382740
C           59.27830915052753       -4.77809055972899       -0.99868900133002
C           59.92273383377724       -5.66834474770975       -0.13412733486629
C           59.94430342308281       -7.02371369353844       -0.40802843743614
C           59.31981010794804       -7.49354568826071       -1.55996571592009
N           59.34423395677030       -8.91502764107749       -1.85558957230351
O           59.91794397287480       -9.63609266126804       -1.08010306317296
O           58.79010563016860       -9.28552807582445       -2.85866315531086
C           58.67357617182500       -6.62428118427482       -2.43432900948270
C           58.65367390993492       -5.27142528558018       -2.14837177503475
C           60.49265314828001       -2.67022579360863       -0.62941442359301
C           61.77141557211468       -3.27856483322804       -0.88147472901391
C           62.71006478288677       -2.31402896812230       -0.71969008004946
C           62.01377846622616       -1.10628806260224       -0.37912634943109
N           60.67002301684217       -1.34925861904784       -0.33648463248742
H           63.71002090461894        0.13038105075227       -0.16310649624204
H           63.73771782697096        2.65658347024852        0.50908126509479
H           61.84315338664745        4.50192603770176        0.97751659114063
H           58.18989007729051        4.63145979152781        2.88418912287459
H           58.16778909878994        7.05932909533780        3.40317000735930
H           60.14380729700249        7.87387359646354       -0.31057092594383
H           60.15906865221724        5.44757851692283       -0.83658719515092
H           56.52709248996829        4.49012691118847        0.80664986472401
H           54.66289136582589        2.58910007776796        0.46500175271404
H           54.72427988763330       -2.62045378295629       -0.26754689015389
H           56.62727184834338       -4.46853522285678       -0.67842686253041
H           60.39498405866780       -5.29164905208755        0.76568124766081
H           60.43656209914462       -7.72154326080190        0.25861613227882
H           58.19821000220237       -7.01475042278619       -3.32609484645360
H           58.16537548832763       -4.58285009808675       -2.82808293543073
H           61.92369709422356       -4.30880334854754       -1.16000904168168
H           63.77989662855948       -2.39643522489977       -0.82785274053942
C           38.34415685434983        0.04261368619621        0.01060878537132
C           37.12248260394193        0.03984310046209        0.00755797522268
C           39.69420866108749        0.04320564919583        0.01179367266675
C           40.91595342155693        0.03849825461566        0.00976170520964
C           51.81772627801970       -0.02376084842279        0.08594349768972
C           50.59593663669726       -0.02189696192478        0.07857581889823
C           53.16762025985361       -0.02133059850501        0.08579457949426
C           54.38929459884721       -0.01525855979455        0.08043035899007
Cu          45.75597735496437        0.00742433514148        0.02381077856276
C           42.32210503839305        0.02991504062904        0.00985518210854
C           42.96095956494701       -1.22099107525756        0.07789232360661
C           42.27394645137007       -2.47282330103422        0.18880321735532
C           43.22259536430415       -3.44305025277533        0.21318022983687
C           44.49602069702571       -2.78807220444518        0.10968418069893
N           44.30391367565803       -1.43484178077429        0.03795712020113
C           45.73356896835810       -3.43640990661354        0.11004421277408
C           45.72352193035231       -4.91840743941866        0.14319487613232
C           46.30820828966021       -5.60482058933584        1.21181487557792
C           46.29958336263592       -6.98723443073978        1.24865428852231
C           45.70602385734306       -7.69040955641967        0.20422037380126
N           45.69695761985152       -9.14233866540405        0.23633506794759
O           45.17324085176010       -9.71701983103674       -0.68323017895047
O           46.21380560793436       -9.68217830476800        1.18069256533994
C           45.12084509907610       -7.02646612051998       -0.87018886667806
C           45.12957517181313       -5.64372959329046       -0.89415295794227
C           46.97979083820009       -2.80544752304976        0.08375650998216
C           48.24507796054134       -3.48102604551557        0.02034935863272
C           49.20643021907834       -2.52313926774373        0.00817035350907
N           47.18934271646020       -1.45292735464809        0.09246464674451
C           48.53523984746204       -1.25873837094189        0.05287953115429
C           49.19004633924330       -0.01439413875241        0.06368768729293
C           48.55055730754052        1.23803899687027        0.05304691812514
C           49.23618308748013        2.49456810561924        0.09945284605515
C           48.28786459553282        3.46400089491626        0.04579603013324
C           47.01617280074878        2.80322960796298       -0.04053296985901
N           47.20857865229838        1.44838515554660       -0.02330899487132
C           45.77935606630157        3.45003931407506       -0.10660760501774
C           45.79197438424242        4.93018952465468       -0.18357483587479
C           46.41352698286870        5.57224786745397       -1.25918663533827
C           46.42435343173441        6.95242041602275       -1.34382666801692
C           45.81257707202629        7.69863042614997       -0.34054933151045
N           45.82127426732728        9.14842373518090       -0.42431147200621
O           46.37040593144195        9.64864454847069       -1.37230709716787
O           45.27828749376573        9.76119609010879        0.45878493990552
C           45.19225084414111        7.07950993737461        0.74089324509488
C           45.18270660187813        5.69839772473198        0.81318543804004
C           44.53321989553353        2.81829513407879       -0.11100497825535
C           43.26918175569253        3.48733349903129       -0.23793821377544
C           42.30771495898351        2.53027375189505       -0.20002324621277
C           42.97766583796441        1.27181141139915       -0.06342473759156
N           44.32290534777781        1.46900482928949       -0.01673627053948
H           41.20323681117590       -2.58497194302526        0.24771094580718
H           43.07647216694134       -4.50674339261061        0.30862701313959
H           46.75691444062450       -5.04543092229871        2.02440606273229
H           46.74450166667338       -7.52775033667325        2.07543462256192
H           44.66896904551548       -7.59720982226263       -1.67253332199707
H           44.68744351190351       -5.11503052219232       -1.73055939412799
H           48.37789613274858       -4.54976992958620       -0.02464733099033
H           50.27602713811255       -2.65156937825176       -0.03606899766409
H           50.30571020154247        2.61070584124755        0.17078215513360
H           48.43298591384058        4.53160280394909        0.07836969252601
H           46.87545796664988        4.97942188860284       -2.04006964420673
H           46.89749741308051        7.45827350885474       -2.17685043487407
H           44.72746578142776        7.68333499883691        1.51100302482456
H           44.71364639228140        5.20491437278444        1.65639213882442
H           43.13707717572171        4.55055154480649       -0.35609498226114
H           41.23898594023970        2.65497255793404       -0.26894773951195
