252
 energy: -441.134803357957 gnorm: 0.000849672846 xtb: 6.5.1 (b24c23e)
C           41.31872360353968        0.08980936702328        0.04804194220082
C           41.92665192141587        1.33723225787852       -0.00729495593639
C           41.27426908857587        2.60212011904844       -0.01593966543313
C           42.23463998001629        3.57087375085157       -0.09310396832126
C           43.50483443789742        2.92821728817416       -0.14388804309764
N           43.26864229344990        1.58476463210231       -0.07846835617029
C           44.76714434050401        3.52811997500696       -0.22144107342596
C           44.79562534435435        5.00745273242089       -0.31096553243073
C           45.43443651651383        5.76475989398250        0.67392244155153
C           45.45821982657126        7.14563596116696        0.59670672511972
C           44.84400736524398        7.79852417843045       -0.47625139773676
C           44.86776431013025        9.21934029395439       -0.56036068297959
N           44.88581828644382       10.36795106332796       -0.62808648530530
C           44.20561583531780        7.04537377648650       -1.46613277565938
C           44.18103149174910        5.66500299814521       -1.37942130734088
C           45.98352957830355        2.84059584720145       -0.22071754223468
C           47.27844593884245        3.48224987027132       -0.36268968557580
C           48.19998936821023        2.49848279756680       -0.31089877416771
N           46.13953673560459        1.49298751609201       -0.10897249869019
C           47.46665046591882        1.25788582608916       -0.14859598701107
C           48.10559529032366        0.00628446769721       -0.03897044443093
C           47.47204840749922       -1.24579771826843        0.07292092489804
C           48.11868588613437       -2.50370892804196        0.20040512181079
C           47.15346626547244       -3.47047866018551        0.25670921895903
C           45.88634471424945       -2.83148364530990        0.15702894267008
N           46.13080996231113       -1.48746423180192        0.05781541128787
C           44.62463624566412       -3.43578374397039        0.18313296476821
C           44.59467183350176       -4.91508135107089        0.26052651030236
C           43.97635455112512       -5.55662864848960        1.33668666643344
C           43.94714707250333       -6.93743833057308        1.41214139963427
C           44.53475498993043       -7.70739415177555        0.40386974294907
C           44.50353731103413       -9.12869812162489        0.47635870012495
N           44.47832584519161      -10.27774630440462        0.53233741706124
C           45.15331780070030       -7.07076201123481       -0.67628152639365
C           45.18372653326439       -5.68939416432531       -0.74219940911647
C           43.40654913203950       -2.74838129324870        0.14209510857143
C           42.10209615645543       -3.39254569091105        0.11888739779972
C           41.18786861017502       -2.40248646101890        0.08654732951520
C           41.93240609816198       -1.15538339424587        0.07586765227323
N           43.26520494174122       -1.40272034592236        0.10023510218179
H           40.23360318375571        0.09881510145895        0.06763245412764
H           40.20605965089550        2.73944861470117        0.03657463992410
H           42.08267938118281        4.63795049429955       -0.10454828815477
H           43.99436759899022        0.87584932690313       -0.07958962595901
H           45.90065444424724        5.26289657794070        1.51422323493348
H           45.95081912746706        7.72636805595043        1.36778711422768
H           43.73213853405281        7.54748556213253       -2.30174071320875
H           43.69703121365482        5.08459751536974       -2.15690460545618
H           47.43859431746448        4.53957339882978       -0.49799222690061
H           49.27297092200935        2.57702855248296       -0.38194931744917
H           49.18689328226684       -2.64107689635958        0.24716623603087
H           47.30294727164691       -4.53191267627868        0.36876139358799
H           45.40729375919239       -0.77922185318198       -0.00985258142322
H           43.53131130859181       -4.96351359648557        2.12753336961064
H           43.47063442825604       -7.42739359854327        2.25316862600498
H           45.60641591624373       -7.66408242150789       -1.46185385663602
H           45.65163475411199       -5.20020577658429       -1.58916799921519
H           41.93376768200233       -4.45739787737665        0.11389467464762
H           40.11205743259595       -2.47686815719947        0.06142015158031
C           96.12781175384207       -0.08031117841246        0.06752779484995
C           95.51633347145859       -1.28855457396372        0.37567623243838
C           96.16569881231572       -2.50735689370835        0.71987673831899
C           95.20214744694746       -3.45186820105793        0.93493342525728
C           93.93283717332189       -2.84225379758473        0.72028776823484
N           94.17294203623392       -1.53781610917815        0.39522224923405
C           92.66814224050466       -3.43016844972190        0.83935317285842
C           92.63543572611339       -4.87329113678046        1.17682379157736
C           92.01711276142977       -5.31462979765219        2.34914279232318
C           91.98855532013782       -6.66052153742083        2.66730902099017
C           92.57713844154534       -7.59605955703199        1.81112532154077
C           92.54829768735604       -8.98236146997820        2.13312432211374
N           92.52576652167863      -10.10318235737854        2.39282922936754
C           93.19526253736414       -7.15995180110715        0.63535719639418
C           93.22486907685760       -5.81193030607264        0.32645872704231
C           91.45342033864706       -2.76329478262231        0.66164358225517
C           90.15473505063879       -3.40830959387078        0.73846248999430
C           89.23660872570672       -2.44693902142110        0.50956119475627
N           91.30249714658532       -1.44193411461978        0.37097010213579
C           89.97564336213996       -1.22008577503638        0.28135657420061
C           89.34160282314754        0.00791196634461        0.00364751551791
C           89.97923416149891        1.23121929209406       -0.27664515574682
C           89.33601274844646        2.47140987070213       -0.53152894790459
C           90.30402819990503        3.40950559146859       -0.76036017667749
C           91.56950770604462        2.76720036757575       -0.66088695974414
N           91.32107851137120        1.45427271865404       -0.35952481515927
C           92.83332481252893        3.34971661826173       -0.80566852241366
C           92.86998668918514        4.78924051810752       -1.15452903770564
C           93.48803045843800        5.70797410291869       -0.30240785041187
C           93.52504312059861        7.05294353447649       -0.62300632778578
C           92.94549681498499        7.50649671150413       -1.81176765398819
C           92.98545237178784        8.88930189787547       -2.14728272088526
N           93.01836825036793       10.00716008482796       -2.41841239986322
C           92.32699553077872        6.59142187307098       -2.66891133610187
C           92.28891536633695        5.24853978617018       -2.33909738027467
C           94.04898756128939        2.67568714736314       -0.64427897714713
C           95.35544519325292        3.28152478993690       -0.85212931088987
C           96.26637945734768        2.31956704487604       -0.60337934845230
C           95.51784247247262        1.12424191420402       -0.25620487340107
N           94.18589494616447        1.37379824636360       -0.29961713089303
H           97.21304270701675       -0.08891137584976        0.07992603627007
H           97.23424123026378       -2.63066133840273        0.79533578146638
H           95.35133894965573       -4.47888009622291        1.22627608309259
H           93.44880806745005       -0.85440672824947        0.20068160884173
H           91.57062571058094       -4.59132790516724        3.02203656949435
H           91.51178330110569       -6.99452135979294        3.58143096322774
H           93.64878914543092       -7.88252596523684       -0.03299608397220
H           93.69286079856262       -5.47962548803348       -0.59341815251185
H           89.98949936561722       -4.45657312846011        0.92742997983634
H           88.16241860923128       -2.53545474462651        0.48236805144113
H           88.26807786209524        2.61857826622457       -0.53107684623209
H           90.15738081655815        4.45675620227674       -0.96845402792163
H           92.04263696311877        0.75635620112184       -0.21131992598781
H           93.92696881805689        5.36247899711597        0.62671543617999
H           94.00161374140140        7.75984296398148        0.04604010851439
H           91.88015419280885        6.93859576851739       -3.59316505453597
H           91.82146870039378        4.54062797928863       -3.01431797915727
H           95.52717155819123        4.30014001923426       -1.16065213331085
H           97.34232786374872        2.37937231124914       -0.65113113404998
C           53.30807484449080       -0.05032691423344       -0.02885721902304
C           52.07979110467744       -0.03923132631767       -0.03545769913313
C           50.73541448456353       -0.02629843559085       -0.03777146692775
C           49.51168490097862       -0.00795286386321       -0.04111315437014
C           54.65232834114707       -0.05821713456721       -0.02995200776643
C           55.87636097161357       -0.06549079070086       -0.02921243077766
C           69.33819563569000       -0.00436520284479        0.01240071227683
C           68.10933297077956       -0.00629789581909        0.01083790144754
C           66.76602075208076       -0.01058278092576        0.00836894198521
C           65.54157330702809       -0.01640521403451       -0.00053592909379
C           70.68150346457296       -0.00383185694230        0.00930863469079
C           71.90598193261911       -0.00593119218809        0.00582891283576
C           85.36763200559773        0.04071815629461       -0.00021961939030
C           84.13929980604519        0.03563277956090        0.00071266368577
C           82.79521434326124        0.03027071356537       -0.00073340378673
C           81.57118319772945        0.02366269162396       -0.00692970416742
C           86.71188536544881        0.03653026433056        0.00004539794989
C           87.93573595795939        0.02553864055542        0.00018682082542
C           57.28151834327678       -0.06705362776167       -0.03371741454701
C           57.90459495372526        0.84108122662071       -0.91133406308528
C           57.25158857670336        1.76418548366382       -1.76833798027868
C           58.21243087675284        2.43422328677340       -2.47518584300347
C           59.48071467783465        1.93252731138551       -2.07463853125228
N           59.24432101936715        0.98075153917971       -1.11962362997873
C           60.73844084044496        2.33517110940781       -2.54157777664170
C           60.74572729427785        3.35222365603998       -3.62062235950144
C           60.13841835848949        3.08383581610797       -4.84970800032752
C           60.14590216939110        4.02774357712110       -5.86090668781037
C           60.75893960512317        5.26762449162132       -5.65752993180271
C           60.76561024811091        6.24237179458288       -6.69503322060714
N           60.77012201008569        7.02885107712220       -7.53499771564702
C           61.36489054317880        5.54272898707461       -4.42800990193633
C           61.35883312186161        4.59179182918914       -3.42345028124214
C           61.96600546767695        1.85901572406004       -2.07806632614483
C           63.24992189340906        2.25907713064587       -2.62611930637906
C           64.18998130838881        1.60200124543021       -1.91597992876243
N           62.14681666608647        0.95842346742677       -1.07292449879468
C           63.47866004502272        0.79371971461796       -0.94530699511222
C           64.13760275170465       -0.02961639153514       -0.00977042615027
C           63.51371096639665       -0.87920317380482        0.92454020506481
C           64.16599298426338       -1.69307432823974        1.88638157702528
C           63.20532207307536       -2.37890341808565        2.57810502041030
C           61.93788149085015       -2.00912885587186        2.05106305184036
N           62.17477763971475       -1.09206574153080        1.06241553216008
C           60.68057834736795       -2.46868294830913        2.46239700728961
C           60.67181724472685       -3.49813248144504        3.52958773859108
C           61.29298312162972       -4.73312026645781        3.32867617440307
C           61.28602867058256       -5.69565425507269        4.32217425848231
C           60.65907728007473       -5.43663026050047        5.54456020844563
C           60.65358262108244       -6.42384639355048        6.57016116967672
N           60.64710667396085       -7.22073625626240        7.40036364819186
C           60.03795736321677       -4.20134750243040        5.75167172368990
C           60.04396725094475       -3.24564628034356        4.75166788840001
C           59.45345387738725       -2.03865975407826        1.95364193162931
C           58.17099274015807       -2.58329414898301        2.36314412505075
C           57.23076091648617       -1.91134081783744        1.66729487832590
C           57.94050687278637       -0.96696649886645        0.82724380089803
N           59.27237406221767       -1.07449640099122        1.01017033445842
H           56.18327923103240        1.89547029071781       -1.82739710147906
H           58.05784449270897        3.21446158916539       -3.20234604164367
H           59.96814209321327        0.45935257222029       -0.63643212956878
H           59.67355250652383        2.11860122780050       -5.01637648572763
H           59.67864534722179        3.80926083168340       -6.81400092090872
H           61.83766796565774        6.50420846389334       -4.26539918381400
H           61.81916181963021        4.81353734834953       -2.46732415396950
H           63.39107848802651        2.93864935472915       -3.45077825884077
H           65.26216605624469        1.63600465051124       -2.02440436278410
H           65.23366768892760       -1.73828398647625        2.02798195859261
H           63.35956429483452       -3.07219931388399        3.38864881840691
H           61.45152231636701       -0.63589404713439        0.51646509933066
H           61.76864436415426       -4.94355367513238        2.37737555241698
H           61.76474127648272       -6.65363018693174        4.15621305152938
H           59.55370965101802       -3.99575680856227        6.69910858228409
H           59.57219117230549       -2.28431775198741        4.92057041050576
H           58.03105204013000       -3.38042605735762        3.07504504197960
H           56.15943494292569       -2.02961783899141        1.69486632803336
C           73.31004644396255       -0.00781302735905       -0.00266521848678
C           73.93112856462338        0.88535736919098       -0.89739729945664
C           73.27582001725671        1.79547070056550       -1.76646970210785
C           74.23508936950243        2.46099115409630       -2.47972175839926
C           75.50475442116561        1.96967317760405       -2.07074435769856
N           75.27037621767367        1.02685524136788       -1.10604834707837
C           76.76158607358879        2.37736753971542       -2.53458407397110
C           76.76854316749164        3.38851585259398       -3.61933846070896
C           76.17621504325773        3.10658952100926       -4.85263756778525
C           76.18913069708344        4.04247651385876       -5.87119469024369
C           76.79244760905466        5.28764867991227       -5.67116254550368
C           76.80746450836315        6.25270208754680       -6.71761697953781
N           76.82231457083665        7.03310049297547       -7.56320153350182
C           77.38129090640462        5.57710753550515       -4.43663833673102
C           77.36979775162224        4.63418304398397       -3.42455227232629
C           77.99055060569576        1.91051199626183       -2.06459395922123
C           79.27403872517611        2.32083118052466       -2.60624902043496
C           80.21541143960476        1.66508291281413       -1.89682726379815
N           78.17289580245887        1.00704142872714       -1.06287017744871
C           79.50557899098997        0.84675256952262       -0.93352559979093
C           80.16624807079452        0.01238463857482       -0.01005996207967
C           79.54565756339794       -0.84687170812497        0.91710470316116
C           80.20103483995996       -1.67352440052254        1.86580328552387
C           79.24178536176342       -2.35644649648941        2.56239544094163
C           77.97218033939588       -1.97161416132676        2.05178231299819
N           78.20636572789087       -1.05078023785079        1.06633250568864
C           76.71510956285361       -2.41825274798434        2.47859371631370
C           76.71050964887982       -3.45035930611460        3.54347859416322
C           77.31062771365818       -4.69318646351621        3.32763776947183
C           77.30807970708150       -5.65884553991567        4.31815466501657
C           76.70725735707479       -5.39490885453382        5.55255749175001
C           76.70667209381317       -6.38446807376207        6.57599101418063
N           76.70786735507706       -7.18262141204522        7.40489502891863
C           76.10785696963598       -4.15150814563896        5.77471341063018
C           76.10899878648597       -3.19274915867815        4.77758706491522
C           75.48647143978521       -1.97418532165529        1.98713248543212
C           74.20351719596835       -2.50160195775913        2.41679809301701
C           73.26199915832773       -1.82577211006847        1.72652493373842
C           73.97142419664020       -0.89636217415725        0.86940285403665
N           75.30353467714507       -1.01404713061602        1.03898887372993
H           72.20712827462096        1.92233688559763       -1.82839049988913
H           74.07871315942376        3.23187964321621       -3.21643686350890
H           75.99542439498101        0.51326279869461       -0.61636416590770
H           75.71963492238599        2.13703113488634       -5.01698776073460
H           75.73441972565556        3.81324199174183       -6.82781145095057
H           77.84587822473709        6.54297036071090       -4.27642780946855
H           77.81742957095497        4.86640219012442       -2.46488168212024
H           79.41438142657900        3.00611722790310       -3.42625994691359
H           81.28771870435047        1.70560937784671       -2.00156376794077
H           81.26966189201303       -1.72849187357758        1.99628693893964
H           79.39846146580726       -3.05686893551012        3.36631751264632
H           77.48125946794374       -0.58502339135772        0.53101819186739
H           77.76635670766625       -4.90679152324203        2.36731904290786
H           77.77020587542805       -6.62291047255339        4.14075894894109
H           75.64443606852112       -3.94196631421609        6.73165470728388
H           75.65417995599444       -2.22536467623011        4.95809005657273
H           74.06407845492376       -3.29094208424689        3.13743013914822
H           72.18992810283866       -1.93274747953292        1.76774639600496
