      -----------------------------------------------------------      
     |                   =====================                   |     
     |                           x T B                           |     
     |                   =====================                   |     
     |                         S. Grimme                         |     
     |          Mulliken Center for Theoretical Chemistry        |     
     |                    University of Bonn                     |     
      -----------------------------------------------------------      

   * xtb version 6.5.1 (b24c23e) compiled by 'conda@728c89f4b128' on 2022-07-12

   xtb is free software: you can redistribute it and/or modify it under
   the terms of the GNU Lesser General Public License as published by
   the Free Software Foundation, either version 3 of the License, or
   (at your option) any later version.
   
   xtb is distributed in the hope that it will be useful,
   but WITHOUT ANY WARRANTY; without even the implied warranty of
   MERCHANTABILITY or FITNESS FOR A PARTICULAR PURPOSE.  See the
   GNU Lesser General Public License for more details.
   
   Cite this work as:
   * C. Bannwarth, E. Caldeweyher, S. Ehlert, A. Hansen, P. Pracht,
     J. Seibert, S. Spicher, S. Grimme, WIREs Comput. Mol. Sci., 2020, 11,
     e01493. DOI: 10.1002/wcms.1493
   
   for GFN2-xTB:
   * C. Bannwarth, S. Ehlert and S. Grimme., J. Chem. Theory Comput., 2019,
     15, 1652-1671. DOI: 10.1021/acs.jctc.8b01176
   for GFN1-xTB:
   * S. Grimme, C. Bannwarth, P. Shushkov, J. Chem. Theory Comput., 2017,
     13, 1989-2009. DOI: 10.1021/acs.jctc.7b00118
   for GFN0-xTB:
   * P. Pracht, E. Caldeweyher, S. Ehlert, S. Grimme, ChemRxiv, 2019, preprint.
     DOI: 10.26434/chemrxiv.8326202.v1
   for GFN-FF:
   * S. Spicher and S. Grimme, Angew. Chem. Int. Ed., 2020, 59, 15665-15673.
     DOI: 10.1002/anie.202004239
   
   for ALPB and GBSA implicit solvation:
   * S. Ehlert, M. Stahn, S. Spicher, S. Grimme, J. Chem. Theory Comput.,
     2021, 17, 4250-4261. DOI: 10.1021/acs.jctc.1c00471
   
   for DFT-D4:
   * E. Caldeweyher, C. Bannwarth and S. Grimme, J. Chem. Phys., 2017,
     147, 034112. DOI: 10.1063/1.4993215
   * E. Caldeweyher, S. Ehlert, A. Hansen, H. Neugebauer, S. Spicher,
     C. Bannwarth and S. Grimme, J. Chem. Phys., 2019, 150, 154122.
     DOI: 10.1063/1.5090222
   * E. Caldeweyher, J.-M. Mewes, S. Ehlert and S. Grimme, Phys. Chem. Chem. Phys.
     2020, 22, 8499-8512. DOI: 10.1039/D0CP00502A
   
   for sTDA-xTB:
   * S. Grimme and C. Bannwarth, J. Chem. Phys., 2016, 145, 054103.
     DOI: 10.1063/1.4959605
   
   in the mass-spec context:
   * V. Asgeirsson, C. Bauer and S. Grimme, Chem. Sci., 2017, 8, 4879.
     DOI: 10.1039/c7sc00601b
   * J. Koopman and S. Grimme, ACS Omega 2019, 4, 12, 15120-15133.
     DOI: 10.1021/acsomega.9b02011
   
   for metadynamics refer to:
   * S. Grimme, J. Chem. Theory Comput., 2019, 155, 2847-2862
     DOI: 10.1021/acs.jctc.9b00143
   
   for SPH calculations refer to:
   * S. Spicher and S. Grimme, J. Chem. Theory Comput., 2021, 17, 1701-1714
     DOI: 10.1021/acs.jctc.0c01306
   
   with help from (in alphabetical order)
   P. Atkinson, C. Bannwarth, F. Bohle, G. Brandenburg, E. Caldeweyher
   M. Checinski, S. Dohm, S. Ehlert, S. Ehrlich, I. Gerasimov, C. Hölzer
   A. Katbashev, J. Koopman, C. Lavigne, S. Lehtola, F. März, M. Müller,
   F. Musil, H. Neugebauer, J. Pisarek, C. Plett, P. Pracht, F. Pultar,
   J. Seibert, P. Shushkov, S. Spicher, M. Stahn, M. Steiner, T. Strunk,
   J. Stückrath, T. Rose, and J. Unsleber
   
 * started run on 2022/07/30 at 00:51:51.808     

           -------------------------------------------------
          |                Calculation Setup                |
           -------------------------------------------------

          program call               : xtb Co_DHP_C6_3.xyz --gfn 1 --opt -T 48
          hostname                   : cx3-14-19.cx3.hpc.ic.ac.uk
          coordinate file            : Co_DHP_C6_3.xyz
          omp threads                :                     1

   ID    Z sym.   atoms
    1   27 Co     1, 59, 129
    2    6 C      2-6, 8-11, 13-17, 19-24, 26-29, 31-36, 60-64, 66-69, 71-75,
                  77-82, 84-87, 89-94, 117-128, 130-134, 136-139, 141-145,
                  147-152, 154-157, 159-164
    3    7 N      7, 12, 18, 25, 30, 37, 65, 70, 76, 83, 88, 95, 135, 140,
                  146, 153, 158, 165
    4    1 H      38-58, 96-116, 166-185
########################################################################
[WARNING] Please study the warnings concerning your input carefully
-1- prog_main_parseArguments: Unknown option '-T' provided
########################################################################

           -------------------------------------------------
          |                 G F N 1 - x T B                 |
           -------------------------------------------------

        Reference                      10.1021/acs.jctc.7b00118
      * Hamiltonian:
        H0-scaling (s, p, d)           1.850000    2.250000    2.000000
        zeta-weighting                 0.000000
      * Dispersion:
        s8                             2.400000
        a1                             0.630000
        a2                             5.000000
        s9                             0.000000
      * Repulsion:
        kExp                           1.500000
        rExp                           1.000000
      * Coulomb:
        alpha                          2.000000
        third order                    atomic
        anisotropic                    false
      * Halogen bond correction:
        rad-scale                      1.300000
        damping                        0.440000


          ...................................................
          :                      SETUP                      :
          :.................................................:
          :  # basis functions                 634          :
          :  # atomic orbitals                 631          :
          :  # shells                          373          :
          :  # electrons                       587          :
          :  # halogen bonds                     0          :
          :  max. iterations                   250          :
          :  Hamiltonian                  GFN1-xTB          :
          :  restarted?                      false          :
          :  GBSA solvation                  false          :
          :  PC potential                    false          :
          :  electronic temp.          300.0000000     K    :
          :  accuracy                    1.0000000          :
          :  -> integral cutoff          0.2500000E+02      :
          :  -> integral neglect         0.1000000E-07      :
          :  -> SCF convergence          0.1000000E-05 Eh   :
          :  -> wf. convergence          0.2000000E-04 e    :
          :  Broyden damping             0.4000000          :
          ...................................................

 iter      E             dE          RMSdq      gap      omega  full diag
   1   -318.6459164 -0.318646E+03  0.109E+01    0.24       0.0  T
   2   -268.5415422  0.501044E+02  0.122E+01    0.03       1.0  T
   3   -300.9199727 -0.323784E+02  0.716E+00    0.03       1.0  T
   4    527.1259431  0.828046E+03  0.152E+01    0.06       1.0  T
   5    -94.6704934 -0.621796E+03  0.904E+00    0.04       1.0  T
   6   -304.7638231 -0.210093E+03  0.468E+00    0.03       1.0  T
   7   -292.1448538  0.126190E+02  0.453E+00    0.05       1.0  T
   8   -302.5848729 -0.104400E+02  0.419E+00    0.14       1.0  T
   9   -314.4608755 -0.118760E+02  0.343E+00    0.05       1.0  T
  10   -316.5320651 -0.207119E+01  0.317E+00    0.22       1.0  T
  11   -316.7192877 -0.187223E+00  0.302E+00    0.24       1.0  T
  12   -316.0497259  0.669562E+00  0.291E+00    0.17       1.0  T
  13   -317.9317720 -0.188205E+01  0.220E+00    0.13       1.0  T
  14   -319.9788312 -0.204706E+01  0.173E+00    0.12       1.0  T
  15   -319.9319492  0.468820E-01  0.168E+00    0.02       1.0  T
  16   -319.6571075  0.274842E+00  0.175E+00    0.06       1.0  T
  17   -320.1831049 -0.525997E+00  0.146E+00    0.13       1.0  T
  18   -320.2912167 -0.108112E+00  0.105E+00    0.04       1.0  T
  19   -320.1034955  0.187721E+00  0.101E+00    0.08       1.0  T
  20   -320.4025238 -0.299028E+00  0.775E-01    0.12       1.0  T
  21   -320.5645208 -0.161997E+00  0.591E-01    0.04       1.0  T
  22   -320.4634783  0.101043E+00  0.711E-01    0.09       1.0  T
  23   -320.4664315 -0.295319E-02  0.706E-01    0.09       1.0  T
  24   -320.6400329 -0.173601E+00  0.401E-01    0.07       1.0  T
  25   -320.5328009  0.107232E+00  0.792E-01    0.05       1.0  T
  26   -320.4224441  0.110357E+00  0.100E+00    0.01       1.0  T
  27   -320.1805517  0.241892E+00  0.127E+00    0.07       1.0  T
  28   -319.8082024  0.372349E+00  0.148E+00    0.08       1.0  T
  29   -319.8483809 -0.401785E-01  0.142E+00    0.07       1.0  T
  30   -320.1374963 -0.289115E+00  0.113E+00    0.04       1.0  T
  31   -320.2545224 -0.117026E+00  0.997E-01    0.03       1.0  T
  32   -320.6546479 -0.400126E+00  0.425E-01    0.02       1.0  T
  33   -320.5012903  0.153358E+00  0.638E-01    0.03       1.0  T
  34   -320.6142063 -0.112916E+00  0.428E-01    0.03       1.0  T
  35   -320.5482790  0.659274E-01  0.619E-01    0.03       1.0  T
  36   -320.7021958 -0.153917E+00  0.438E-01    0.04       1.0  T
  37   -320.7538542 -0.516584E-01  0.254E-01    0.02       1.0  T
  38   -320.7684054 -0.145512E-01  0.167E-01    0.03       1.0  T
  39   -320.7660324  0.237306E-02  0.170E-01    0.03       1.0  T
  40   -320.7741753 -0.814299E-02  0.939E-02    0.03       1.0  T
  41   -320.7728354  0.133993E-02  0.106E-01    0.03       1.0  T
  42   -320.7747980 -0.196262E-02  0.734E-02    0.03       1.0  T
  43   -320.7766280 -0.182996E-02  0.346E-02    0.03       1.0  T
  44   -320.7770926 -0.464624E-03  0.159E-02    0.03       1.0  T
  45   -320.7771475 -0.548419E-04  0.113E-02    0.03       1.0  T
  46   -320.7770965  0.509136E-04  0.145E-02    0.03       1.0  T
  47   -320.7771855 -0.889539E-04  0.770E-03    0.03       1.0  T
  48   -320.7771921 -0.661624E-05  0.679E-03    0.03       1.1  T
  49   -320.7771997 -0.761785E-05  0.642E-03    0.03       1.1  T
  50   -320.7771900  0.974471E-05  0.880E-03    0.03       1.0  T
  51   -320.7772091 -0.190655E-04  0.527E-03    0.03       1.4  T
  52   -320.7772139 -0.488749E-05  0.413E-03    0.03       1.8  T
  53   -320.7772177 -0.379686E-05  0.264E-03    0.03       2.8  T
  54   -320.7772184 -0.702198E-06  0.183E-03    0.03       4.0  T
  55   -320.7772193 -0.858280E-06  0.126E-03    0.03       5.9  T
  56   -320.7772196 -0.300330E-06  0.115E-03    0.03       6.4  T
  57   -320.7772201 -0.501774E-06  0.834E-04    0.03       8.8  T
  58   -320.7772200  0.764983E-07  0.927E-04    0.03       7.9  T
  59   -320.7772202 -0.222726E-06  0.756E-04    0.03       9.7  T
  60   -320.7772203 -0.148690E-07  0.692E-04    0.03      10.6  T
  61   -320.7772203 -0.603535E-07  0.653E-04    0.03      11.3  T
  62   -320.7772202  0.119198E-06  0.751E-04    0.03       9.8  T
  63   -320.7772203 -0.100603E-06  0.630E-04    0.03      11.7  T
  64   -320.7772204 -0.102000E-06  0.485E-04    0.03      15.2  T
  65   -320.7772205 -0.103660E-06  0.255E-04    0.03      28.9  T
  66   -320.7772205 -0.201903E-07  0.170E-04    0.03      43.3  T
  67   -320.7772205 -0.859933E-08  0.136E-04    0.03      53.9  T

   *** convergence criteria satisfied after 67 iterations ***

         #    Occupation            Energy/Eh            Energy/eV
      -------------------------------------------------------------
         1        2.0000           -0.7785835             -21.1863
       ...           ...                  ...                  ...
       288        1.9968           -0.3694228             -10.0525
       289        1.9962           -0.3692551             -10.0479
       290        1.9915           -0.3684800             -10.0268
       291        1.7558           -0.3651433              -9.9361
       292        1.7065           -0.3649348              -9.9304
       293        1.4148           -0.3640580              -9.9065
       294        1.3302           -0.3638583              -9.9011 (HOMO)
       295        0.8166           -0.3627730              -9.8716 (LUMO)
       296        0.0001           -0.3529560              -9.6044
       297                         -0.3304429              -8.9918
       298                         -0.3267851              -8.8923
       299                         -0.3216742              -8.7532
       ...                                ...                  ...
       631                          1.4981235              40.7660
      -------------------------------------------------------------
                  HL-Gap            0.0010853 Eh            0.0295 eV
             Fermi-level           -0.3631545 Eh           -9.8819 eV

 SCC (total)                   0 d,  0 h,  0 min, 15.244 sec
 SCC setup                      ...        0 min,  0.014 sec (  0.093%)
 Dispersion                     ...        0 min,  0.010 sec (  0.069%)
 classical contributions        ...        0 min,  0.004 sec (  0.024%)
 integral evaluation            ...        0 min,  0.333 sec (  2.184%)
 iterations                     ...        0 min, 13.856 sec ( 90.889%)
 molecular gradient             ...        0 min,  0.967 sec (  6.344%)
 printout                       ...        0 min,  0.061 sec (  0.397%)

         :::::::::::::::::::::::::::::::::::::::::::::::::::::
         ::                     SUMMARY                     ::
         :::::::::::::::::::::::::::::::::::::::::::::::::::::
         :: total energy            -315.845928220080 Eh    ::
         :: gradient norm              0.605271853806 Eh/a0 ::
         :: HOMO-LUMO gap              0.029531637216 eV    ::
         ::.................................................::
         :: SCC energy              -320.777220537223 Eh    ::
         :: -> electrostatic           0.267730659917 Eh    ::
         :: repulsion energy           5.092636758043 Eh    ::
         :: dispersion energy         -0.161344440899 Eh    ::
         :: halogen bond corr.         0.000000000000 Eh    ::
         :: add. restraining           0.000000000000 Eh    ::
         :: total charge               0.000000000000 e     ::
         :::::::::::::::::::::::::::::::::::::::::::::::::::::

      ----------------------------------------------------------- 
     |                   =====================                   |
     |                        A N C O P T                        |
     |                   =====================                   |
     |               Approximate Normal Coordinate               |
     |                Rational Function Optimizer                |
      ----------------------------------------------------------- 

          ...................................................
          :                      SETUP                      :
          :.................................................:
          :   optimization level            normal          :
          :   max. optcycles                   555          :
          :   ANC micro-cycles                  20          :
          :   degrees of freedom               549          :
          :.................................................:
          :   RF solver                   davidson          :
          :   write xtbopt.log                true          :
          :   linear?                        false          :
          :   energy convergence         0.5000000E-05 Eh   :
          :   grad. convergence          0.1000000E-02 Eh/α :
          :   maximium RF displ.         1.0000000          :
          :   Hlow (freq-cutoff)         0.1000000E-01      :
          :   Hmax (freq-cutoff)         5.0000000          :
          :   S6 in model hess.         20.0000000          :
          ...................................................

generating ANC from model Hessian ...
Using Lindh-Hessian (1995)
 Shifting diagonal of input Hessian by    1.0017336856073833E-002
 Lowest  eigenvalues of input Hessian
    0.010000    0.010003    0.010006    0.010009    0.010011    0.010012
    0.000000    0.000000    0.000000    0.000000    0.000000    0.000000
    0.010032    0.010035    0.010057    0.010083    0.010176    0.010180
 Highest eigenvalues
    2.122323    2.164596    2.415742    2.461370    2.791872    2.804180


........................................................................
.............................. CYCLE    1 ..............................
........................................................................
   1   -320.7772205 -0.320777E+03  0.180E-04    0.03       0.0  T
   2   -320.7771581  0.624251E-04  0.111E-02    0.03       1.0  T
   3   -320.7772160 -0.578483E-04  0.294E-03    0.03       2.5  T
   4   -320.7772180 -0.204777E-05  0.216E-03    0.03       3.4  T
   5   -320.7772204 -0.243808E-05  0.491E-04    0.03      15.0  T
   6   -320.7772195  0.981453E-06  0.140E-03    0.03       5.3  T
   7   -320.7772205 -0.104845E-05  0.237E-04    0.03      31.0  T
   8   -320.7772204  0.895690E-07  0.489E-04    0.03      15.0  T
   9   -320.7772205 -0.935879E-07  0.249E-04    0.03      29.5  T
  10   -320.7772205 -0.264790E-07  0.105E-04    0.03      70.1  T
  11   -320.7772205 -0.425251E-08  0.535E-05    0.03     137.3  T
     SCC iter.                  ...        0 min,  2.268 sec
     gradient                   ...        0 min,  0.961 sec
 * total energy  :  -315.8459282 Eh     change       -0.5801269E-08 Eh
   gradient norm :     0.6052720 Eh/α   predicted     0.0000000E+00 (-100.00%)
   displ. norm   :     0.5694328 α      lambda       -0.2581937E+00
   maximum displ.:     0.1094676 α      in ANC's #188, #202, #102, ...

........................................................................
.............................. CYCLE    2 ..............................
........................................................................
   1   -320.8450393 -0.320845E+03  0.271E-01    0.04       0.0  T
   2   -319.8522126  0.992827E+00  0.139E+00    0.02       1.0  T
   3   -320.5215161 -0.669304E+00  0.880E-01    0.05       1.0  T
   4   -320.6871794 -0.165663E+00  0.615E-01    0.06       1.0  T
   5   -320.3540099  0.333170E+00  0.996E-01    0.06       1.0  T
   6   -320.7358610 -0.381851E+00  0.485E-01    0.11       1.0  T
   7   -320.6524802  0.833807E-01  0.656E-01    0.01       1.0  T
   8   -320.8383722 -0.185892E+00  0.244E-01    0.02       1.0  T
   9   -320.8352006  0.317157E-02  0.260E-01    0.02       1.0  T
  10   -320.8536654 -0.184647E-01  0.168E-01    0.03       1.0  T
  11   -320.8022673  0.513981E-01  0.362E-01    0.01       1.0  T
  12   -320.8561642 -0.538970E-01  0.159E-01    0.03       1.0  T
  13   -320.8618409 -0.567667E-02  0.109E-01    0.04       1.0  T
  14   -320.8686858 -0.684485E-02  0.157E-02    0.03       1.0  T
  15   -320.8675182  0.116759E-02  0.490E-02    0.03       1.0  T
  16   -320.8685198 -0.100164E-02  0.234E-02    0.03       1.0  T
  17   -320.8687483 -0.228459E-03  0.928E-03    0.03       1.0  T
  18   -320.8687884 -0.400979E-04  0.342E-03    0.03       2.1  T
  19   -320.8687929 -0.457152E-05  0.148E-03    0.03       5.0  T
  20   -320.8687931 -0.170155E-06  0.137E-03    0.03       5.4  T
  21   -320.8687940 -0.846954E-06  0.334E-04    0.03      22.0  T
  22   -320.8687938  0.171659E-06  0.685E-04    0.03      10.7  T
  23   -320.8687940 -0.221844E-06  0.126E-04    0.03      58.2  T
  24   -320.8687940  0.487790E-08  0.157E-04    0.03      46.8  T
     SCC iter.                  ...        0 min,  4.922 sec
     gradient                   ...        0 min,  0.953 sec
 * total energy  :  -316.0608338 Eh     change       -0.2149055E+00 Eh
   gradient norm :     0.3729912 Eh/α   predicted    -0.1710823E+00 ( -20.39%)
   displ. norm   :     0.6938538 α      lambda       -0.2153540E+00
   maximum displ.:     0.1401879 α      in ANC's #188, #102, #141, ...

........................................................................
.............................. CYCLE    3 ..............................
........................................................................
   1   -320.9797684 -0.320980E+03  0.336E-01    0.04       0.0  T
   2   -318.7021258  0.227764E+01  0.217E+00    0.16       1.0  T
   3   -320.6678154 -0.196569E+01  0.753E-01    0.34       1.0  T
   4   -320.7177951 -0.499797E-01  0.793E-01    0.03       1.0  T
   5   -320.2602078  0.457587E+00  0.126E+00    0.16       1.0  T
   6   -320.8463570 -0.586149E+00  0.574E-01    0.01       1.0  T
   7   -320.8239323  0.224247E-01  0.629E-01    0.02       1.0  T
   8   -320.8306036 -0.667131E-02  0.583E-01    0.03       1.0  T
   9   -321.0173669 -0.186763E+00  0.770E-02    0.04       1.0  T
  10   -320.9606237  0.567432E-01  0.345E-01    0.02       1.0  T
  11   -321.0151005 -0.544769E-01  0.122E-01    0.01       1.0  T
  12   -320.9832361  0.318644E-01  0.272E-01    0.03       1.0  T
  13   -321.0157376 -0.325015E-01  0.999E-02    0.03       1.0  T
  14   -321.0156530  0.846846E-04  0.117E-01    0.02       1.0  T
  15   -321.0204138 -0.476079E-02  0.379E-02    0.02       1.0  T
  16   -321.0201479  0.265838E-03  0.451E-02    0.03       1.0  T
  17   -321.0195548  0.593160E-03  0.549E-02    0.02       1.0  T
  18   -321.0206922 -0.113747E-02  0.296E-02    0.03       1.0  T
  19   -321.0211027 -0.410447E-03  0.613E-03    0.03       1.2  T
  20   -321.0211176 -0.149072E-04  0.351E-03    0.03       2.1  T
  21   -321.0211238 -0.625270E-05  0.109E-03    0.03       6.8  T
  22   -321.0211217  0.211422E-05  0.244E-03    0.03       3.0  T
  23   -321.0211245 -0.274256E-05  0.356E-04    0.03      20.7  T
  24   -321.0211245  0.949325E-08  0.382E-04    0.03      19.2  T
  25   -321.0211245 -0.559364E-07  0.133E-04    0.03      55.1  T
  26   -321.0211245 -0.565694E-08  0.576E-05    0.03     127.7  T
     SCC iter.                  ...        0 min,  5.259 sec
     gradient                   ...        0 min,  0.950 sec
 * total energy  :  -316.2199366 Eh     change       -0.1591029E+00 Eh
   gradient norm :     0.1799367 Eh/α   predicted    -0.1595163E+00 (   0.26%)
   displ. norm   :     0.7124640 α      lambda       -0.1031572E+00
   maximum displ.:     0.1998308 α      in ANC's #102, #188, #141, ...

........................................................................
.............................. CYCLE    4 ..............................
........................................................................
   1   -321.1379689 -0.321138E+03  0.270E-01    0.02       0.0  T
   2   -320.4102021  0.727767E+00  0.127E+00    0.17       1.0  T
   3   -319.7322115  0.677991E+00  0.173E+00    0.24       1.0  T
   4   -320.7451988 -0.101299E+01  0.931E-01    0.22       1.0  T
   5   -321.0910619 -0.345863E+00  0.406E-01    0.03       1.0  T
   6   -321.0498019  0.412600E-01  0.419E-01    0.04       1.0  T
   7   -321.0291346  0.206673E-01  0.506E-01    0.02       1.0  T
   8   -321.1212629 -0.921283E-01  0.280E-01    0.01       1.0  T
   9   -321.1459665 -0.247036E-01  0.191E-01    0.03       1.0  T
  10   -321.0666994  0.792671E-01  0.438E-01    0.01       1.0  T
  11   -321.1512038 -0.845044E-01  0.141E-01    0.03       1.0  T
  12   -321.1420873  0.911648E-02  0.198E-01    0.02       1.0  T
  13   -321.1573364 -0.152491E-01  0.816E-02    0.02       1.0  T
  14   -321.1589535 -0.161714E-02  0.596E-02    0.03       1.0  T
  15   -321.1603776 -0.142407E-02  0.202E-02    0.03       1.0  T
  16   -321.1605546 -0.177023E-03  0.633E-03    0.02       1.2  T
  17   -321.1605386  0.160306E-04  0.873E-03    0.03       1.0  T
  18   -321.1605700 -0.314422E-04  0.319E-03    0.03       2.3  T
  19   -321.1605737 -0.361830E-05  0.157E-03    0.03       4.7  T
  20   -321.1605727  0.967660E-06  0.215E-03    0.03       3.4  T
  21   -321.1605743 -0.158776E-05  0.114E-03    0.03       6.5  T
  22   -321.1605747 -0.404453E-06  0.770E-04    0.03       9.5  T
  23   -321.1605749 -0.216820E-06  0.336E-04    0.03      21.9  T
  24   -321.1605749 -0.471326E-07  0.943E-05    0.03      77.9  T
  25   -321.1605749 -0.294955E-08  0.480E-05    0.03     153.2  T
     SCC iter.                  ...        0 min,  4.981 sec
     gradient                   ...        0 min,  0.903 sec
 * total energy  :  -316.3012102 Eh     change       -0.8127355E-01 Eh
   gradient norm :     0.1394275 Eh/α   predicted    -0.7776023E-01 (  -4.32%)
   displ. norm   :     0.7175670 α      lambda       -0.6711590E-01
   maximum displ.:     0.2504827 α      in ANC's #102, #188, #141, ...

........................................................................
.............................. CYCLE    5 ..............................
........................................................................
   1   -321.2343386 -0.321234E+03  0.368E-01    0.01       0.0  T
   2   -320.5453885  0.688950E+00  0.119E+00    0.02       1.0  T
   3   -319.8185578  0.726831E+00  0.175E+00    0.25       1.0  T
   4   -320.9320128 -0.111345E+01  0.841E-01    0.10       1.0  T
   5   -321.2115761 -0.279563E+00  0.411E-01    0.03       1.0  T
   6   -321.0391505  0.172426E+00  0.700E-01    0.01       1.0  T
   7   -321.2430980 -0.203947E+00  0.267E-01    0.00       1.0  T
   8   -321.1248049  0.118293E+00  0.581E-01    0.06       1.0  T
   9   -321.1037350  0.210700E-01  0.562E-01    0.02       1.0  T
  10   -321.2354924 -0.131757E+00  0.305E-01    0.03       1.0  T
  11   -321.2118826  0.236098E-01  0.367E-01    0.00       1.0  T
  12   -321.2639944 -0.521118E-01  0.178E-01    0.00       1.0  T
  13   -321.2629524  0.104201E-02  0.173E-01    0.02       1.0  T
  14   -321.2779437 -0.149913E-01  0.335E-02    0.02       1.0  T
  15   -321.2780852 -0.141549E-03  0.281E-02    0.02       1.0  T
  16   -321.2781509 -0.657279E-04  0.261E-02    0.02       1.0  T
  17   -321.2784153 -0.264356E-03  0.108E-02    0.02       1.0  T
  18   -321.2784518 -0.364987E-04  0.542E-03    0.02       1.4  T
  19   -321.2784128  0.390335E-04  0.105E-02    0.02       1.0  T
  20   -321.2784615 -0.487650E-04  0.283E-03    0.02       2.6  T
  21   -321.2784638 -0.223597E-05  0.172E-03    0.02       4.3  T
  22   -321.2784651 -0.131138E-05  0.606E-04    0.02      12.1  T
  23   -321.2784646  0.476877E-06  0.115E-03    0.02       6.4  T
  24   -321.2784650 -0.407458E-06  0.713E-04    0.02      10.3  T
  25   -321.2784652 -0.233994E-06  0.210E-04    0.02      35.0  T
  26   -321.2784653 -0.191350E-07  0.842E-05    0.02      87.3  T
  27   -321.2784653 -0.323632E-08  0.105E-05    0.02     700.4  T
     SCC iter.                  ...        0 min,  4.430 sec
     gradient                   ...        0 min,  0.840 sec
 * total energy  :  -316.3566301 Eh     change       -0.5541987E-01 Eh
   gradient norm :     0.1208946 Eh/α   predicted    -0.5083708E-01 (  -8.27%)
   displ. norm   :     0.7325183 α      lambda       -0.5296288E-01
   maximum displ.:     0.2730969 α      in ANC's #102, #141, #100, ...

........................................................................
.............................. CYCLE    6 ..............................
........................................................................
   1   -321.3264096 -0.321326E+03  0.429E-01    0.01       0.0  T
   2   -320.2940774  0.103233E+01  0.146E+00    0.03       1.0  T
   3   -320.7138007 -0.419723E+00  0.117E+00    0.22       1.0  T
   4   -320.8179919 -0.104191E+00  0.114E+00    0.13       1.0  T
   5   -321.0208999 -0.202908E+00  0.821E-01    0.07       1.0  T
   6   -321.0103293  0.105705E-01  0.889E-01    0.13       1.0  T
   7   -321.3536749 -0.343346E+00  0.298E-01    0.00       1.0  T
   8   -321.1943451  0.159330E+00  0.594E-01    0.05       1.0  T
   9   -321.1728593  0.214858E-01  0.679E-01    0.04       1.0  T
  10   -321.3861251 -0.213266E+00  0.820E-02    0.01       1.0  T
  11   -321.3730717  0.130534E-01  0.179E-01    0.01       1.0  T
  12   -321.3427383  0.303334E-01  0.293E-01    0.02       1.0  T
  13   -321.3713726 -0.286343E-01  0.185E-01    0.01       1.0  T
  14   -321.3848424 -0.134698E-01  0.956E-02    0.01       1.0  T
  15   -321.3872824 -0.244004E-02  0.588E-02    0.02       1.0  T
  16   -321.3868055  0.476921E-03  0.649E-02    0.01       1.0  T
  17   -321.3886413 -0.183582E-02  0.201E-02    0.01       1.0  T
  18   -321.3888095 -0.168186E-03  0.895E-03    0.01       1.0  T
  19   -321.3888193 -0.979455E-05  0.800E-03    0.01       1.0  T
  20   -321.3888466 -0.272581E-04  0.238E-03    0.01       3.1  T
  21   -321.3888395  0.707138E-05  0.440E-03    0.01       1.7  T
  22   -321.3888490 -0.945527E-05  0.659E-04    0.01      11.2  T
  23   -321.3888484  0.560944E-06  0.124E-03    0.01       5.9  T
  24   -321.3888491 -0.655516E-06  0.441E-04    0.01      16.7  T
  25   -321.3888491 -0.555662E-07  0.274E-04    0.01      26.8  T
  26   -321.3888491 -0.325993E-07  0.999E-05    0.01      73.6  T
  27   -321.3888491 -0.378003E-08  0.514E-05    0.01     143.1  T
     SCC iter.                  ...        0 min,  4.434 sec
     gradient                   ...        0 min,  0.842 sec
 * total energy  :  -316.4021647 Eh     change       -0.4553469E-01 Eh
   gradient norm :     0.1125146 Eh/α   predicted    -0.4069093E-01 ( -10.64%)
   displ. norm   :     0.7708296 α      lambda       -0.5067315E-01
   maximum displ.:     0.2796948 α      in ANC's #102, #141, #100, ...

........................................................................
.............................. CYCLE    7 ..............................
........................................................................
   1   -321.4160808 -0.321416E+03  0.482E-01    0.03       0.0  T
   2   -318.5958850  0.282020E+01  0.216E+00    0.04       1.0  T
   3   -319.9593846 -0.136350E+01  0.184E+00    0.27       1.0  T
   4   -321.0305627 -0.107118E+01  0.106E+00    0.09       1.0  T
   5   -321.4284976 -0.397935E+00  0.443E-01    0.01       1.0  T
   6   -321.1783681  0.250130E+00  0.721E-01    0.05       1.0  T
   7   -321.3037551 -0.125387E+00  0.627E-01    0.04       1.0  T
   8   -321.1880834  0.115672E+00  0.839E-01    0.05       1.0  T
   9   -321.3879185 -0.199835E+00  0.453E-01    0.03       1.0  T
  10   -321.4790229 -0.911044E-01  0.210E-01    0.00       1.0  T
  11   -321.4360209  0.430020E-01  0.357E-01    0.02       1.0  T
  12   -321.3819271  0.540938E-01  0.489E-01    0.04       1.0  T
  13   -321.4712610 -0.893339E-01  0.246E-01    0.02       1.0  T
  14   -321.4995211 -0.282601E-01  0.615E-02    0.00       1.0  T
  15   -321.4981729  0.134825E-02  0.872E-02    0.00       1.0  T
  16   -321.5013064 -0.313355E-02  0.294E-02    0.01       1.0  T
  17   -321.5016167 -0.310313E-03  0.187E-02    0.01       1.0  T
  18   -321.5016529 -0.361658E-04  0.154E-02    0.01       1.0  T
  19   -321.5017469 -0.940309E-04  0.682E-03    0.01       1.1  T
  20   -321.5017642 -0.173239E-04  0.305E-03    0.01       2.4  T
  21   -321.5017672 -0.291749E-05  0.196E-03    0.01       3.8  T
  22   -321.5017681 -0.912813E-06  0.130E-03    0.01       5.6  T
  23   -321.5017671  0.997014E-06  0.195E-03    0.01       3.8  T
  24   -321.5017688 -0.170270E-05  0.545E-04    0.01      13.5  T
  25   -321.5017689 -0.149003E-06  0.517E-05    0.01     142.1  T
  26   -321.5017689  0.901008E-08  0.146E-04    0.01      50.2  T
     SCC iter.                  ...        0 min,  4.270 sec
     gradient                   ...        0 min,  0.841 sec
 * total energy  :  -316.4480037 Eh     change       -0.4583892E-01 Eh
   gradient norm :     0.1089163 Eh/α   predicted    -0.4039102E-01 ( -11.88%)
   displ. norm   :     0.7981000 α      lambda       -0.5406346E-01
   maximum displ.:     0.2517479 α      in ANC's #102, #141, #100, ...

........................................................................
.............................. CYCLE    8 ..............................
........................................................................
   1   -321.5101372 -0.321510E+03  0.482E-01    0.06       0.0  T
   2   -314.3361313  0.717401E+01  0.356E+00    0.01       1.0  T
   3   -320.8531335 -0.651700E+01  0.122E+00    0.03       1.0  T
   4   -321.0550436 -0.201910E+00  0.996E-01    0.04       1.0  T
   5   -321.3899500 -0.334906E+00  0.697E-01    0.01       1.0  T
   6   -321.4181047 -0.281547E-01  0.634E-01    0.06       1.0  T
   7   -321.5047574 -0.866527E-01  0.425E-01    0.07       1.0  T
   8   -321.3529692  0.151788E+00  0.740E-01    0.02       1.0  T
   9   -321.4248518 -0.718825E-01  0.618E-01    0.04       1.0  T
  10   -321.3114024  0.113449E+00  0.773E-01    0.08       1.0  T
  11   -321.5367081 -0.225306E+00  0.406E-01    0.04       1.0  T
  12   -321.5943528 -0.576446E-01  0.171E-01    0.02       1.0  T
  13   -321.5864974  0.785533E-02  0.221E-01    0.00       1.0  T
  14   -321.5465040  0.399934E-01  0.360E-01    0.02       1.0  T
  15   -321.6039622 -0.574582E-01  0.108E-01    0.01       1.0  T
  16   -321.5806365  0.233257E-01  0.235E-01    0.01       1.0  T
  17   -321.6083784 -0.277419E-01  0.433E-02    0.01       1.0  T
  18   -321.6073971  0.981355E-03  0.628E-02    0.01       1.0  T
  19   -321.6089338 -0.153670E-02  0.278E-02    0.01       1.0  T
  20   -321.6093167 -0.382948E-03  0.568E-03    0.01       1.3  T
  21   -321.6093279 -0.111603E-04  0.349E-03    0.01       2.1  T
  22   -321.6093212  0.666211E-05  0.507E-03    0.01       1.4  T
  23   -321.6093285 -0.725833E-05  0.325E-03    0.01       2.3  T
  24   -321.6093328 -0.429673E-05  0.130E-03    0.01       5.6  T
  25   -321.6093331 -0.333711E-06  0.100E-03    0.01       7.3  T
  26   -321.6093335 -0.424074E-06  0.321E-04    0.01      22.9  T
  27   -321.6093335 -0.363448E-07  0.147E-04    0.01      50.2  T
  28   -321.6093336 -0.320216E-08  0.111E-04    0.01      66.4  T
     SCC iter.                  ...        0 min,  4.563 sec
     gradient                   ...        0 min,  0.840 sec
 * total energy  :  -316.4901443 Eh     change       -0.4214059E-01 Eh
   gradient norm :     0.0963487 Eh/α   predicted    -0.4424996E-01 (   5.01%)
   displ. norm   :     0.6933650 α      lambda       -0.3282120E-01
   maximum displ.:     0.1906339 α      in ANC's #102, #54, #47, ...

........................................................................
.............................. CYCLE    9 ..............................
........................................................................
   1   -321.6023872 -0.321602E+03  0.325E-01    0.04       0.0  T
   2   -320.0035232  0.159886E+01  0.187E+00    0.18       1.0  T
   3   -320.0906739 -0.871508E-01  0.183E+00    0.28       1.0  T
   4   -321.0425209 -0.951847E+00  0.114E+00    0.01       1.0  T
   5   -321.5879526 -0.545432E+00  0.402E-01    0.00       1.0  T
   6   -321.4757760  0.112177E+00  0.575E-01    0.01       1.0  T
   7   -321.2236897  0.252086E+00  0.928E-01    0.17       1.0  T
   8   -321.5480923 -0.324403E+00  0.437E-01    0.02       1.0  T
   9   -321.3970105  0.151082E+00  0.693E-01    0.05       1.0  T
  10   -321.6380889 -0.241078E+00  0.117E-01    0.01       1.0  T
  11   -321.6237369  0.143520E-01  0.204E-01    0.03       1.0  T
  12   -321.6320105 -0.827351E-02  0.161E-01    0.03       1.0  T
  13   -321.6369225 -0.491200E-02  0.126E-01    0.00       1.0  T
  14   -321.6431590 -0.623658E-02  0.563E-02    0.01       1.0  T
  15   -321.6433406 -0.181568E-03  0.557E-02    0.01       1.0  T
  16   -321.6447027 -0.136209E-02  0.173E-02    0.01       1.0  T
  17   -321.6437806  0.922067E-03  0.464E-02    0.01       1.0  T
  18   -321.6448214 -0.104076E-02  0.580E-03    0.01       1.3  T
  19   -321.6448312 -0.979192E-05  0.388E-03    0.01       1.9  T
  20   -321.6448342 -0.298993E-05  0.300E-03    0.01       2.5  T
  21   -321.6448382 -0.404897E-05  0.870E-04    0.01       8.5  T
  22   -321.6448383 -0.111313E-06  0.762E-04    0.01       9.7  T
  23   -321.6448385 -0.225264E-06  0.314E-04    0.01      23.4  T
  24   -321.6448386 -0.311372E-07  0.210E-04    0.01      35.0  T
  25   -321.6448386 -0.164525E-07  0.112E-04    0.01      65.6  T
  26   -321.6448386 -0.617769E-08  0.247E-05    0.01     297.9  T
     SCC iter.                  ...        0 min,  4.232 sec
     gradient                   ...        0 min,  0.902 sec
 * total energy  :  -316.5160832 Eh     change       -0.2593889E-01 Eh
   gradient norm :     0.0713239 Eh/α   predicted    -0.2430012E-01 (  -6.32%)
   displ. norm   :     0.6861772 α      lambda       -0.2444470E-01
   maximum displ.:     0.1980917 α      in ANC's #51, #47, #54, ...

........................................................................
.............................. CYCLE   10 ..............................
........................................................................
   1   -321.6472709 -0.321647E+03  0.252E-01    0.03       0.0  T
   2   -320.1969782  0.145029E+01  0.176E+00    0.28       1.0  T
   3   -320.2323737 -0.353955E-01  0.174E+00    0.27       1.0  T
   4   -321.1579925 -0.925619E+00  0.109E+00    0.01       1.0  T
   5   -321.6639457 -0.505953E+00  0.121E-01    0.02       1.0  T
   6   -321.4474213  0.216524E+00  0.657E-01    0.00       1.0  T
   7   -321.4286682  0.187531E-01  0.723E-01    0.10       1.0  T
   8   -321.6400775 -0.211409E+00  0.250E-01    0.00       1.0  T
   9   -321.5078976  0.132180E+00  0.563E-01    0.04       1.0  T
  10   -321.6708631 -0.162965E+00  0.408E-02    0.01       1.0  T
  11   -321.6373789  0.334843E-01  0.265E-01    0.03       1.0  T
  12   -321.6690546 -0.316757E-01  0.735E-02    0.02       1.0  T
  13   -321.6691864 -0.131810E-03  0.710E-02    0.00       1.0  T
  14   -321.6689903  0.196113E-03  0.739E-02    0.00       1.0  T
  15   -321.6712785 -0.228819E-02  0.289E-02    0.01       1.0  T
  16   -321.6715022 -0.223756E-03  0.198E-02    0.01       1.0  T
  17   -321.6715492 -0.470119E-04  0.174E-02    0.01       1.0  T
  18   -321.6716922 -0.143012E-03  0.294E-03    0.01       2.5  T
  19   -321.6716950 -0.274209E-05  0.167E-03    0.01       4.4  T
  20   -321.6716927  0.232806E-05  0.274E-03    0.01       2.7  T
  21   -321.6716957 -0.301013E-05  0.120E-03    0.01       6.1  T
  22   -321.6716960 -0.338684E-06  0.876E-04    0.01       8.4  T
  23   -321.6716963 -0.266350E-06  0.468E-04    0.01      15.7  T
  24   -321.6716963 -0.533046E-07  0.344E-04    0.01      21.4  T
  25   -321.6716964 -0.428021E-07  0.185E-04    0.01      39.7  T
  26   -321.6716964 -0.803493E-08  0.134E-04    0.01      54.7  T
     SCC iter.                  ...        0 min,  5.123 sec
     gradient                   ...        0 min,  0.828 sec
 * total energy  :  -316.5354734 Eh     change       -0.1939019E-01 Eh
   gradient norm :     0.0606578 Eh/α   predicted    -0.1797713E-01 (  -7.29%)
   displ. norm   :     0.7229607 α      lambda       -0.1912554E-01
   maximum displ.:     0.2327372 α      in ANC's #47, #51, #26, ...

........................................................................
.............................. CYCLE   11 ..............................
........................................................................
   1   -321.6495109 -0.321650E+03  0.281E-01    0.03       0.0  T
   2   -320.9059118  0.743599E+00  0.131E+00    0.20       1.0  T
   3   -320.6698492  0.236063E+00  0.142E+00    0.25       1.0  T
   4   -321.1243669 -0.454518E+00  0.107E+00    0.02       1.0  T
   5   -321.5554114 -0.431045E+00  0.519E-01    0.04       1.0  T
   6   -321.3978558  0.157556E+00  0.744E-01    0.09       1.0  T
   7   -321.4003348 -0.247901E-02  0.758E-01    0.10       1.0  T
   8   -321.6408344 -0.240500E+00  0.298E-01    0.01       1.0  T
   9   -321.5919559  0.488785E-01  0.409E-01    0.03       1.0  T
  10   -321.6085242 -0.165683E-01  0.387E-01    0.00       1.0  T
  11   -321.6802525 -0.717283E-01  0.310E-02    0.01       1.0  T
  12   -321.6680996  0.121529E-01  0.161E-01    0.01       1.0  T
  13   -321.6746265 -0.652691E-02  0.115E-01    0.02       1.0  T
  14   -321.6785132 -0.388665E-02  0.689E-02    0.00       1.0  T
  15   -321.6808800 -0.236680E-02  0.711E-03    0.01       1.0  T
  16   -321.6808339  0.460809E-04  0.120E-02    0.01       1.0  T
  17   -321.6808484 -0.144992E-04  0.112E-02    0.01       1.0  T
  18   -321.6808860 -0.375749E-04  0.693E-03    0.01       1.1  T
  19   -321.6809067 -0.207342E-04  0.223E-03    0.01       3.3  T
  20   -321.6809086 -0.190162E-05  0.103E-03    0.01       7.1  T
  21   -321.6809088 -0.198635E-06  0.853E-04    0.01       8.6  T
  22   -321.6809091 -0.299852E-06  0.295E-04    0.01      24.9  T
  23   -321.6809091 -0.124809E-07  0.247E-04    0.01      29.8  T
  24   -321.6809091 -0.179224E-07  0.146E-04    0.01      50.3  T
  25   -321.6809091 -0.888747E-08  0.543E-05    0.01     135.4  T
     SCC iter.                  ...        0 min,  4.977 sec
     gradient                   ...        0 min,  0.827 sec
 * total energy  :  -316.5496387 Eh     change       -0.1416533E-01 Eh
   gradient norm :     0.0566279 Eh/α   predicted    -0.1456097E-01 (   2.79%)
   displ. norm   :     0.7149249 α      lambda       -0.1481003E-01
   maximum displ.:     0.2664455 α      in ANC's #51, #47, #26, ...

........................................................................
.............................. CYCLE   12 ..............................
........................................................................
   1   -321.6464102 -0.321646E+03  0.327E-01    0.03       0.0  T
   2   -320.9954498  0.650960E+00  0.126E+00    0.11       1.0  T
   3   -320.9528219  0.426279E-01  0.116E+00    0.11       1.0  T
   4   -321.1515788 -0.198757E+00  0.951E-01    0.02       1.0  T
   5   -321.5971604 -0.445582E+00  0.495E-01    0.02       1.0  T
   6   -321.5071118  0.900486E-01  0.579E-01    0.01       1.0  T
   7   -321.6326700 -0.125558E+00  0.344E-01    0.01       1.0  T
   8   -321.4902565  0.142413E+00  0.629E-01    0.02       1.0  T
   9   -321.5643363 -0.740797E-01  0.504E-01    0.04       1.0  T
  10   -321.6717767 -0.107440E+00  0.192E-01    0.02       1.0  T
  11   -321.6349326  0.368441E-01  0.336E-01    0.01       1.0  T
  12   -321.6789044 -0.439718E-01  0.144E-01    0.02       1.0  T
  13   -321.6812324 -0.232805E-02  0.131E-01    0.00       1.0  T
  14   -321.6883973 -0.716483E-02  0.450E-02    0.00       1.0  T
  15   -321.6890889 -0.691633E-03  0.235E-02    0.01       1.0  T
  16   -321.6891410 -0.521146E-04  0.212E-02    0.01       1.0  T
  17   -321.6892123 -0.713431E-04  0.165E-02    0.00       1.0  T
  18   -321.6893414 -0.129092E-03  0.377E-03    0.01       2.0  T
  19   -321.6893460 -0.455250E-05  0.245E-03    0.01       3.0  T
  20   -321.6893478 -0.183868E-05  0.175E-03    0.01       4.2  T
  21   -321.6893489 -0.106319E-05  0.834E-04    0.01       8.8  T
  22   -321.6893492 -0.314961E-06  0.113E-04    0.01      65.4  T
  23   -321.6893492 -0.529781E-09  0.106E-04    0.01      69.1  T
     SCC iter.                  ...        0 min,  4.604 sec
     gradient                   ...        0 min,  0.832 sec
 * total energy  :  -316.5599813 Eh     change       -0.1034258E-01 Eh
   gradient norm :     0.0511145 Eh/α   predicted    -0.1118986E-01 (   8.19%)
   displ. norm   :     0.6660225 α      lambda       -0.1038192E-01
   maximum displ.:     0.2389041 α      in ANC's #47, #51, #26, ...

........................................................................
.............................. CYCLE   13 ..............................
........................................................................
   1   -321.6923815 -0.321692E+03  0.142E-01    0.01       0.0  T
   2   -321.2597753  0.432606E+00  0.965E-01    0.09       1.0  T
   3   -321.1974938  0.622814E-01  0.950E-01    0.05       1.0  T
   4   -321.4988053 -0.301312E+00  0.633E-01    0.02       1.0  T
   5   -321.6890593 -0.190254E+00  0.125E-01    0.02       1.0  T
   6   -321.5620311  0.127028E+00  0.510E-01    0.00       1.0  T
   7   -321.6657328 -0.103702E+00  0.227E-01    0.01       1.0  T
   8   -321.6415423  0.241905E-01  0.357E-01    0.02       1.0  T
   9   -321.6824826 -0.409404E-01  0.190E-01    0.01       1.0  T
  10   -321.6970070 -0.145244E-01  0.801E-02    0.00       1.0  T
  11   -321.6974538 -0.446750E-03  0.742E-02    0.00       1.0  T
  12   -321.6993465 -0.189270E-02  0.400E-02    0.01       1.0  T
  13   -321.6999838 -0.637291E-03  0.189E-02    0.00       1.0  T
  14   -321.7001002 -0.116474E-03  0.103E-02    0.00       1.0  T
  15   -321.7000559  0.443516E-04  0.138E-02    0.00       1.0  T
  16   -321.7000587 -0.284247E-05  0.137E-02    0.00       1.0  T
  17   -321.7001281 -0.693769E-04  0.713E-03    0.00       1.0  T
  18   -321.7001538 -0.257152E-04  0.281E-04    0.00      26.1  T
  19   -321.7001537  0.111747E-06  0.569E-04    0.00      12.9  T
  20   -321.7001538 -0.854619E-07  0.394E-04    0.00      18.6  T
  21   -321.7001539 -0.665648E-07  0.115E-04    0.00      64.2  T
  22   -321.7001539 -0.538978E-08  0.571E-05    0.00     128.7  T
     SCC iter.                  ...        0 min,  4.382 sec
     gradient                   ...        0 min,  0.820 sec
 * total energy  :  -316.5680603 Eh     change       -0.8079075E-02 Eh
   gradient norm :     0.0355493 Eh/α   predicted    -0.7493612E-02 (  -7.25%)
   displ. norm   :     0.7333820 α      lambda       -0.9500276E-02
   maximum displ.:     0.2474926 α      in ANC's #51, #47, #26, ...

........................................................................
.............................. CYCLE   14 ..............................
........................................................................
   1   -321.6351029 -0.321635E+03  0.398E-01    0.04       0.0  T
   2   -320.3481694  0.128693E+01  0.168E+00    0.01       1.0  T
   3   -320.8859367 -0.537767E+00  0.126E+00    0.13       1.0  T
   4   -321.1439549 -0.258018E+00  0.976E-01    0.01       1.0  T
   5   -321.6155636 -0.471609E+00  0.512E-01    0.02       1.0  T
   6   -321.4460370  0.169527E+00  0.730E-01    0.01       1.0  T
   7   -321.6867763 -0.240739E+00  0.149E-01    0.00       1.0  T
   8   -321.6370387  0.497375E-01  0.356E-01    0.01       1.0  T
   9   -321.5581071  0.789316E-01  0.573E-01    0.04       1.0  T
  10   -321.6496352 -0.915281E-01  0.330E-01    0.02       1.0  T
  11   -321.6740861 -0.244509E-01  0.239E-01    0.02       1.0  T
  12   -321.6928467 -0.187605E-01  0.137E-01    0.00       1.0  T
  13   -321.7021183 -0.927159E-02  0.187E-02    0.00       1.0  T
  14   -321.7011412  0.977063E-03  0.490E-02    0.00       1.0  T
  15   -321.7011870 -0.457860E-04  0.489E-02    0.00       1.0  T
  16   -321.7019665 -0.779529E-03  0.270E-02    0.00       1.0  T
  17   -321.7019947 -0.281980E-04  0.265E-02    0.00       1.0  T
  18   -321.7022475 -0.252757E-03  0.125E-02    0.00       1.0  T
  19   -321.7023119 -0.643988E-04  0.498E-03    0.00       1.5  T
  20   -321.7023122 -0.336834E-06  0.495E-03    0.00       1.5  T
  21   -321.7023229 -0.107026E-04  0.155E-03    0.00       4.7  T
  22   -321.7023241 -0.116832E-05  0.101E-04    0.00      72.4  T
  23   -321.7023241 -0.231495E-08  0.834E-05    0.00      88.1  T
  24   -321.7023241  0.258348E-08  0.108E-04    0.00      68.0  T
     SCC iter.                  ...        0 min,  4.820 sec
     gradient                   ...        0 min,  0.830 sec
 * total energy  :  -316.5750559 Eh     change       -0.6995536E-02 Eh
   gradient norm :     0.0467281 Eh/α   predicted    -0.7304992E-02 (   4.42%)
   displ. norm   :     0.6932129 α      lambda       -0.8854738E-02
   maximum displ.:     0.2307230 α      in ANC's #51, #26, #47, ...

........................................................................
.............................. CYCLE   15 ..............................
........................................................................
   1   -321.7106168 -0.321711E+03  0.386E-02    0.00       0.0  T
   2   -321.5311537  0.179463E+00  0.616E-01    0.02       1.0  T
   3   -321.5965988 -0.654451E-01  0.477E-01    0.00       1.0  T
   4   -321.6967485 -0.100150E+00  0.165E-01    0.01       1.0  T
   5   -321.6910755  0.567304E-02  0.209E-01    0.02       1.0  T
   6   -321.6684577  0.226177E-01  0.282E-01    0.00       1.0  T
   7   -321.6993013 -0.308436E-01  0.153E-01    0.01       1.0  T
   8   -321.7074987 -0.819740E-02  0.732E-02    0.01       1.0  T
   9   -321.7078918 -0.393089E-03  0.832E-02    0.00       1.0  T
  10   -321.7097601 -0.186832E-02  0.537E-02    0.00       1.0  T
  11   -321.7100899 -0.329761E-03  0.466E-02    0.00       1.0  T
  12   -321.7109172 -0.827310E-03  0.226E-02    0.00       1.0  T
  13   -321.7111659 -0.248762E-03  0.448E-03    0.00       1.6  T
  14   -321.7111719 -0.597919E-05  0.238E-03    0.00       3.1  T
  15   -321.7111743 -0.241620E-05  0.106E-03    0.00       6.9  T
  16   -321.7111738  0.490776E-06  0.140E-03    0.00       5.2  T
  17   -321.7111748 -0.100699E-05  0.190E-04    0.00      38.7  T
  18   -321.7111749 -0.132978E-07  0.834E-05    0.00      88.1  T
  19   -321.7111749 -0.432408E-09  0.693E-05    0.00     106.1  T
     SCC iter.                  ...        0 min,  3.854 sec
     gradient                   ...        0 min,  0.825 sec
 * total energy  :  -316.5810648 Eh     change       -0.6008908E-02 Eh
   gradient norm :     0.0358439 Eh/α   predicted    -0.6554928E-02 (   9.09%)
   displ. norm   :     0.7072143 α      lambda       -0.6866036E-02
   maximum displ.:     0.2391231 α      in ANC's #26, #47, #42, ...

........................................................................
.............................. CYCLE   16 ..............................
........................................................................
   1   -321.6760223 -0.321676E+03  0.291E-01    0.02       0.0  T
   2   -320.9743944  0.701628E+00  0.129E+00    0.17       1.0  T
   3   -320.8347741  0.139620E+00  0.130E+00    0.20       1.0  T
   4   -321.1116920 -0.276918E+00  0.107E+00    0.02       1.0  T
   5   -321.5467796 -0.435088E+00  0.604E-01    0.03       1.0  T
   6   -321.5511186 -0.433900E-02  0.571E-01    0.06       1.0  T
   7   -321.5117578  0.393607E-01  0.621E-01    0.06       1.0  T
   8   -321.6079674 -0.962096E-01  0.459E-01    0.00       1.0  T
   9   -321.4976405  0.110327E+00  0.649E-01    0.08       1.0  T
  10   -321.6913654 -0.193725E+00  0.204E-01    0.00       1.0  T
  11   -321.6858512  0.551416E-02  0.227E-01    0.00       1.0  T
  12   -321.7087537 -0.229025E-01  0.731E-02    0.01       1.0  T
  13   -321.7078572  0.896588E-03  0.843E-02    0.00       1.0  T
  14   -321.7108461 -0.298899E-02  0.284E-02    0.00       1.0  T
  15   -321.7109229 -0.767412E-04  0.253E-02    0.00       1.0  T
  16   -321.7111248 -0.201957E-03  0.147E-02    0.00       1.0  T
  17   -321.7111567 -0.318628E-04  0.119E-02    0.00       1.0  T
  18   -321.7111631 -0.642758E-05  0.115E-02    0.00       1.0  T
  19   -321.7112258 -0.626749E-04  0.242E-03    0.00       3.0  T
  20   -321.7112263 -0.454192E-06  0.214E-03    0.00       3.4  T
  21   -321.7112284 -0.213550E-05  0.373E-04    0.00      19.7  T
  22   -321.7112284  0.324461E-07  0.465E-04    0.00      15.8  T
  23   -321.7112284 -0.636986E-07  0.287E-04    0.00      25.6  T
  24   -321.7112285 -0.372648E-07  0.570E-05    0.00     129.0  T
  25   -321.7112285  0.350286E-08  0.102E-04    0.00      71.9  T
     SCC iter.                  ...        0 min,  5.019 sec
     gradient                   ...        0 min,  0.834 sec
 * total energy  :  -316.5857373 Eh     change       -0.4672522E-02 Eh
   gradient norm :     0.0462995 Eh/α   predicted    -0.5150054E-02 (  10.22%)
   displ. norm   :     0.6547726 α      lambda       -0.6187442E-02
   maximum displ.:     0.2067187 α      in ANC's #26, #42, #19, ...

........................................................................
.............................. CYCLE   17 ..............................
........................................................................
   1   -321.7055074 -0.321706E+03  0.898E-02    0.00       0.0  T
   2   -321.3153395  0.390168E+00  0.917E-01    0.07       1.0  T
   3   -321.2878662  0.274732E-01  0.896E-01    0.05       1.0  T
   4   -321.4987871 -0.210921E+00  0.640E-01    0.03       1.0  T
   5   -321.7086503 -0.209863E+00  0.305E-02    0.00       1.0  T
   6   -321.6539745  0.546758E-01  0.308E-01    0.01       1.0  T
   7   -321.6088959  0.450786E-01  0.458E-01    0.04       1.0  T
   8   -321.7024165 -0.935205E-01  0.114E-01    0.00       1.0  T
   9   -321.6990885  0.332797E-02  0.145E-01    0.01       1.0  T
  10   -321.7087208 -0.963232E-02  0.219E-02    0.00       1.0  T
  11   -321.7072083  0.151252E-02  0.618E-02    0.01       1.0  T
  12   -321.7089265 -0.171819E-02  0.200E-02    0.00       1.0  T
  13   -321.7080498  0.876685E-03  0.466E-02    0.00       1.0  T
  14   -321.7091294 -0.107954E-02  0.444E-03    0.00       1.7  T
  15   -321.7089829  0.146420E-03  0.178E-02    0.00       1.0  T
  16   -321.7091200 -0.137095E-03  0.637E-03    0.00       1.2  T
  17   -321.7091398 -0.198107E-04  0.997E-04    0.00       7.4  T
  18   -321.7091402 -0.333835E-06  0.532E-04    0.00      13.8  T
  19   -321.7091397  0.481983E-06  0.114E-03    0.00       6.5  T
  20   -321.7091403 -0.566645E-06  0.336E-04    0.00      21.9  T
  21   -321.7091403 -0.524248E-07  0.764E-05    0.00      96.2  T
  22   -321.7091403 -0.275020E-08  0.781E-06    0.00     941.7  T
     SCC iter.                  ...        0 min,  4.471 sec
     gradient                   ...        0 min,  0.824 sec
 * total energy  :  -316.5897802 Eh     change       -0.4042909E-02 Eh
   gradient norm :     0.0364444 Eh/α   predicted    -0.4420104E-02 (   9.33%)
   displ. norm   :     0.6400576 α      lambda       -0.5439184E-02
   maximum displ.:     0.2236217 α      in ANC's #42, #14, #26, ...

........................................................................
.............................. CYCLE   18 ..............................
........................................................................
   1   -321.6988141 -0.321699E+03  0.684E-02    0.00       0.0  T
   2   -320.5656961  0.113312E+01  0.155E+00    0.21       1.0  T
   3   -321.4646221 -0.898926E+00  0.688E-01    0.06       1.0  T
   4   -321.4699313 -0.530922E-02  0.670E-01    0.08       1.0  T
   5   -321.6779226 -0.207991E+00  0.213E-01    0.01       1.0  T
   6   -321.4515595  0.226363E+00  0.689E-01    0.06       1.0  T
   7   -321.6627198 -0.211160E+00  0.276E-01    0.01       1.0  T
   8   -321.6812025 -0.184827E-01  0.184E-01    0.02       1.0  T
   9   -321.6977227 -0.165202E-01  0.673E-02    0.00       1.0  T
  10   -321.6983009 -0.578162E-03  0.626E-02    0.00       1.0  T
  11   -321.7002002 -0.189931E-02  0.118E-02    0.00       1.0  T
  12   -321.6985060  0.169425E-02  0.605E-02    0.00       1.0  T
  13   -321.7001981 -0.169218E-02  0.120E-02    0.00       1.0  T
  14   -321.7002036 -0.543080E-05  0.110E-02    0.00       1.0  T
  15   -321.7002357 -0.320970E-04  0.742E-03    0.00       1.0  T
  16   -321.7002363 -0.625968E-06  0.762E-03    0.00       1.0  T
  17   -321.7002583 -0.220213E-04  0.358E-03    0.00       2.1  T
  18   -321.7002619 -0.361495E-05  0.232E-03    0.00       3.2  T
  19   -321.7002626 -0.645033E-06  0.203E-03    0.00       3.6  T
  20   -321.7002646 -0.203122E-05  0.131E-04    0.00      56.1  T
  21   -321.7002646 -0.245853E-08  0.109E-04    0.00      67.6  T
  22   -321.7002646 -0.448256E-08  0.499E-05    0.00     147.5  T
     SCC iter.                  ...        0 min,  4.427 sec
     gradient                   ...        0 min,  0.824 sec
 * total energy  :  -316.5925290 Eh     change       -0.2748826E-02 Eh
   gradient norm :     0.0404526 Eh/α   predicted    -0.3833751E-02 (  39.47%)
   displ. norm   :     0.5419825 α      lambda       -0.4999332E-02
   maximum displ.:     0.1922201 α      in ANC's #14, #26, #42, ...

........................................................................
.............................. CYCLE   19 ..............................
........................................................................
   1   -321.7075029 -0.321708E+03  0.517E-02    0.00       0.0  T
   2   -320.6884162  0.101909E+01  0.145E+00    0.18       1.0  T
   3   -321.6768827 -0.988466E+00  0.256E-01    0.03       1.0  T
   4   -321.6749969  0.188576E-02  0.258E-01    0.03       1.0  T
   5   -321.6815089 -0.651200E-02  0.250E-01    0.00       1.0  T
   6   -321.6938763 -0.123673E-01  0.168E-01    0.00       1.0  T
   7   -321.6859761  0.790020E-02  0.208E-01    0.01       1.0  T
   8   -321.7062700 -0.202939E-01  0.687E-02    0.00       1.0  T
   9   -321.7044618  0.180821E-02  0.895E-02    0.00       1.0  T
  10   -321.7082731 -0.381125E-02  0.252E-02    0.00       1.0  T
  11   -321.7085487 -0.275646E-03  0.111E-02    0.00       1.0  T
  12   -321.7085253  0.234360E-04  0.144E-02    0.00       1.0  T
  13   -321.7085337 -0.843658E-05  0.133E-02    0.00       1.0  T
  14   -321.7085864 -0.527438E-04  0.849E-03    0.00       1.0  T
  15   -321.7086052 -0.187296E-04  0.558E-03    0.00       1.3  T
  16   -321.7086185 -0.132891E-04  0.205E-03    0.00       3.6  T
  17   -321.7086201 -0.159528E-05  0.109E-03    0.00       6.8  T
  18   -321.7086190  0.101114E-05  0.180E-03    0.00       4.1  T
  19   -321.7086202 -0.112663E-05  0.978E-04    0.00       7.5  T
  20   -321.7086206 -0.412111E-06  0.353E-04    0.00      20.8  T
  21   -321.7086206 -0.591078E-07  0.741E-05    0.00      99.3  T
  22   -321.7086206 -0.256739E-08  0.155E-05    0.00     474.5  T
     SCC iter.                  ...        0 min,  4.460 sec
     gradient                   ...        0 min,  0.825 sec
 * total energy  :  -316.5952191 Eh     change       -0.2690076E-02 Eh
   gradient norm :     0.0369907 Eh/α   predicted    -0.3233930E-02 (  20.22%)
   displ. norm   :     0.5324378 α      lambda       -0.3988796E-02
   maximum displ.:     0.1908033 α      in ANC's #14, #19, #26, ...

........................................................................
.............................. CYCLE   20 ..............................
........................................................................
   1   -321.7023538 -0.321702E+03  0.106E-01    0.01       0.0  T
   2   -321.3261397  0.376214E+00  0.912E-01    0.04       1.0  T
   3   -321.3976643 -0.715246E-01  0.808E-01    0.01       1.0  T
   4   -321.5181462 -0.120482E+00  0.608E-01    0.03       1.0  T
   5   -321.6962189 -0.178073E+00  0.130E-01    0.01       1.0  T
   6   -321.5785062  0.117713E+00  0.504E-01    0.02       1.0  T
   7   -321.6443979 -0.658917E-01  0.360E-01    0.02       1.0  T
   8   -321.6848574 -0.404595E-01  0.205E-01    0.01       1.0  T
   9   -321.7066043 -0.217469E-01  0.255E-02    0.00       1.0  T
  10   -321.7064857  0.118557E-03  0.289E-02    0.00       1.0  T
  11   -321.7068371 -0.351375E-03  0.114E-02    0.00       1.0  T
  12   -321.7068704 -0.333001E-04  0.818E-03    0.00       1.0  T
  13   -321.7069015 -0.311359E-04  0.224E-03    0.00       3.3  T
  14   -321.7068933  0.821727E-05  0.435E-03    0.00       1.7  T
  15   -321.7068974 -0.407255E-05  0.355E-03    0.00       2.1  T
  16   -321.7068981 -0.719263E-06  0.344E-03    0.00       2.1  T
  17   -321.7069027 -0.459924E-05  0.146E-03    0.00       5.1  T
  18   -321.7069034 -0.736954E-06  0.829E-04    0.00       8.9  T
  19   -321.7069037 -0.313141E-06  0.284E-04    0.00      25.9  T
  20   -321.7069038 -0.335612E-07  0.655E-05    0.00     112.2  T
  21   -321.7069038  0.504514E-08  0.121E-04    0.00      61.0  T
     SCC iter.                  ...        0 min,  4.271 sec
     gradient                   ...        0 min,  0.821 sec
 * total energy  :  -316.5975405 Eh     change       -0.2321392E-02 Eh
   gradient norm :     0.0319576 Eh/α   predicted    -0.2559780E-02 (  10.27%)
   displ. norm   :     0.5850068 α      lambda       -0.3220381E-02
   maximum displ.:     0.2315148 α      in ANC's #14, #26, #19, ...
 * RMSD in coord.:     0.6952031 α      energy gain  -0.7516123E+00 Eh

generating ANC from model Hessian ...
Using Lindh-Hessian (1995)
 Shifting diagonal of input Hessian by    1.0016001718455091E-002
 Lowest  eigenvalues of input Hessian
    0.010000    0.010003    0.010004    0.010007    0.010008    0.010009
    0.000000    0.000000    0.000000    0.000000    0.000000    0.000000
    0.010038    0.010041    0.010054    0.010081    0.010178    0.010185
 Highest eigenvalues
    2.233668    2.252116    2.667264    2.685416    2.994552    3.020863


........................................................................
.............................. CYCLE   21 ..............................
........................................................................
   1   -321.7006235 -0.321701E+03  0.271E-02    0.01       0.0  T
   2   -321.4233673  0.277256E+00  0.772E-01    0.11       1.0  T
   3   -321.6005501 -0.177183E+00  0.447E-01    0.00       1.0  T
   4   -321.6835540 -0.830039E-01  0.190E-01    0.00       1.0  T
   5   -321.6673994  0.161546E-01  0.251E-01    0.02       1.0  T
   6   -321.6668274  0.572031E-03  0.252E-01    0.02       1.0  T
   7   -321.6983004 -0.314730E-01  0.705E-02    0.00       1.0  T
   8   -321.6999788 -0.167843E-02  0.412E-02    0.00       1.0  T
   9   -321.7000123 -0.334573E-04  0.379E-02    0.00       1.0  T
  10   -321.7006607 -0.648417E-03  0.155E-02    0.01       1.0  T
  11   -321.7007670 -0.106255E-03  0.717E-03    0.01       1.0  T
  12   -321.7007316  0.353276E-04  0.115E-02    0.01       1.0  T
  13   -321.7007728 -0.411077E-04  0.701E-03    0.01       1.0  T
  14   -321.7007969 -0.241827E-04  0.510E-04    0.01      14.4  T
  15   -321.7007970 -0.773695E-07  0.248E-04    0.01      29.6  T
  16   -321.7007970  0.412001E-08  0.280E-04    0.01      26.3  T
  17   -321.7007969  0.872869E-07  0.506E-04    0.01      14.5  T
  18   -321.7007970 -0.121842E-06  0.399E-05    0.01     184.3  T
  19   -321.7007970 -0.187867E-09  0.288E-05    0.01     255.0  T
     SCC iter.                  ...        0 min,  3.877 sec
     gradient                   ...        0 min,  0.819 sec
 * total energy  :  -316.5996673 Eh     change       -0.2126836E-02 Eh
   gradient norm :     0.0281689 Eh/α   predicted     0.0000000E+00 (-100.00%)
   displ. norm   :     0.2882986 α      lambda       -0.2111705E-02
   maximum displ.:     0.1233226 α      in ANC's #24, #32, #11, ...

........................................................................
.............................. CYCLE   22 ..............................
........................................................................
   1   -321.7005802 -0.321701E+03  0.107E-02    0.01       0.0  T
   2   -321.5897844  0.110796E+00  0.480E-01    0.01       1.0  T
   3   -321.6980449 -0.108260E+00  0.731E-02    0.00       1.0  T
   4   -321.6921154  0.592947E-02  0.134E-01    0.01       1.0  T
   5   -321.6993130 -0.719754E-02  0.544E-02    0.01       1.0  T
   6   -321.6985653  0.747698E-03  0.609E-02    0.00       1.0  T
   7   -321.6992862 -0.720955E-03  0.487E-02    0.01       1.0  T
   8   -321.6999439 -0.657691E-03  0.346E-02    0.01       1.0  T
   9   -321.7002018 -0.257846E-03  0.286E-02    0.00       1.0  T
  10   -321.7006176 -0.415850E-03  0.338E-03    0.01       2.2  T
  11   -321.7006213 -0.366753E-05  0.168E-03    0.01       4.4  T
  12   -321.7006206  0.693686E-06  0.232E-03    0.01       3.2  T
  13   -321.7006230 -0.241875E-05  0.839E-04    0.01       8.8  T
  14   -321.7006233 -0.346362E-06  0.700E-05    0.01     105.0  T
  15   -321.7006233  0.235320E-08  0.942E-05    0.01      78.1  T
     SCC iter.                  ...        0 min,  3.055 sec
     gradient                   ...        0 min,  0.826 sec
 * total energy  :  -316.6010626 Eh     change       -0.1395281E-02 Eh
   gradient norm :     0.0131114 Eh/α   predicted    -0.1144088E-02 ( -18.00%)
   displ. norm   :     0.5161804 α      lambda       -0.2597776E-02
   maximum displ.:     0.2413120 α      in ANC's #24, #11, #16, ...

........................................................................
.............................. CYCLE   23 ..............................
........................................................................
   1   -321.6984171 -0.321698E+03  0.271E-02    0.01       0.0  T
   2   -321.3656708  0.332746E+00  0.841E-01    0.08       1.0  T
   3   -321.6695070 -0.303836E+00  0.251E-01    0.00       1.0  T
   4   -321.6681658  0.134126E-02  0.248E-01    0.00       1.0  T
   5   -321.6962052 -0.280394E-01  0.743E-02    0.00       1.0  T
   6   -321.6953486  0.856563E-03  0.765E-02    0.00       1.0  T
   7   -321.6965548 -0.120619E-02  0.615E-02    0.01       1.0  T
   8   -321.6984412 -0.188639E-02  0.213E-02    0.01       1.0  T
   9   -321.6968418  0.159939E-02  0.601E-02    0.00       1.0  T
  10   -321.6986886 -0.184683E-02  0.273E-03    0.01       2.7  T
  11   -321.6986893 -0.637896E-06  0.276E-03    0.01       2.7  T
  12   -321.6986863  0.298413E-05  0.387E-03    0.01       1.9  T
  13   -321.6986913 -0.497955E-05  0.221E-03    0.01       3.3  T
  14   -321.6986928 -0.157679E-05  0.126E-03    0.01       5.8  T
  15   -321.6986936 -0.738477E-06  0.259E-04    0.01      28.4  T
  16   -321.6986936  0.735821E-08  0.292E-04    0.01      25.2  T
  17   -321.6986936 -0.210490E-07  0.206E-04    0.01      35.7  T
  18   -321.6986936 -0.157228E-07  0.823E-05    0.01      89.3  T
  19   -321.6986936 -0.219558E-08  0.463E-05    0.01     158.8  T
     SCC iter.                  ...        0 min,  3.836 sec
     gradient                   ...        0 min,  0.826 sec
 * total energy  :  -316.6024001 Eh     change       -0.1337472E-02 Eh
   gradient norm :     0.0226473 Eh/α   predicted    -0.1645003E-02 (  22.99%)
   displ. norm   :     0.4666675 α      lambda       -0.1797149E-02
   maximum displ.:     0.1729813 α      in ANC's #24, #11, #32, ...

........................................................................
.............................. CYCLE   24 ..............................
........................................................................
   1   -321.6985276 -0.321699E+03  0.323E-02    0.00       0.0  T
   2   -321.0561959  0.642332E+00  0.115E+00    0.17       1.0  T
   3   -321.6898154 -0.633620E+00  0.148E-01    0.00       1.0  T
   4   -321.6385254  0.512900E-01  0.350E-01    0.01       1.0  T
   5   -321.6979484 -0.594230E-01  0.461E-02    0.01       1.0  T
   6   -321.6822984  0.156499E-01  0.176E-01    0.01       1.0  T
   7   -321.6979125 -0.156141E-01  0.441E-02    0.00       1.0  T
   8   -321.6971589  0.753603E-03  0.590E-02    0.01       1.0  T
   9   -321.6989554 -0.179650E-02  0.120E-02    0.01       1.0  T
  10   -321.6990191 -0.637088E-04  0.326E-03    0.01       2.3  T
  11   -321.6989931  0.260004E-04  0.797E-03    0.01       1.0  T
  12   -321.6990248 -0.317297E-04  0.132E-03    0.01       5.6  T
  13   -321.6990226  0.228297E-05  0.277E-03    0.01       2.7  T
  14   -321.6990256 -0.301249E-05  0.857E-04    0.01       8.6  T
  15   -321.6990256 -0.108179E-08  0.863E-04    0.01       8.5  T
  16   -321.6990259 -0.290128E-06  0.401E-04    0.01      18.3  T
  17   -321.6990259 -0.546943E-07  0.236E-04    0.01      31.2  T
  18   -321.6990259 -0.247907E-07  0.843E-05    0.01      87.3  T
  19   -321.6990259 -0.143461E-08  0.655E-05    0.01     112.2  T
     SCC iter.                  ...        0 min,  3.865 sec
     gradient                   ...        0 min,  0.820 sec
 * total energy  :  -316.6033423 Eh     change       -0.9422523E-03 Eh
   gradient norm :     0.0246662 Eh/α   predicted    -0.1094272E-02 (  16.13%)
   displ. norm   :     0.5217108 α      lambda       -0.2423533E-02
   maximum displ.:     0.2348153 α      in ANC's #24, #11, #32, ...

........................................................................
.............................. CYCLE   25 ..............................
........................................................................
   1   -321.6984800 -0.321698E+03  0.468E-02    0.00       0.0  T
   2   -320.6667613  0.103172E+01  0.147E+00    0.21       1.0  T
   3   -321.6787048 -0.101194E+01  0.211E-01    0.01       1.0  T
   4   -321.6305600  0.481447E-01  0.377E-01    0.00       1.0  T
   5   -321.6853056 -0.547456E-01  0.167E-01    0.02       1.0  T
   6   -321.6153252  0.699804E-01  0.400E-01    0.01       1.0  T
   7   -321.6933999 -0.780746E-01  0.105E-01    0.00       1.0  T
   8   -321.6884049  0.499493E-02  0.147E-01    0.02       1.0  T
   9   -321.6987986 -0.103937E-01  0.392E-02    0.01       1.0  T
  10   -321.6995773 -0.778649E-03  0.838E-03    0.01       1.0  T
  11   -321.6995709  0.638184E-05  0.955E-03    0.01       1.0  T
  12   -321.6995750 -0.407678E-05  0.950E-03    0.01       1.0  T
  13   -321.6996144 -0.394873E-04  0.365E-03    0.01       2.0  T
  14   -321.6996217 -0.725257E-05  0.112E-03    0.01       6.5  T
  15   -321.6996220 -0.311556E-06  0.890E-04    0.01       8.3  T
  16   -321.6996222 -0.208630E-06  0.668E-04    0.01      11.0  T
  17   -321.6996224 -0.187006E-06  0.345E-04    0.01      21.3  T
  18   -321.6996224  0.383412E-07  0.452E-04    0.01      16.3  T
  19   -321.6996225 -0.107209E-06  0.970E-05    0.01      75.8  T
  20   -321.6996225  0.587880E-08  0.150E-04    0.01      49.0  T
     SCC iter.                  ...        0 min,  4.086 sec
     gradient                   ...        0 min,  0.826 sec
 * total energy  :  -316.6048224 Eh     change       -0.1480081E-02 Eh
   gradient norm :     0.0166467 Eh/α   predicted    -0.1541591E-02 (   4.16%)
   displ. norm   :     0.5386403 α      lambda       -0.1722753E-02
   maximum displ.:     0.2305904 α      in ANC's #24, #11, #16, ...

........................................................................
.............................. CYCLE   26 ..............................
........................................................................
   1   -321.6949929 -0.321695E+03  0.551E-02    0.00       0.0  T
   2   -320.5580912  0.113690E+01  0.155E+00    0.23       1.0  T
   3   -321.6417548 -0.108366E+01  0.339E-01    0.01       1.0  T
   4   -321.6474948 -0.574000E-02  0.319E-01    0.01       1.0  T
   5   -321.6813360 -0.338411E-01  0.172E-01    0.02       1.0  T
   6   -321.5902498  0.910861E-01  0.452E-01    0.01       1.0  T
   7   -321.6925021 -0.102252E+00  0.855E-02    0.00       1.0  T
   8   -321.6863943  0.610783E-02  0.139E-01    0.01       1.0  T
   9   -321.6951381 -0.874374E-02  0.528E-02    0.01       1.0  T
  10   -321.6965389 -0.140081E-02  0.403E-03    0.01       1.8  T
  11   -321.6965439 -0.504573E-05  0.241E-03    0.01       3.1  T
  12   -321.6965203  0.235966E-04  0.722E-03    0.01       1.0  T
  13   -321.6965403 -0.199848E-04  0.388E-03    0.01       1.9  T
  14   -321.6965445 -0.420850E-05  0.268E-03    0.01       2.7  T
  15   -321.6965462 -0.173409E-05  0.203E-03    0.01       3.6  T
  16   -321.6965476 -0.140354E-05  0.129E-03    0.01       5.7  T
  17   -321.6965484 -0.729228E-06  0.552E-04    0.01      13.3  T
  18   -321.6965481  0.316419E-06  0.971E-04    0.01       7.6  T
  19   -321.6965484 -0.343061E-06  0.530E-04    0.01      13.9  T
  20   -321.6965485 -0.138895E-06  0.131E-04    0.01      56.0  T
  21   -321.6965485 -0.695542E-08  0.607E-05    0.01     121.0  T
     SCC iter.                  ...        0 min,  4.248 sec
     gradient                   ...        0 min,  0.821 sec
 * total energy  :  -316.6060720 Eh     change       -0.1249553E-02 Eh
   gradient norm :     0.0142182 Eh/α   predicted    -0.1111295E-02 ( -11.06%)
   displ. norm   :     0.6610829 α      lambda       -0.1808785E-02
   maximum displ.:     0.2854535 α      in ANC's #11, #24, #16, ...

........................................................................
.............................. CYCLE   27 ..............................
........................................................................
   1   -321.6885392 -0.321689E+03  0.639E-02    0.00       0.0  T
   2   -320.4735494  0.121499E+01  0.162E+00    0.24       1.0  T
   3   -321.5781280 -0.110458E+01  0.484E-01    0.01       1.0  T
   4   -321.6363976 -0.582696E-01  0.334E-01    0.02       1.0  T
   5   -321.6773786 -0.409811E-01  0.162E-01    0.02       1.0  T
   6   -321.5613691  0.116010E+00  0.501E-01    0.01       1.0  T
   7   -321.6879940 -0.126625E+00  0.695E-02    0.00       1.0  T
   8   -321.6787237  0.927029E-02  0.152E-01    0.01       1.0  T
   9   -321.6883631 -0.963938E-02  0.676E-02    0.01       1.0  T
  10   -321.6905753 -0.221226E-02  0.125E-02    0.01       1.0  T
  11   -321.6906299 -0.546124E-04  0.484E-03    0.01       1.5  T
  12   -321.6906288  0.110556E-05  0.446E-03    0.01       1.6  T
  13   -321.6906341 -0.524918E-05  0.340E-03    0.01       2.2  T
  14   -321.6906316  0.250024E-05  0.408E-03    0.01       1.8  T
  15   -321.6906363 -0.471102E-05  0.282E-03    0.01       2.6  T
  16   -321.6906394 -0.310953E-05  0.146E-03    0.01       5.0  T
  17   -321.6906404 -0.975967E-06  0.588E-04    0.01      12.5  T
  18   -321.6906397  0.711689E-06  0.133E-03    0.01       5.5  T
  19   -321.6906402 -0.540711E-06  0.846E-04    0.01       8.7  T
  20   -321.6906405 -0.290707E-06  0.390E-04    0.01      18.8  T
  21   -321.6906406 -0.643424E-07  0.157E-04    0.01      46.8  T
  22   -321.6906406 -0.108985E-07  0.554E-05    0.01     132.7  T
     SCC iter.                  ...        0 min,  4.472 sec
     gradient                   ...        0 min,  0.827 sec
 * total energy  :  -316.6073853 Eh     change       -0.1313320E-02 Eh
   gradient norm :     0.0136236 Eh/α   predicted    -0.1299645E-02 (  -1.04%)
   displ. norm   :     0.6574236 α      lambda       -0.1243702E-02
   maximum displ.:     0.2983274 α      in ANC's #11, #24, #16, ...

........................................................................
.............................. CYCLE   28 ..............................
........................................................................
   1   -321.6849738 -0.321685E+03  0.592E-02    0.00       0.0  T
   2   -320.5166423  0.116833E+01  0.158E+00    0.23       1.0  T
   3   -321.5308067 -0.101416E+01  0.568E-01    0.01       1.0  T
   4   -321.6455756 -0.114769E+00  0.289E-01    0.03       1.0  T
   5   -321.6806612 -0.350856E-01  0.119E-01    0.01       1.0  T
   6   -321.5589914  0.121670E+00  0.500E-01    0.02       1.0  T
   7   -321.6832005 -0.124209E+00  0.820E-02    0.00       1.0  T
   8   -321.6776624  0.553811E-02  0.133E-01    0.01       1.0  T
   9   -321.6844967 -0.683428E-02  0.685E-02    0.01       1.0  T
  10   -321.6867917 -0.229508E-02  0.497E-03    0.01       1.5  T
  11   -321.6867962 -0.448982E-05  0.303E-03    0.01       2.4  T
  12   -321.6868020 -0.572488E-05  0.106E-03    0.01       6.9  T
  13   -321.6868013  0.691264E-06  0.143E-03    0.01       5.2  T
  14   -321.6867946  0.668176E-05  0.388E-03    0.01       1.9  T
  15   -321.6868001 -0.553623E-05  0.211E-03    0.01       3.5  T
  16   -321.6868020 -0.184584E-05  0.924E-04    0.01       8.0  T
  17   -321.6868023 -0.371153E-06  0.416E-04    0.01      17.7  T
  18   -321.6868019  0.442692E-06  0.103E-03    0.01       7.2  T
  19   -321.6868021 -0.242250E-06  0.760E-04    0.01       9.7  T
  20   -321.6868024 -0.226556E-06  0.363E-04    0.01      20.3  T
  21   -321.6868024 -0.555758E-07  0.146E-04    0.01      50.3  T
  22   -321.6868024 -0.910279E-08  0.575E-05    0.01     127.8  T
     SCC iter.                  ...        0 min,  4.454 sec
     gradient                   ...        0 min,  0.823 sec
 * total energy  :  -316.6084351 Eh     change       -0.1049842E-02 Eh
   gradient norm :     0.0108011 Eh/α   predicted    -0.8906269E-03 ( -15.17%)
   displ. norm   :     0.6613906 α      lambda       -0.1220310E-02
   maximum displ.:     0.3218651 α      in ANC's #11, #24, #16, ...

........................................................................
.............................. CYCLE   29 ..............................
........................................................................
   1   -321.6885830 -0.321689E+03  0.569E-02    0.00       0.0  T
   2   -320.5547796  0.113380E+01  0.155E+00    0.22       1.0  T
   3   -321.4724425 -0.917663E+00  0.669E-01    0.03       1.0  T
   4   -321.6480119 -0.175569E+00  0.292E-01    0.03       1.0  T
   5   -321.6634993 -0.154874E-01  0.238E-01    0.00       1.0  T
   6   -321.5606180  0.102881E+00  0.510E-01    0.02       1.0  T
   7   -321.6858552 -0.125237E+00  0.992E-02    0.00       1.0  T
   8   -321.6873618 -0.150661E-02  0.758E-02    0.01       1.0  T
   9   -321.6865855  0.776291E-03  0.834E-02    0.00       1.0  T
  10   -321.6901558 -0.357028E-02  0.152E-02    0.01       1.0  T
  11   -321.6902442 -0.884321E-04  0.911E-03    0.00       1.0  T
  12   -321.6902220  0.222817E-04  0.113E-02    0.00       1.0  T
  13   -321.6902817 -0.597790E-04  0.214E-03    0.00       3.4  T
  14   -321.6902768  0.493731E-05  0.380E-03    0.00       1.9  T
  15   -321.6902834 -0.663078E-05  0.105E-03    0.00       7.0  T
  16   -321.6902840 -0.557456E-06  0.146E-04    0.00      50.5  T
  17   -321.6902838  0.205282E-06  0.671E-04    0.00      11.0  T
  18   -321.6902839 -0.123969E-06  0.433E-04    0.00      17.0  T
  19   -321.6902840 -0.507308E-07  0.292E-04    0.00      25.1  T
  20   -321.6902840 -0.350477E-07  0.123E-04    0.00      59.9  T
     SCC iter.                  ...        0 min,  4.054 sec
     gradient                   ...        0 min,  0.816 sec
 * total energy  :  -316.6094038 Eh     change       -0.9686846E-03 Eh
   gradient norm :     0.0087799 Eh/α   predicted    -0.8770660E-03 (  -9.46%)
   displ. norm   :     0.6956667 α      lambda       -0.1013894E-02
   maximum displ.:     0.3466775 α      in ANC's #11, #24, #16, ...

........................................................................
.............................. CYCLE   30 ..............................
........................................................................
   1   -321.6871561 -0.321687E+03  0.492E-02    0.00       0.0  T
   2   -320.6696680  0.101749E+01  0.146E+00    0.20       1.0  T
   3   -321.4907313 -0.821063E+00  0.634E-01    0.03       1.0  T
   4   -321.6714424 -0.180711E+00  0.186E-01    0.02       1.0  T
   5   -321.6772957 -0.585327E-02  0.169E-01    0.01       1.0  T
   6   -321.6197528  0.575428E-01  0.371E-01    0.02       1.0  T
   7   -321.6850919 -0.653391E-01  0.804E-02    0.01       1.0  T
   8   -321.6854302 -0.338317E-03  0.771E-02    0.01       1.0  T
   9   -321.6867339 -0.130369E-02  0.567E-02    0.00       1.0  T
  10   -321.6882886 -0.155472E-02  0.140E-02    0.00       1.0  T
  11   -321.6883777 -0.890590E-04  0.553E-03    0.00       1.3  T
  12   -321.6883280  0.497301E-04  0.113E-02    0.00       1.0  T
  13   -321.6883821 -0.541338E-04  0.439E-03    0.00       1.7  T
  14   -321.6883909 -0.879555E-05  0.107E-03    0.00       6.8  T
  15   -321.6883915 -0.572870E-06  0.232E-04    0.00      31.7  T
  16   -321.6883914  0.120060E-07  0.282E-04    0.00      26.1  T
  17   -321.6883915 -0.319878E-07  0.149E-04    0.00      49.2  T
  18   -321.6883915  0.148656E-07  0.229E-04    0.00      32.0  T
  19   -321.6883915 -0.123319E-07  0.170E-04    0.00      43.3  T
     SCC iter.                  ...        0 min,  3.898 sec
     gradient                   ...        0 min,  0.821 sec
 * total energy  :  -316.6101780 Eh     change       -0.7741829E-03 Eh
   gradient norm :     0.0095751 Eh/α   predicted    -0.7522914E-03 (  -2.83%)
[...]
   123   6 C    3.922 --   124 C    2.373   127 C    1.329   126 C    0.190
   124   6 C    3.924 --   123 C    2.373   125 C    1.331   128 C    0.190
   125   6 C    3.931 --   126 C    2.452   124 C    1.331
   126   6 C    3.888 --   125 C    2.452   148 C    1.187   123 C    0.190
   127   6 C    3.936 --   128 C    2.456   123 C    1.329
   128   6 C    3.886 --   127 C    2.456    78 C    1.182   124 C    0.190
   129  27 Co   3.005 --   165 N    0.629   146 N    0.628   135 N    0.625
                           153 N    0.624
   130   6 C    3.927 --   164 C    1.268   131 C    1.252   122 C    1.187
   131   6 C    3.908 --   130 C    1.252   135 N    1.239   132 C    1.193
   132   6 C    3.961 --   133 C    1.633   131 C    1.193   166 H    0.974
   133   6 C    3.960 --   132 C    1.633   134 C    1.182   167 H    0.973
   134   6 C    3.917 --   136 C    1.332   135 N    1.191   133 C    1.182
   135   7 N    3.341 --   131 C    1.239   134 C    1.191   129 Co   0.625
   136   6 C    3.931 --   134 C    1.332   143 C    1.312   137 C    1.030
   137   6 C    3.983 --   138 C    1.748   142 C    1.106   136 C    1.030
   138   6 C    3.947 --   137 C    1.748   139 C    1.016   168 H    0.971
   139   6 C    3.957 --   138 C    1.016   170 H    0.972   169 H    0.965
                           140 N    0.948
   140   7 N    3.246 --   141 C    1.173   139 C    0.948   171 H    0.926
                           142 C    0.121
   141   6 C    3.948 --   142 C    1.675   140 N    1.173   172 H    0.970
   142   6 C    3.946 --   141 C    1.675   137 C    1.106   173 H    0.973
                           140 N    0.121
   143   6 C    3.914 --   136 C    1.312   146 N    1.207   144 C    1.186
   144   6 C    3.961 --   145 C    1.634   143 C    1.186   174 H    0.973
   145   6 C    3.960 --   144 C    1.634   147 C    1.190   175 H    0.974
   146   7 N    3.342 --   147 C    1.223   143 C    1.207   129 Co   0.628
   147   6 C    3.906 --   148 C    1.267   146 N    1.223   145 C    1.190
   148   6 C    3.927 --   147 C    1.267   149 C    1.252   126 C    1.187
   149   6 C    3.908 --   148 C    1.252   153 N    1.238   150 C    1.193
   150   6 C    3.961 --   151 C    1.632   149 C    1.193   176 H    0.974
   151   6 C    3.960 --   150 C    1.632   152 C    1.183   177 H    0.973
   152   6 C    3.918 --   154 C    1.332   153 N    1.192   151 C    1.183
   153   7 N    3.340 --   149 C    1.238   152 C    1.192   129 Co   0.624
   154   6 C    3.930 --   152 C    1.332   161 C    1.313   155 C    1.030
   155   6 C    3.983 --   156 C    1.749   160 C    1.106   154 C    1.030
   156   6 C    3.945 --   155 C    1.749   157 C    1.015   178 H    0.971
   157   6 C    3.957 --   156 C    1.015   180 H    0.973   179 H    0.964
                           158 N    0.947
   158   7 N    3.248 --   159 C    1.177   157 C    0.947   181 H    0.925
                           160 C    0.122
   159   6 C    3.947 --   160 C    1.670   158 N    1.177   182 H    0.970
   160   6 C    3.943 --   159 C    1.670   155 C    1.106   183 H    0.974
                           158 N    0.122
   161   6 C    3.913 --   154 C    1.313   165 N    1.207   162 C    1.186
   162   6 C    3.962 --   163 C    1.635   161 C    1.186   184 H    0.973
   163   6 C    3.960 --   162 C    1.635   164 C    1.188   185 H    0.974
   164   6 C    3.906 --   130 C    1.268   165 N    1.222   163 C    1.188
   165   7 N    3.342 --   164 C    1.222   161 C    1.207   129 Co   0.629
   166   1 H    1.001 --   132 C    0.974
   167   1 H    1.006 --   133 C    0.973
   168   1 H    1.004 --   138 C    0.971
   169   1 H    1.004 --   139 C    0.965
   170   1 H    1.014 --   139 C    0.972
   171   1 H    0.961 --   140 N    0.926
   172   1 H    1.001 --   141 C    0.970
   173   1 H    1.003 --   142 C    0.973
   174   1 H    1.004 --   144 C    0.973
   175   1 H    1.002 --   145 C    0.974
   176   1 H    1.002 --   150 C    0.974
   177   1 H    1.006 --   151 C    0.973
   178   1 H    1.004 --   156 C    0.971
   179   1 H    1.003 --   157 C    0.964
   180   1 H    1.014 --   157 C    0.973
   181   1 H    0.960 --   158 N    0.925
   182   1 H    1.001 --   159 C    0.970
   183   1 H    1.003 --   160 C    0.974
   184   1 H    1.004 --   162 C    0.973
   185   1 H    1.002 --   163 C    0.974
 ---------------------------------------------------------------------------

Topologies differ in total number of bonds
Writing topology from bond orders to xtbtopo.mol

 dipole moment from electron density (au)
     X       Y       Z   
   0.2476   0.3677   0.4618  total (Debye):    1.627

           -------------------------------------------------
          |                Geometry Summary                 |
           -------------------------------------------------

      molecular mass/u    :     1716.5076290
   center of mass at/Å    :       41.2819433       0.3937032       0.3164493
  moments of inertia/u·Å² :        0.2586247E+05   0.2860361E+06   0.3004783E+06
rotational constants/cm⁻¹ :        0.6518184E-03   0.5893533E-04   0.5610267E-04

 * 176 selected distances

     #   Z          #   Z                                           value/Å
     2   6 C        3   6 C                                       1.3787736
     3   6 C        4   6 C                                       1.4312538
     4   6 C        5   6 C                                       1.3541032
     5   6 C        6   6 C                                       1.4341908
     3   6 C        7   7 N                                       1.3721199
     6   6 C        7   7 N                                       1.3722231
     6   6 C        8   6 C                                       1.3883238
     9   6 C       10   6 C                                       1.3430133
    11   6 C       12   7 N                                       1.4638075
    12   7 N       13   6 C                                       1.3664211
    13   6 C       14   6 C                                       1.3465174
     8   6 C       15   6 C                                       1.3879916
    15   6 C       16   6 C                                       1.4319822
    16   6 C       17   6 C                                       1.3550179
    15   6 C       18   7 N                                       1.3752842
    17   6 C       19   6 C                                       1.4287190
    18   7 N       19   6 C                                       1.3678292
    19   6 C       20   6 C                                       1.3958785
    20   6 C       21   6 C                                       1.3964659
    21   6 C       22   6 C                                       1.4286955
    22   6 C       23   6 C                                       1.3549875
    23   6 C       24   6 C                                       1.4320577
    21   6 C       25   7 N                                       1.3673088
    24   6 C       25   7 N                                       1.3759988
    24   6 C       26   6 C                                       1.3875601
    27   6 C       28   6 C                                       1.3430086
    29   6 C       30   7 N                                       1.4639360 (max)
    30   7 N       31   6 C                                       1.3664570
    31   6 C       32   6 C                                       1.3465021
    26   6 C       33   6 C                                       1.3886937
    33   6 C       34   6 C                                       1.4340422
    34   6 C       35   6 C                                       1.3540930
     2   6 C       36   6 C                                       1.3784572
    35   6 C       36   6 C                                       1.4314160
    33   6 C       37   7 N                                       1.3715556
    36   6 C       37   7 N                                       1.3725873
     2   6 C       38   1 H                                       1.0837227
     4   6 C       39   1 H                                       1.0786093
     5   6 C       40   1 H                                       1.0780567
    10   6 C       41   1 H                                       1.0837396
    11   6 C       42   1 H                                       1.0991556
    11   6 C       43   1 H                                       1.1057349
    12   7 N       44   1 H                                       1.0089939
    13   6 C       45   1 H                                       1.0852828
    14   6 C       46   1 H                                       1.0806740
    16   6 C       47   1 H                                       1.0779752
    17   6 C       48   1 H                                       1.0782323
    22   6 C       49   1 H                                       1.0782040
    23   6 C       50   1 H                                       1.0779662
    28   6 C       51   1 H                                       1.0837616
    29   6 C       52   1 H                                       1.0992041
    29   6 C       53   1 H                                       1.1056958
    30   7 N       54   1 H                                       1.0090111
    31   6 C       55   1 H                                       1.0852894
    32   6 C       56   1 H                                       1.0806639
    34   6 C       57   1 H                                       1.0780806
    35   6 C       58   1 H                                       1.0786007
    60   6 C       61   6 C                                       1.3790203
    61   6 C       62   6 C                                       1.4312424
    62   6 C       63   6 C                                       1.3543325
    63   6 C       64   6 C                                       1.4341459
    61   6 C       65   7 N                                       1.3720997
    64   6 C       65   7 N                                       1.3721417
    64   6 C       66   6 C                                       1.3886868
    67   6 C       68   6 C                                       1.3430932
    69   6 C       70   7 N                                       1.4639024
    70   7 N       71   6 C                                       1.3669727
    71   6 C       72   6 C                                       1.3463249
    66   6 C       73   6 C                                       1.3882360
    73   6 C       74   6 C                                       1.4318796
    74   6 C       75   6 C                                       1.3551730
    73   6 C       76   7 N                                       1.3753141
    75   6 C       77   6 C                                       1.4289094
    76   7 N       77   6 C                                       1.3676418
    77   6 C       78   6 C                                       1.3969280
    78   6 C       79   6 C                                       1.3959811
    79   6 C       80   6 C                                       1.4286525
    80   6 C       81   6 C                                       1.3552802
    81   6 C       82   6 C                                       1.4322020
    79   6 C       83   7 N                                       1.3675578
    82   6 C       83   7 N                                       1.3756424
    82   6 C       84   6 C                                       1.3879243
    85   6 C       86   6 C                                       1.3431610
    87   6 C       88   7 N                                       1.4639073
    88   7 N       89   6 C                                       1.3664436
    89   6 C       90   6 C                                       1.3465385
    84   6 C       91   6 C                                       1.3890474
    91   6 C       92   6 C                                       1.4341634
    92   6 C       93   6 C                                       1.3542383
    60   6 C       94   6 C                                       1.3786889
    93   6 C       94   6 C                                       1.4314279
    91   6 C       95   7 N                                       1.3715051
    94   6 C       95   7 N                                       1.3726290
    60   6 C       96   1 H                                       1.0837087
    62   6 C       97   1 H                                       1.0786088
    63   6 C       98   1 H                                       1.0780722
    68   6 C       99   1 H                                       1.0837274
    69   6 C      100   1 H                                       1.0990011
    69   6 C      101   1 H                                       1.1058509
    70   7 N      102   1 H                                       1.0091055
    71   6 C      103   1 H                                       1.0852864
    72   6 C      104   1 H                                       1.0806935
    74   6 C      105   1 H                                       1.0779897
    75   6 C      106   1 H                                       1.0781795
    80   6 C      107   1 H                                       1.0782958
    81   6 C      108   1 H                                       1.0780081
    86   6 C      109   1 H                                       1.0837747
    87   6 C      110   1 H                                       1.0992305
    87   6 C      111   1 H                                       1.1057081
    88   7 N      112   1 H                                       1.0090173
    89   6 C      113   1 H                                       1.0852873
    90   6 C      114   1 H                                       1.0806592
    92   6 C      115   1 H                                       1.0780872
    93   6 C      116   1 H                                       1.0786021
   117   6 C      118   6 C                                       1.2280183
   119   6 C      120   6 C                                       1.2233372
   121   6 C      122   6 C                                       1.2236334
   123   6 C      124   6 C                                       1.2280803
   125   6 C      126   6 C                                       1.2237084
   127   6 C      128   6 C                                       1.2234258
   130   6 C      131   6 C                                       1.3990717
   131   6 C      132   6 C                                       1.4279042
   132   6 C      133   6 C                                       1.3558487
   133   6 C      134   6 C                                       1.4320881
   131   6 C      135   7 N                                       1.3645798
   134   6 C      135   7 N                                       1.3771069
   134   6 C      136   6 C                                       1.3869558
   137   6 C      138   6 C                                       1.3431763
   139   6 C      140   7 N                                       1.4638999
   140   7 N      141   6 C                                       1.3668530
   141   6 C      142   6 C                                       1.3462625
   136   6 C      143   6 C                                       1.3902348
   143   6 C      144   6 C                                       1.4311431
   144   6 C      145   6 C                                       1.3556571
   143   6 C      146   7 N                                       1.3725214
   145   6 C      147   6 C                                       1.4289953
   146   7 N      147   6 C                                       1.3682883
   147   6 C      148   6 C                                       1.3964898
   148   6 C      149   6 C                                       1.3989340
   149   6 C      150   6 C                                       1.4278673
   150   6 C      151   6 C                                       1.3558895
   151   6 C      152   6 C                                       1.4320454
   149   6 C      153   7 N                                       1.3645952
   152   6 C      153   7 N                                       1.3771700
   152   6 C      154   6 C                                       1.3871638
   155   6 C      156   6 C                                       1.3429960
   157   6 C      158   7 N                                       1.4637631
   158   7 N      159   6 C                                       1.3651510
   159   6 C      160   6 C                                       1.3466977
   154   6 C      161   6 C                                       1.3903046
   161   6 C      162   6 C                                       1.4312384
   162   6 C      163   6 C                                       1.3554787
   130   6 C      164   6 C                                       1.3963116
   163   6 C      164   6 C                                       1.4292029
   161   6 C      165   7 N                                       1.3722996
   164   6 C      165   7 N                                       1.3685419
   132   6 C      166   1 H                                       1.0782385
   133   6 C      167   1 H                                       1.0778377
   138   6 C      168   1 H                                       1.0837325
   139   6 C      169   1 H                                       1.1058545
   139   6 C      170   1 H                                       1.0990535
   140   7 N      171   1 H                                       1.0091885
   141   6 C      172   1 H                                       1.0852721
   142   6 C      173   1 H                                       1.0806725
   144   6 C      174   1 H                                       1.0781518
   145   6 C      175   1 H                                       1.0781864
   150   6 C      176   1 H                                       1.0782395
   151   6 C      177   1 H                                       1.0778164
   156   6 C      178   1 H                                       1.0836714
   157   6 C      179   1 H                                       1.1054282
   157   6 C      180   1 H                                       1.0995112
   158   7 N      181   1 H                                       1.0087672 (min)
   159   6 C      182   1 H                                       1.0852783
   160   6 C      183   1 H                                       1.0806208
   162   6 C      184   1 H                                       1.0780329
   163   6 C      185   1 H                                       1.0781772

 * 4 distinct bonds (by element types)

   Z      Z             #   av. dist./Å        max./Å        min./Å
   1 H    6 C          56     1.0851999     1.1058545     1.0778164
   6 C    6 C          78     1.3775023     1.4341908     1.2233372
   1 H    7 N           6     1.0090139     1.0091885     1.0087672
   6 C    7 N          36     1.3860016     1.4639360     1.3645798


optimized geometry written to: xtbopt.xyz


           -------------------------------------------------
          | TOTAL ENERGY             -316.618482082048 Eh   |
          | GRADIENT NORM               0.000463489199 Eh/α |
          | HOMO-LUMO GAP               0.000061763062 eV   |
           -------------------------------------------------

------------------------------------------------------------------------
 * finished run on 2022/07/30 at 00:58:37.122     
------------------------------------------------------------------------
 total:
 * wall-time:     0 d,  0 h,  6 min, 45.314 sec
 *  cpu-time:     0 d,  0 h,  6 min, 41.958 sec
 * ratio c/w:     0.992 speedup
 SCF:
 * wall-time:     0 d,  0 h,  0 min, 15.247 sec
 *  cpu-time:     0 d,  0 h,  0 min, 15.137 sec
 * ratio c/w:     0.993 speedup
 ANC optimizer:
 * wall-time:     0 d,  0 h,  6 min, 29.725 sec
 *  cpu-time:     0 d,  0 h,  6 min, 26.485 sec
 * ratio c/w:     0.992 speedup

