197
 energy: -378.304843462880 gnorm: 1.611144581182 xtb: 6.5.1 (b24c23e)
Cu          32.88355900000000        0.01453900000000        0.00021800000000
C           29.46553400000000       -0.09247600000000        0.08943800000000
C           30.13082600000000       -0.19407000000000        1.24357100000000
C           29.48296400000000       -0.33659900000000        2.54215600000000
C           30.42508900000000       -0.35761400000000        3.46660000000000
C           31.72812700000000       -0.22736400000000        2.80077600000000
N           31.54864800000000       -0.12870100000000        1.38770900000000
C           32.91728400000000       -0.15643300000000        3.43190200000000
C           34.20876900000000        0.00323700000000        2.71431900000000
C           35.49549500000000        0.22005900000000        3.38682500000000
C           36.42998100000000        0.27767200000000        2.46005100000000
N           34.35130500000000       -0.07529100000000        1.42652100000000
C           35.74842900000000        0.09056300000000        1.18492300000000
C           36.34475600000000        0.01009300000000       -0.01599200000000
C           35.58701700000000       -0.19995800000000       -1.27070600000000
C           36.13012400000000       -0.61256500000000       -2.40916800000000
C           35.08632699999999       -0.60085100000000       -3.41474800000000
C           33.97415400000000       -0.17772700000000       -2.82534600000000
C           32.68615800000000        0.04526500000000       -3.53151400000000
C           32.70394400000000        0.18120700000000       -5.00850300000000
C           32.06080100000000       -0.76580700000000       -5.81950200000000
C           32.09626100000000       -0.64338700000000       -7.21131300000000
C           32.78257900000000        0.42522900000000       -7.81581500000000
C           32.82363000000000        0.55927300000000       -9.28865100000000
O           33.50762800000000        1.61939400000000       -9.87824200000000
O           32.24050600000000       -0.28349000000000      -10.02323600000000
C           33.43372400000000        1.36605700000000       -6.99927800000000
C           33.39674200000000        1.24279200000000       -5.60747100000000
C           31.51963900000000        0.12851600000000       -2.86338000000000
C           30.20400500000000        0.38074300000000       -3.44901300000000
C           29.34256200000000        0.33154200000000       -2.45161900000000
C           30.09874000000000        0.06167800000000       -1.23001100000000
N           31.36872100000000       -0.05801600000000       -1.45758500000000
N           34.19980500000000        0.09422700000000       -1.44075100000000
C           32.95703300000000       -0.22811200000000        4.90773800000000
C           32.89281000000000       -1.46908500000000        5.55479000000000
C           32.93212600000000       -1.53755700000000        6.95030800000000
C           33.03749300000000       -0.36386400000000        7.71906700000000
C           33.08003300000000       -0.43063300000000        9.19641100000000
O           33.18321800000000        0.73643300000000        9.94911500000000
O           33.02345700000000       -1.54297500000000        9.78744000000000
C           33.10233700000000        0.87791100000000        7.06267000000000
C           33.06230100000000        0.94455100000000        5.66705000000000
H           28.38228700000000       -0.11110200000000        0.11761600000000
H           28.41952400000000       -0.40482800000000        2.73237300000000
H           30.24098000000000       -0.44441200000000        4.52967600000000
H           35.67048999999999        0.31290700000000        4.45050000000000
H           37.48632100000000        0.42288800000000        2.64298800000000
H           37.16353300000000       -0.88766200000000       -2.57203400000000
H           35.20317800000000       -0.86672300000000       -4.45738800000000
H           31.53503000000000       -1.60080600000000       -5.37268600000000
H           31.58895900000000       -1.38687500000000       -7.81329300000000
H           33.54187100000000        1.72055300000000      -10.88564000000000
H           33.97314900000000        2.19781000000000       -7.43452300000000
H           33.90583500000000        1.97709300000000       -4.99506300000000
H           29.95701600000000        0.57474700000000       -4.48445200000000
H           28.27328200000000        0.47465400000000       -2.53591300000000
H           32.81212300000000       -2.38213900000000        4.97763700000000
H           32.88040700000000       -2.50866000000000        7.42651000000000
H           33.21314200000000        0.70197500000000       10.96113500000000
H           33.18413900000000        1.79872500000000        7.62624500000000
H           33.11361800000000        1.90921800000000        5.17706000000000
Cu          65.97658600000000        0.01637800000000       -0.03158100000000
C           69.39461100000000       -0.07963500000000       -0.13254600000000
C           68.72931899999999       -0.04746600000000       -1.29069500000000
C           69.37718099999999       -0.03930200000000       -2.59705200000000
C           68.43505599999999        0.04642200000000       -3.51775300000000
C           67.13201700000000        0.09902600000000       -2.84135200000000
N           67.31149600000001        0.03408800000000       -1.42633400000000
C           65.94286099999999        0.24225900000000       -3.46008900000000
C           64.65137600000000        0.31811900000000       -2.72888000000000
C           63.36465000000000        0.61104200000000       -3.37189800000000
C           62.43016400000000        0.56140300000000       -2.44466300000000
N           64.50883899999999        0.09161700000000       -1.45872800000000
C           63.11171599999999        0.22850600000000       -1.19961700000000
C           62.51538900000000        0.01009300000000       -0.01599200000000
C           63.27312799999999       -0.34324000000000        1.20613100000000
C           62.73002099999999       -0.88437200000000        2.28942000000000
C           63.77381799999999       -0.98869100000000        3.28964400000000
C           64.88599100000000       -0.50042500000000        2.75296400000000
C           66.17398700000000       -0.36034900000000        3.48013500000000
C           66.15620100000000       -0.39562800000000        4.96294700000000
C           66.79934400000000       -1.42984300000000        5.65933500000000
C           66.76388400000000       -1.46873100000000        7.05597800000000
C           66.07756600000000       -0.47695000000000        7.77967100000000
C           66.03651499999999       -0.51363500000000        9.25814000000000
O           65.35251700000001        0.47142800000000        9.96604200000000
O           66.61963900000001       -1.43548200000000        9.89064400000000
C           65.42642100000000        0.55175800000000        7.07706900000000
C           65.46340300000000        0.58980700000000        5.68033300000000
C           67.34050600000000       -0.20061100000000        2.82605800000000
C           68.65613999999999       -0.01759700000000        3.43686900000000
C           69.51758300000000        0.04854200000000        2.44045500000000
C           68.76140500000000       -0.07865700000000        1.19587700000000
N           67.49142399999999       -0.22379400000000        1.40813100000000
N           64.66033899999999       -0.07062600000000        1.40896400000000
C           65.90311199999999        0.34124000000000       -4.93434500000000
C           65.96733500000001       -0.81684300000000       -5.72018000000000
C           65.92801900000001       -0.72393800000000       -7.11428400000000
C           65.82265200000001        0.53057200000000       -7.74257500000000
C           65.78011200000000        0.63460300000000       -9.21776300000000
O           65.67692700000001        1.88068000000000       -9.83087000000000
O           65.83668800000000       -0.40216600000000       -9.93311600000000
C           65.75780800000000        1.68837300000000       -6.94736500000000
C           65.79784400000000        1.59363800000000       -5.55337100000000
H           70.47785700000000       -0.09488700000000       -0.16268300000000
H           70.44062099999999       -0.08514200000000       -2.79386900000000
H           68.61916500000000        0.08278800000000       -4.58374700000000
H           63.18965499999999        0.82592500000000       -4.41777200000000
H           61.37382400000000        0.72674500000000       -2.60963400000000
H           61.69661200000000       -1.17641400000000        2.41947900000000
H           63.65696700000000       -1.37301900000000        4.29467100000000
H           67.32511500000000       -2.20774900000000        5.11921400000000
H           67.27118600000000       -2.27667500000000        7.56821000000000
H           65.31827400000000        0.45574800000000       10.97838400000000
H           64.88699500000000        1.32777400000000        7.60532200000000
H           64.95431000000001        1.38982800000000        5.15668400000000
H           68.90312800000000        0.05571600000000        4.48777200000000
H           70.58686299999999        0.18097900000000        2.54068900000000
H           66.04802200000000       -1.79035900000000       -5.25216200000000
H           65.97973700000000       -1.63365200000000       -7.69928800000000
H           65.64700300000000        1.96314900000000      -10.84011200000000
H           65.67600600000000        2.66803200000000       -7.40100000000000
H           65.74652700000000        2.49536800000000       -4.95541200000000
C           42.27857600000000        0.01140500000000       -0.00756000000000
C           41.06963600000000       -0.00205000000000       -0.01600700000000
C           39.64810700000000        0.00676900000000       -0.02799000000000
C           38.43643800000000        0.01420800000000       -0.01712700000000
C           43.69517999999999        0.00473000000000       -0.00702600000000
C           44.91587600000000        0.01420800000000       -0.01712700000000
C           57.78941000000000        0.01140500000000       -0.00756000000000
C           56.58046999999999       -0.00205000000000       -0.01600700000000
C           55.15894100000000        0.00676900000000       -0.02799000000000
C           53.94727199999999        0.01420800000000       -0.01712700000000
C           59.20601400000000        0.00473000000000       -0.00702600000000
C           60.42671000000000        0.01420800000000       -0.01712700000000
Cu          49.41744099999999        0.00690400000000       -0.03420900000000
C           45.96498900000000       -0.02331200000000        0.03587700000000
C           46.62008500000000       -1.19900200000000        0.02728800000000
C           45.97945099999999       -2.51118100000000       -0.07997800000000
C           46.91662699999999       -3.43657600000000       -0.02298600000000
C           48.21359500000000       -2.77183100000000        0.13312700000000
N           48.03525800000000       -1.35333400000000        0.15638800000000
C           49.39865400000000       -3.40734000000000        0.25213700000000
C           50.69305800000000       -2.68963300000000        0.37178900000000
C           51.95729699999999       -3.33776400000000        0.74756600000000
C           52.90995599999999       -2.42739300000000        0.69410300000000
N           50.86336000000000       -1.43226300000000        0.10348900000000
C           52.25946400000000       -1.18863000000000        0.28586400000000
C           52.87714100000000       -0.02331200000000        0.03587700000000
C           52.12745499999999        1.18985500000000       -0.35036600000000
C           52.66061300000000        2.24197700000000       -0.95882000000000
C           51.62735800000000        3.25794900000000       -1.04134700000000
C           50.53553500000000        2.75633300000000       -0.47412100000000
C           49.28193100000000        3.51413200000000       -0.24783100000000
C           49.33936600000000        4.99582400000000       -0.25532000000000
C           50.11485000000000        5.67376700000000        0.69434200000000
C           50.18958799999999        7.06887600000000        0.67621700000000
C           49.49684400000000        7.80881400000000       -0.29971900000000
C           49.56867600000000        9.28575900000000       -0.32038800000000
O           48.93628200000000       10.00748300000000       -1.33307500000000
O           50.19498600000000        9.90519100000000        0.58212700000000
C           48.73185300000000        7.12413800000000       -1.25884800000000
C           48.65553700000000        5.72896700000000       -1.23740200000000
C           48.11275700000000        2.88549500000000       -0.02254500000000
C           46.83862100000000        3.52786600000000        0.28271700000000
C           45.94924399999999        2.55866500000000        0.36140600000000
C           46.64474800000000        1.29057000000000        0.11275200000000
N           47.90967400000000        1.47472600000000       -0.10869000000000
N           50.76127800000000        1.42594800000000       -0.01159000000000
C           49.44016599999999       -4.88775100000000        0.25812900000000
C           48.92770399999999       -5.61031900000000        1.34706800000000
C           48.98784700000000       -7.00705500000000        1.35682800000000
C           49.56650200000000       -7.70321600000000        0.27904700000000
C           49.63608199999999       -9.18142400000000        0.28541700000000
O           50.20660700000000       -9.86148200000000       -0.78749600000000
O           49.18112500000000       -9.83879600000000        1.26015000000000
C           50.08299300000000       -6.97334600000000       -0.80716500000000
C           50.02207500000000       -5.57695500000000       -0.81568400000000
H           44.92477300000000       -2.71948300000000       -0.19664600000000
H           46.73108100000000       -4.50072100000000       -0.08996900000000
H           52.10387399999999       -4.37440000000000        1.02153300000000
H           53.95667800000000       -2.59691700000000        0.91505900000000
H           53.68266200000000        2.34333400000000       -1.29895600000000
H           51.74150500000000        4.25380000000000       -1.45036700000000
H           50.65738200000000        5.12091200000000        1.45145800000000
H           50.79223400000000        7.56718700000000        1.42333600000000
H           48.97800000000000       11.01902200000000       -1.35537000000000
H           48.18991500000000        7.66533300000000       -2.02636200000000
H           48.06762800000000        5.21826100000000       -1.99058600000000
H           46.63690200000000        4.58120700000000        0.42861800000000
H           44.89913299999999        2.69993900000000        0.58068000000000
H           48.48349199999999       -5.09091700000000        2.18852700000000
H           48.58391699999999       -7.54130900000000        2.20875300000000
H           50.25858900000000      -10.87361400000000       -0.79303800000000
H           50.53640200000000       -7.47997300000000       -1.65088800000000
H           50.42685200000000       -5.03141900000000       -1.66038400000000
197
 energy: -378.748126982431 gnorm: 0.452896696752 xtb: 6.5.1 (b24c23e)
Cu          32.88213660319615        0.01235584497408       -0.00144162271667
C           29.46658168960530       -0.09099228744100        0.07633794563697
C           30.13673371964144       -0.19401263840437        1.24544264925259
C           29.48193982124695       -0.33625054248983        2.53733092342687
C           30.43192889061725       -0.35738887731791        3.46872952034583
C           31.72594084867359       -0.22752136248677        2.79482985344321
N           31.53450811307994       -0.12975759049478        1.40245008050822
C           32.92963143748725       -0.15519674816872        3.42801332569148
C           34.20372536569140        0.00275887518914        2.72748258713768
C           35.48594104361481        0.21908205076450        3.39452728662804
C           36.43080457314040        0.27703777124855        2.45498491661849
N           34.36294267617160       -0.07232248104524        1.42311442515409
C           35.75886984019807        0.09106453664555        1.18275287809629
C           36.36397560252043        0.00638148931673       -0.02646125690140
C           35.58895178550505       -0.19201640221714       -1.25777466256973
C           36.13210025010630       -0.61598153650273       -2.42747534074621
C           35.10387094657824       -0.60365096776641       -3.41605933479872
C           33.96483544540445       -0.17036765054534       -2.81572194847369
C           32.69668521031142        0.04467041089873       -3.52536858267587
C           32.70814243843832        0.17927486071493       -5.00768329898722
C           32.06197676703025       -0.76237878090152       -5.82237938044405
C           32.09832356797634       -0.63991439327987       -7.21084666852182
C           32.78525868232417        0.42941491005612       -7.81852614612122
C           32.81968681936783        0.55388483084645       -9.30428826719941
O           33.50365116560018        1.61318051850830       -9.87221049066213
O           32.24866663723599       -0.27145010663048      -10.01608603691466
C           33.43280232197835        1.36508665700939       -6.99720062379716
C           33.39637855328409        1.24077167615146       -5.61009889351267
C           31.51819596312065        0.12883956844705       -2.86187945681677
C           30.21001712981656        0.37977019346037       -3.44963827929631
C           29.33583216021712        0.33085592499491       -2.44285784810892
C           30.08477341992934        0.06079235368171       -1.22265005605083
N           31.37000672342773       -0.05477143454133       -1.46585522521401
N           34.20781435695255        0.09117615996999       -1.44391643505297
C           32.95953092604105       -0.22779548747648        4.90974006883732
C           32.89280316408723       -1.46627916279890        5.55907841022518
C           32.93223971358697       -1.53360289534216        6.95088197447597
C           33.03790936373012       -0.35932152733384        7.72242416217143
C           33.07995720680171       -0.43936822626521        9.21096481077874
O           33.18254131343764        0.72999934311256        9.94217359860621
O           33.02429630884060       -1.52761887655707        9.78232161717345
C           33.10216283762058        0.87694088343172        7.06097920505582
C           33.06285788267150        0.94233014197477        5.67018232579649
H           28.38283671230043       -0.11045045770496        0.11477930795910
H           28.41959903950351       -0.40460493299231        2.72792508770040
H           30.24633678436574       -0.44428100511140        4.53012814805633
H           35.66597749662434        0.31249947479523        4.45294218674019
H           37.48595749753532        0.42260688518775        2.63790652964770
H           37.16395047275788       -0.88876091000827       -2.57518783931339
H           35.20591872238550       -0.86783565322992       -4.45721333880393
H           31.53595070447053       -1.59952808801119       -5.37322614965235
H           31.59008430864277       -1.38523122454620       -7.81441864411348
H           33.53599837570039        1.71084701388497      -10.86889922521009
H           33.97261067236303        2.19712310820132       -7.43512126343756
H           33.90525271493607        1.97611974915791       -4.99533129555086
H           29.96213929819995        0.57414537654971       -4.48418861741784
H           28.27135877347071        0.47421092340860       -2.53210109620466
H           32.81233854610581       -2.38060947817604        4.97851309052900
H           32.88060990036250       -2.50690438004957        7.42806604554168
H           33.21196995888820        0.69302978127510       10.94303782803392
H           33.18403322545971        1.79784244155397        7.62692040831710
H           33.11354186709917        1.90798876694453        5.17730352708099
Cu          65.97803650746440        0.01413174842799       -0.03018319302474
C           69.39354865917079       -0.07967402539464       -0.11939762168944
C           68.72343838383422       -0.04716784940901       -1.29256941645744
C           69.37823102105945       -0.03950380563471       -2.59225243318402
C           68.42825193060335        0.04689848936558       -3.51985909509016
C           67.13425235311740        0.09819703124923       -2.83541321179655
N           67.32571475830699        0.03460685659401       -1.44124062584018
C           65.93046058323226        0.24304333983629       -3.45605627890438
C           64.65641678410867        0.31917308866640       -2.74204128239015
C           63.37416818982774        0.61098506831028       -3.37969838262271
C           62.42929590106833        0.56020543722920       -2.43979226573329
N           64.49706203659443        0.09411670348651       -1.45507521589480
C           63.10123721228425        0.22876995218525       -1.19754968140254
C           62.49658746554158        0.00516068768563       -0.00614226962801
C           63.27108953643506       -0.33388357169196        1.19428879412413
C           62.72798491672568       -0.88993731996875        2.30730203949663
C           63.75621991593068       -0.99164287498221        3.29063210172841
C           64.89524846733791       -0.49198129416437        2.74420849131909
C           66.16347523976917       -0.36022966849014        3.47394269187737
C           66.15199378467760       -0.39745284486198        4.96191232713362
C           66.79816801369195       -1.42676911449471        5.66258347629479
C           66.76181842823190       -1.46522349803076        7.05591740107259
C           66.07488515376006       -0.47310256557181        7.78283906601083
C           66.04044988801249       -0.52078265920497        9.27308108598948
O           65.35650816034993        0.46593622123736        9.95932120089610
O           66.61148203947725       -1.42269822261768        9.88491413675966
C           65.42734535566410        0.55103210405893        7.07489749828488
C           65.46376326611720        0.58749807569890        5.68270597628695
C           67.34197010538911       -0.20011798253298        2.82461610412177
C           68.65016366771117       -0.01864647855147        3.43740349364395
C           69.52432916075814        0.04889230987663        2.43171325102275
C           68.77535216303458       -0.07869324310542        1.18851900609095
N           67.49025932110732       -0.22156125787669        1.41680836408501
N           64.65219707018910       -0.07394759079737        1.41186157022138
C           65.90060100227836        0.34178694270400       -4.93628867572704
C           65.96734193431386       -0.81355958329724       -5.72411655007632
C           65.92790706805826       -0.71994479908187       -7.11439784854353
C           65.82223559061552        0.53547324103187       -7.74538795681833
C           65.78019934362401        0.62761067427778       -9.23322199814110
O           65.67759438458302        1.87348251593002       -9.82471713742142
O           65.83583563244450       -0.38751086368881       -9.92626485385485
C           65.75798260841472        1.68721660553773       -6.94579681203231
C           65.79728504051809        1.59179341072166       -5.55673813561667
H           70.47730494124205       -0.09457222119873       -0.15979407028322
H           70.44055685437901       -0.08543053613928       -2.78943566736187
H           68.61381457948103        0.08297331155658       -4.58419011341648
H           63.19414748533937        0.82580396374199       -4.42026032924034
H           61.37416415165878        0.72589448052805       -2.60463732392986
H           61.69616346381494       -1.17789553871628        2.42251520605025
H           63.65421470498926       -1.37411446510245        4.29436865210346
H           67.32419469773181       -2.20654289555080        5.11989611897747
H           67.27006029985982       -2.27517060323535        7.56951730397243
H           65.32413904690978        0.44804288954625       10.96063627330605
H           64.88753428073706        1.32702119015164        7.60583652729312
H           64.95489352328222        1.38883244522972        5.15683844568648
H           68.89801187966059        0.05515164165644        4.48745050091668
H           70.58879420843316        0.18097926593604        2.53685975946956
H           66.04780780423602       -1.78873883573819       -5.25285585751238
H           65.97953588071873       -1.63172924162081       -7.70063171496675
H           65.64818183052142        1.95218045644310      -10.82316642626506
H           65.67611286823538        2.66723324941075       -7.40177287872172
H           65.74660379796477        2.49417405561355       -4.95579640505917
C           42.27059956609877        0.01135614240617       -0.00789370571311
C           41.04799940594892       -0.00174275080709       -0.01603464155355
C           39.63813105235661        0.00672008530875       -0.02765038182999
C           38.40515026917945        0.01381886723273       -0.01896917980614
C           43.62306824088004        0.00632983404837       -0.00849576167256
C           44.80034409145956        0.02299786500553       -0.02218419223290
C           57.81038361458018        0.01120763406889       -0.00795032396053
C           56.58705148102645       -0.00142835298150       -0.01674346726293
C           55.22815067301718        0.00776876736517       -0.02889644728071
C           54.04632247042136        0.02720745552367       -0.01987610964410
C           59.21876997257256        0.00497519050322       -0.00693866966157
C           60.45437442130868        0.01366873677700       -0.01499151684328
Cu          49.41579428549809        0.00829356061566       -0.03172345239271
C           46.06753014985222       -0.01457828879397        0.04115980707599
C           46.66064482805191       -1.21868354659334        0.02762529912521
C           45.98058261925498       -2.50291863458264       -0.08005323950937
C           46.92496798007053       -3.44015695143107       -0.02201572140949
C           48.21206440310448       -2.77000125683477        0.13276058078556
N           48.03087226326716       -1.37376378068408        0.15568549683038
C           49.41066733800260       -3.40691539702733        0.25369544473455
C           50.68590004586036       -2.70914710396340        0.37246156008673
C           51.94586192656919       -3.34737787988174        0.74719496689410
C           52.90674296045186       -2.42051834390459        0.69196640433902
N           50.86424176706076       -1.43606379070088        0.10602873906824
C           52.22628992014825       -1.20608341595655        0.29221217236592
C           52.78015182391337       -0.01650487970451        0.03417623072045
C           52.09611529825477        1.19151037165732       -0.34604857904045
C           52.65911808420248        2.25918416441429       -0.96358284658396
C           51.64404054460874        3.26032474392690       -1.04486342852846
C           50.52557585433902        2.75227225082517       -0.46555737892414
C           49.29227521051118        3.50978596897296       -0.24833385894932
C           49.34313564708818        4.99525343799050       -0.25789350518798
C           50.11401036590178        5.67753129975782        0.69163125925610
C           50.18689182394533        7.06913234774568        0.67309784317645
C           49.49457628500006        7.81205500610841       -0.30386198421389
C           49.57360712196607        9.30080362729560       -0.31365225694165
O           48.93999632226614       10.00045216428718       -1.32693693350496
O           50.18649405561535        9.89985438661831        0.56911833156531
C           48.73213002457013        7.12187099595605       -1.25793028779823
C           48.65637741094738        5.73094803345476       -1.23507826038987
C           48.11229998584822        2.88745299532845       -0.02236266277554
C           46.84496892097642        3.52890226992050        0.28110771750675
C           45.94402045311571        2.54802746754362        0.36174297541065
C           46.65729159932083        1.29615954024140        0.11591055090801
N           47.92073005878798        1.48954603916739       -0.10855404309910
N           50.75891129444229        1.43441846226443       -0.01654449732936
C           49.44292702043049       -4.88963959208769        0.25952792660379
C           48.92840428504853       -5.61440889715243        1.34396423235306
C           48.98952289745654       -7.00724019143274        1.35308903181451
C           49.56877344778721       -7.70630664349381        0.27479607383042
C           49.63323542741986       -9.19635027865884        0.29265954416678
O           50.20328473096047       -9.85502078489368       -0.78152930711802
O           49.18752341777785       -9.83270973140533        1.24667609118492
C           50.08226427640345       -6.97157427792394       -0.80616499070195
C           50.02194691750641       -5.57999157507867       -0.81323952640280
H           44.92490165574602       -2.71222415396112       -0.19624710654137
H           46.73604766853079       -4.50143300516800       -0.08937294602518
H           52.09967601937393       -4.37720907459075        1.02144392419744
H           53.95470846623629       -2.59024681372735        0.91341335603779
H           53.68183771138108        2.34470065936387       -1.30006607007595
H           51.74449552203207        4.25367326834790       -1.45202005074032