197
 energy: -391.721897567302 gnorm: 0.000489363768 xtb: 6.5.1 (b24c23e)
Co          30.78488441345188        0.00635287868717        0.03003886582275
C           27.41240986159536        0.04200333276781        0.09101736296718
C           28.07369034214540        1.22346759416305       -0.16766235680782
C           27.41224880917014        2.46731607255549       -0.41972915646389
C           28.37510931914579        3.41756268844801       -0.45954700140242
C           29.62457324675870        2.75326649254649       -0.22628672954991
N           29.43246960677605        1.40105780468337       -0.09719799890845
C           30.81719169794794        3.41586374164899        0.03250569852921
C           30.82766129190263        4.90000881619705        0.02722016829844
C           30.59798480139424        5.59552971498317       -1.15918228110677
C           30.60908884020487        6.98572044103481       -1.16387574771406
O           30.39407836886999        7.67333284863547       -2.31168397747708
C           30.84279384080553        7.68321516714783        0.02241671258696
O           30.84418506268637        9.05309874318102       -0.01223871628509
C           31.06702506137768        6.98709656848421        1.20732745915571
O           31.28385950272676        7.74011921278776        2.33122575510490
C           31.06377507670148        5.59753492478735        1.21423096024401
C           31.98972220240303        2.73414281765286        0.31976606444818
C           33.23730927243047        3.37199044130452        0.61617389776856
C           34.17633674087701        2.39674684449901        0.65750925257435
N           32.16232221959362        1.37217873876056        0.21194444303607
C           33.50395415909495        1.16934008692561        0.37038280766568
C           34.17681620397072       -0.02940165093718        0.11645430589155
C           33.49407789671952       -1.20692287107890       -0.20177431821409
C           34.14891525355979       -2.42689249579824       -0.55363153724562
C           33.18390691460683       -3.37336933947179       -0.64287898921160
C           31.94424409668012       -2.73060782916344       -0.32402778192755
N           32.14247429749798       -1.38300208747549       -0.11918476855153
C           30.74715984577993       -3.40133598252452       -0.12868815027384
C           30.72211103465914       -4.88005830426116       -0.22094627660391
C           31.51486709128245       -5.65124926651441        0.62941649997264
C           31.48476554139561       -7.03812018138163        0.54306805828594
O           32.24348157025811       -7.79724904930221        1.37059835146267
C           30.66754263643122       -7.65839370027425       -0.40352521845045
O           30.66275736416980       -9.02679060263255       -0.46957108280741
C           29.87909826491221       -6.88800711823071       -1.25465410265147
O           29.10685619519676       -7.56763695963316       -2.15979999659560
C           29.89826522687662       -5.50206504488756       -1.16328262584994
C           29.56834956960932       -2.72562996118703        0.16322376782669
C           28.32379379629663       -3.37029098921081        0.46401770481145
C           27.38589471466730       -2.39635991863170        0.53806008754806
C           28.05933872644720       -1.15931876295332        0.28497488735745
N           29.40597558582994       -1.36559422690976        0.11614769646593
H           26.32947059998398        0.05581865610908        0.12907993480446
H           26.34582719696604        2.57982333150558       -0.53421059255396
H           28.26116717114549        4.47914758398935       -0.60717901966309
H           30.42779240534020        5.06384039697795       -2.08638360885856
H           30.44204297318311        8.62286520727470       -2.11198196245623
H           31.02002603619846        9.37458106093225        0.88637737518083
H           31.42653851716462        7.17499057224697        3.10175320947627
H           31.22467169725223        5.06181847953059        2.14232643233078
H           33.37114159508194        4.43263354795088        0.75316806952426
H           35.23520623223290        2.48689264430889        0.83912825314444
H           35.21113131619562       -2.52927329950881       -0.70685094303067
H           33.29101859722743       -4.41575850272289       -0.89479400450913
H           32.14171437219854       -5.18113022468998        1.37604492302588
H           32.08471697078665       -8.73196040477447        1.15899560364544
H           30.04796537619960       -9.28992433596546       -1.17282532645616
H           28.60180933919213       -6.95442737474310       -2.70971585226578
H           29.29104064730249       -4.90826419357616       -1.83637764947188
H           28.19831558146655       -4.43224327817519        0.60071498281065
H           26.32933299478881       -2.48814694178813        0.73384765552053
Co          62.67210204824463       -0.05072383551788        0.07082429911525
C           66.04385584067882       -0.09571471253355        0.15620577210779
C           65.38571683070121       -1.23983123779567       -0.24126702866344
C           66.05003533963172       -2.44650893327610       -0.62945270647810
C           65.08721255455822       -3.38288556500865       -0.79648344618191
C           63.83511020919146       -2.74847803061791       -0.50225851161293
N           64.02610119471692       -1.42186562836207       -0.20986080510718
C           62.63958525234094       -3.43582835120947       -0.33941877519302
C           62.62896843617339       -4.90796860965199       -0.52841343346078
C           62.86439767403112       -5.45108446602948       -1.79077294579054
C           62.85246821418054       -6.82994615378169       -1.96801564246217
O           63.07255613180674       -7.37005048061285       -3.19118992455752
C           62.61289933729142       -7.66896366461558       -0.87846052866831
O           62.61105076058646       -9.02398773361605       -1.08272363548584
C           62.38379595248474       -7.12502836655418        0.38267975942683
O           62.16210820406238       -8.01144135028827        1.40369159323025
C           62.38728780653627       -5.74705746580043        0.56189870546001
C           61.46559558487370       -2.79368106757356        0.02302358156153
C           60.21761719856442       -3.46267824030131        0.23764230180061
C           59.28012915627517       -2.49962288439083        0.40542217390513
N           61.29427773677956       -1.42883828665032        0.08683577147816
C           59.95332985938030       -1.24638792575398        0.27351103727761
C           59.28040406767704       -0.02537182620482        0.17098453591528
C           59.96213378632324        1.18095558366824       -0.01442540103283
C           59.30589730440475        2.43164171754095       -0.22863764652118
C           60.27130010498492        3.38186938567412       -0.22499372472905
C           61.51238437804373        2.70874632512549        0.01648570151612
N           61.31421494114448        1.34679740924883        0.07747988368065
C           62.71000420349605        3.35469852189341        0.27989866007597
C           62.73671802262075        4.83468507817963        0.34424437528770
C           61.93940147133613        5.51358425973108        1.26611565515881
C           61.97110995714347        6.90180274388138        1.32615926855486
O           61.20738015697739        7.57052895448728        2.22385141327626
C           62.79538302254277        7.61694216318256        0.45558044518919
O           62.80195048160564        8.98443492568490        0.53410289769739
C           63.58905591687756        6.93895296022204       -0.46644012195586
O           64.36856699117192        7.70866956186426       -1.28936859602411
C           63.56766570341781        5.55115408537208       -0.52179508623931
C           63.88781690168572        2.65091770129819        0.50249505682801
C           65.13008348602420        3.25881656146155        0.87931818226337
C           66.06674099297713        2.28103582617382        0.85970522240289
C           65.39508591431948        1.07848684955709        0.47182205723722
N           64.05008587127685        1.30341202338676        0.31337428122260
H           67.12631366109377       -0.11492686113100        0.20445596300794
H           67.11790295942748       -2.54689743247899       -0.74171284071992
H           65.20226000123479       -4.41954445993913       -1.06827896946469
H           63.03973488843436       -4.80854283527021       -2.64385643578642
H           63.02160277156541       -8.33691767610821       -3.11150234667575
H           62.43018858840765       -9.45413920851158       -0.23183057984840
H           62.01650884129169       -7.54597454807932        2.23768609438734
H           62.22230726297189       -5.33043372821407        1.54853470607192
H           60.08271734962993       -4.53199040054233        0.23900223268162
H           58.22153737307680       -2.61093041055062        0.57651228380738
H           58.24276019863965        2.54998434219573       -0.36274894052893
H           60.16330348621145        4.44491287901295       -0.36535879452109
H           61.30774548570243        4.96876490061136        1.95574318808010
H           61.36631457307929        8.52230329886442        2.11168383185746
H           63.42061216524645        9.31970006824511       -0.13423831018033
H           64.87696629784045        7.15602939254421       -1.89731652392682
H           64.17866856467862        5.03052177225540       -1.24978691835758
H           65.25491762235602        4.30032593912220        1.12795791403860
H           67.12156270429297        2.35031993474509        1.07329042124180
C           39.37469037103109       -0.05098382269071        0.19291539137284
C           38.14493603316846       -0.05515950949688        0.18950453993558
C           36.80262806547412       -0.05189951396833        0.17650384527569
C           35.57793327196076       -0.04292639875732        0.15094052972600
C           40.71670760939254       -0.04504512964370        0.18497486268495
C           41.94195485477752       -0.03777751428415        0.17034638232440
C           55.31298547102508       -0.00372406130579        0.26416231897725
C           54.08313295674920       -0.00247910757028        0.26286423657158
C           52.74133261016127       -0.00527114021436        0.24464048098865
C           51.51622578059344       -0.01112570243713        0.21882013452172
C           56.65513528346149       -0.00774038287698        0.24901539379931
C           57.87967054379272       -0.01466776130772        0.21497524078557
Co          46.72996380029443       -0.01397675502116        0.04824085566782
C           43.34138682040962       -0.02978453652735        0.13863065031752
C           44.02894209513916        1.13103419450995        0.51025602950695
C           43.38844261429639        2.32724205749416        0.95437385088485
C           44.33832739634342        3.29560414572185        0.96266111343200
C           45.55421512464373        2.68504953079625        0.51880431025130
N           45.36570084175421        1.33813846821759        0.31776304681374
C           46.72059772050019        3.37750444531671        0.21401854650311
C           46.70504658559523        4.85561750792386        0.24639998030555
C           47.60571700736178        5.55685817024885        1.05026241407504
C           47.59740523199404        6.94801396344671        1.09074268828831
O           48.46026893500549        7.64099908747020        1.87773832578363
C           46.68311092728371        7.65968909770445        0.30633695308930
O           46.65546289717230        9.01646656794667        0.31780660627265
C           45.78679609479325        6.95085672980325       -0.49895003469780
O           44.92176241164326        7.70837889321911       -1.24495980166274
C           45.78479785458921        5.56399997975764       -0.53021376884264
C           47.89937293328708        2.71679134327019       -0.10876866676445
C           49.12845386469491        3.36319256478474       -0.45548233286888
C           50.09048396330351        2.40671578621420       -0.44213993411318
N           48.09610598946431        1.36183763637085        0.02686015568389
C           49.44141807330686        1.17916042065982       -0.11189871626259
C           50.11723381752032       -0.01357884993878        0.17413138047630
C           49.42677758802752       -1.21216715583513        0.38368105622090
C           50.06439536767063       -2.45780356470190        0.66932653489100
C           49.11549142922934       -3.41774247164606        0.54011057928935
C           47.90258553878064       -2.75232047261062        0.17236086159242
N           48.09162059841236       -1.39055409591186        0.15498059464707
C           46.74025261390220       -3.39667261269495       -0.23304895963934
C           46.75547558443258       -4.86802139551483       -0.39591423209956
C           47.67440450126872       -5.46065032090934       -1.26376490511939
C           47.67956574744831       -6.83995846825985       -1.43269407256442
O           48.55289601243437       -7.42540871507692       -2.28494427304613
C           46.77035158305338       -7.62971881587376       -0.72541159920702
O           46.81178910766842       -9.00178265815925       -0.92069094794376
C           45.88006938095941       -7.04300298183189        0.17216542844820
O           45.01494187136174       -7.81316972663331        0.89254219491521
C           45.85952851298507       -5.66111169554015        0.32248007418847
C           45.56417567492925       -2.69961766092510       -0.47798221096643
C           44.33810702151274       -3.29655419855013       -0.91346490177092
C           43.37531717962675       -2.34993567728376       -0.78481355057827
C           44.02074759608202       -1.17470807841769       -0.29447944009699
N           45.36533607424082       -1.37360838207838       -0.17016405854250
H           42.34379751683097        2.40459701268791        1.20950777269146
H           44.23392385986268        4.33086839818676        1.24398109067577
H           48.30736706318218        5.01589526124007        1.67509400446745
H           49.03929380231382        7.04534552024129        2.37122890447279
H           45.95724946811080        9.31176735001637       -0.28882313174220
H           44.34050460276520        7.14745193246143       -1.77482185096573
H           45.08986593278106        5.03828163569233       -1.17436754611967
H           49.23441381624418        4.41285696865663       -0.67605217992828
H           51.14626280353514        2.50965036864364       -0.63467662376955
H           51.10732764695497       -2.56899374190785        0.91869000207823
H           49.21838433522849       -4.48173463022597        0.67762633562639
H           48.36740077356654       -4.85497153182169       -1.83319052361217
H           48.40383946025058       -8.38562135755019       -2.26437871021272
H           45.91926548673455       -9.36864853108370       -0.96755411742968
H           45.31410627304642       -8.73327115613193        0.90548720893209
H           45.16578657388678       -5.21713101725144        1.02454750557728
H           44.23474649645683       -4.31042385657303       -1.26413807502684
H           42.32083127404103       -2.42755022397303       -0.99539836794078
