      -----------------------------------------------------------      
     |                   =====================                   |     
     |                           x T B                           |     
     |                   =====================                   |     
     |                         S. Grimme                         |     
     |          Mulliken Center for Theoretical Chemistry        |     
     |                    University of Bonn                     |     
      -----------------------------------------------------------      

   * xtb version 6.5.1 (b24c23e) compiled by 'conda@728c89f4b128' on 2022-07-12

   xtb is free software: you can redistribute it and/or modify it under
   the terms of the GNU Lesser General Public License as published by
   the Free Software Foundation, either version 3 of the License, or
   (at your option) any later version.
   
   xtb is distributed in the hope that it will be useful,
   but WITHOUT ANY WARRANTY; without even the implied warranty of
   MERCHANTABILITY or FITNESS FOR A PARTICULAR PURPOSE.  See the
   GNU Lesser General Public License for more details.
   
   Cite this work as:
   * C. Bannwarth, E. Caldeweyher, S. Ehlert, A. Hansen, P. Pracht,
     J. Seibert, S. Spicher, S. Grimme, WIREs Comput. Mol. Sci., 2020, 11,
     e01493. DOI: 10.1002/wcms.1493
   
   for GFN2-xTB:
   * C. Bannwarth, S. Ehlert and S. Grimme., J. Chem. Theory Comput., 2019,
     15, 1652-1671. DOI: 10.1021/acs.jctc.8b01176
   for GFN1-xTB:
   * S. Grimme, C. Bannwarth, P. Shushkov, J. Chem. Theory Comput., 2017,
     13, 1989-2009. DOI: 10.1021/acs.jctc.7b00118
   for GFN0-xTB:
   * P. Pracht, E. Caldeweyher, S. Ehlert, S. Grimme, ChemRxiv, 2019, preprint.
     DOI: 10.26434/chemrxiv.8326202.v1
   for GFN-FF:
   * S. Spicher and S. Grimme, Angew. Chem. Int. Ed., 2020, 59, 15665-15673.
     DOI: 10.1002/anie.202004239
   
   for ALPB and GBSA implicit solvation:
   * S. Ehlert, M. Stahn, S. Spicher, S. Grimme, J. Chem. Theory Comput.,
     2021, 17, 4250-4261. DOI: 10.1021/acs.jctc.1c00471
   
   for DFT-D4:
   * E. Caldeweyher, C. Bannwarth and S. Grimme, J. Chem. Phys., 2017,
     147, 034112. DOI: 10.1063/1.4993215
   * E. Caldeweyher, S. Ehlert, A. Hansen, H. Neugebauer, S. Spicher,
     C. Bannwarth and S. Grimme, J. Chem. Phys., 2019, 150, 154122.
     DOI: 10.1063/1.5090222
   * E. Caldeweyher, J.-M. Mewes, S. Ehlert and S. Grimme, Phys. Chem. Chem. Phys.
     2020, 22, 8499-8512. DOI: 10.1039/D0CP00502A
   
   for sTDA-xTB:
   * S. Grimme and C. Bannwarth, J. Chem. Phys., 2016, 145, 054103.
     DOI: 10.1063/1.4959605
   
   in the mass-spec context:
   * V. Asgeirsson, C. Bauer and S. Grimme, Chem. Sci., 2017, 8, 4879.
     DOI: 10.1039/c7sc00601b
   * J. Koopman and S. Grimme, ACS Omega 2019, 4, 12, 15120-15133.
     DOI: 10.1021/acsomega.9b02011
   
   for metadynamics refer to:
   * S. Grimme, J. Chem. Theory Comput., 2019, 155, 2847-2862
     DOI: 10.1021/acs.jctc.9b00143
   
   for SPH calculations refer to:
   * S. Spicher and S. Grimme, J. Chem. Theory Comput., 2021, 17, 1701-1714
     DOI: 10.1021/acs.jctc.0c01306
   
   with help from (in alphabetical order)
   P. Atkinson, C. Bannwarth, F. Bohle, G. Brandenburg, E. Caldeweyher
   M. Checinski, S. Dohm, S. Ehlert, S. Ehrlich, I. Gerasimov, C. Hölzer
   A. Katbashev, J. Koopman, C. Lavigne, S. Lehtola, F. März, M. Müller,
   F. Musil, H. Neugebauer, J. Pisarek, C. Plett, P. Pracht, F. Pultar,
   J. Seibert, P. Shushkov, S. Spicher, M. Stahn, M. Steiner, T. Strunk,
   J. Stückrath, T. Rose, and J. Unsleber
   
 * started run on 2022/07/30 at 10:17:23.340     

           -------------------------------------------------
          |                Calculation Setup                |
           -------------------------------------------------

          program call               : xtb xtbopt.xyz --gfn 1 --vipea
          hostname                   : cx3-5-14.cx3.hpc.ic.ac.uk
          coordinate file            : xtbopt.xyz
          omp threads                :                     1

   ID    Z sym.   atoms
    1    6 C      1-5, 7-12, 14-18, 20-25, 27-32, 34-39, 62-66, 68-73, 75-79,
                  81-86, 88-93, 95-100, 123-139, 141-146, 148-152, 154-159,
                  161-166, 168-173
    2    7 N      6, 19, 26, 40, 67, 80, 87, 101, 140, 153, 160, 174
    3    8 O      13, 33, 74, 94, 147, 167
    4    1 H      41-61, 102-122, 175-194

           -------------------------------------------------
          |                 I P E A - x T B                 |
           -------------------------------------------------

        Reference                      10.1039/c7sc00601b
      * Hamiltonian:
        H0-scaling (s, p, d)           2.150000    2.300000    2.000000
        zeta-weighting                 0.000000
      * Dispersion:
        s8                             2.400000
        a1                             0.630000
        a2                             5.000000
        s9                             0.000000
      * Repulsion:
        kExp                           1.500000
        rExp                           1.000000
      * Coulomb:
        alpha                          1.000000
        third order                    atomic
        anisotropic                    false
      * Halogen bond correction:
        rad-scale                      1.300000
        damping                        0.440000


          ...................................................
          :                      SETUP                      :
          :.................................................:
          :  # basis functions                 784          :
          :  # atomic orbitals                 784          :
          :  # shells                          520          :
          :  # electrons                       614          :
          :  # halogen bonds                     0          :
          :  max. iterations                   250          :
          :  Hamiltonian                  GFN1-xTB          :
          :  restarted?                      false          :
          :  GBSA solvation                  false          :
          :  PC potential                    false          :
          :  electronic temp.          300.0000000     K    :
          :  accuracy                    1.0000000          :
          :  -> integral cutoff          0.2500000E+02      :
          :  -> integral neglect         0.1000000E-07      :
          :  -> SCF convergence          0.1000000E-05 Eh   :
          :  -> wf. convergence          0.2000000E-04 e    :
          :  Broyden damping             0.4000000          :
          ...................................................

 iter      E             dE          RMSdq      gap      omega  full diag
   1   -389.3355227 -0.389336E+03  0.101E+01    0.95       0.0  T
   2   -389.6832753 -0.347753E+00  0.626E+00    1.38       1.0  T
   3   -383.1231946  0.656008E+01  0.477E+00    0.54       1.0  T
   4   -390.7168099 -0.759362E+01  0.936E-01    1.33       1.0  T
   5   -391.1043526 -0.387543E+00  0.276E-01    1.28       1.0  T
   6   -391.1333602 -0.290075E-01  0.127E-01    1.30       1.0  T
   7   -391.1385553 -0.519510E-02  0.539E-02    1.29       1.0  T
   8   -391.1392607 -0.705394E-03  0.328E-02    1.28       1.0  T
   9   -391.1394027 -0.142073E-03  0.227E-02    1.28       1.0  T
  10   -391.1395517 -0.148917E-03  0.573E-03    1.29       1.3  T
  11   -391.1395628 -0.111604E-04  0.206E-03    1.29       3.5  T
  12   -391.1395640 -0.119272E-05  0.965E-04    1.29       7.4  T
  13   -391.1395643 -0.296961E-06  0.417E-04    1.29      17.2  T
  14   -391.1395644 -0.559647E-07  0.157E-04    1.29      45.6  T
  15   -391.1395644 -0.762287E-08  0.730E-05    1.29      98.4  T

   *** convergence criteria satisfied after 15 iterations ***

         #    Occupation            Energy/Eh            Energy/eV
      -------------------------------------------------------------
         1        2.0000           -1.0524442             -28.6385
       ...           ...                  ...                  ...
       301        2.0000           -0.4131799             -11.2432
       302        2.0000           -0.4001689             -10.8892
       303        2.0000           -0.3990437             -10.8585
       304        2.0000           -0.3984168             -10.8415
       305        2.0000           -0.3846985             -10.4682
       306        2.0000           -0.3807387             -10.3604
       307        2.0000           -0.3750354             -10.2052 (HOMO)
       308                         -0.3277969              -8.9198 (LUMO)
       309                         -0.3198141              -8.7026
       310                         -0.3177897              -8.6475
       311                         -0.3161896              -8.6040
       312                         -0.3152769              -8.5791
       ...                                ...                  ...
       784                        538.5666984           14655.1458
      -------------------------------------------------------------
                  HL-Gap            0.0472385 Eh            1.2854 eV
             Fermi-level           -0.3514145 Eh           -9.5625 eV

 SCC (total)                   0 d,  0 h,  0 min,  3.690 sec
 SCC setup                      ...        0 min,  0.004 sec (  0.116%)
 Dispersion                     ...        0 min,  0.006 sec (  0.160%)
 classical contributions        ...        0 min,  0.002 sec (  0.056%)
 integral evaluation            ...        0 min,  0.419 sec ( 11.365%)
 iterations                     ...        0 min,  2.307 sec ( 62.521%)
 molecular gradient             ...        0 min,  0.911 sec ( 24.704%)
 printout                       ...        0 min,  0.040 sec (  1.077%)

         :::::::::::::::::::::::::::::::::::::::::::::::::::::
         ::                     SUMMARY                     ::
         :::::::::::::::::::::::::::::::::::::::::::::::::::::
         :: total energy            -383.335896386896 Eh    ::
         :: gradient norm              0.072654446848 Eh/a0 ::
         :: HOMO-LUMO gap              1.285424690399 eV    ::
         ::.................................................::
         :: SCC energy              -391.139564367325 Eh    ::
         :: -> electrostatic           0.279799621524 Eh    ::
         :: repulsion energy           7.967523278898 Eh    ::
         :: dispersion energy         -0.163855298469 Eh    ::
         :: halogen bond corr.         0.000000000000 Eh    ::
         :: add. restraining           0.000000000000 Eh    ::
         :: total charge               0.000000000000 e     ::
         :::::::::::::::::::::::::::::::::::::::::::::::::::::

           ------------------------------------------------- 
          |        vertical delta SCC IP calculation        |
           ------------------------------------------------- 
   1   -390.7276102 -0.390728E+03  0.116E-01    1.29       0.0  T
   2   -390.7203660  0.724420E-02  0.144E-01    1.14       1.0  T
   3   -390.7256577 -0.529173E-02  0.107E-01    1.24       1.0  T
   4   -390.7314458 -0.578809E-02  0.819E-02    1.27       1.0  T
   5   -390.7372277 -0.578185E-02  0.313E-02    1.27       1.0  T
   6   -390.7374800 -0.252317E-03  0.175E-02    1.26       1.0  T
   7   -390.7375360 -0.559872E-04  0.117E-02    1.27       1.0  T
   8   -390.7375799 -0.439083E-04  0.543E-03    1.26       1.3  T
   9   -390.7375904 -0.105086E-04  0.183E-03    1.26       3.9  T
  10   -390.7375910 -0.553840E-06  0.152E-03    1.26       4.7  T
  11   -390.7375930 -0.206481E-05  0.356E-04    1.26      20.2  T
  12   -390.7375931 -0.530366E-07  0.183E-04    1.26      39.3  T
  13   -390.7375931 -0.105553E-07  0.893E-05    1.26      80.4  T
     SCC iter.                  ...        0 min,  1.979 sec
     gradient                   ...        0 min,  0.961 sec
------------------------------------------------------------------------
empirical IP shift (eV):    4.8455
delta SCC IP (eV):    6.0927
------------------------------------------------------------------------
           ------------------------------------------------- 
          |        vertical delta SCC EA calculation        |
           ------------------------------------------------- 
   1   -391.4016539 -0.391402E+03  0.215E-01    0.31       0.0  T
   2   -391.4003363  0.131754E-02  0.226E-01    0.04       1.0  T
   3   -391.4271596 -0.268233E-01  0.120E-01    0.12       1.0  T
   4   -391.4198672  0.729246E-02  0.128E-01    0.10       1.0  T
   5   -391.4342026 -0.143354E-01  0.803E-02    0.15       1.0  T
   6   -391.4391019 -0.489930E-02  0.409E-02    0.08       1.0  T
   7   -391.4394369 -0.334963E-03  0.227E-02    0.09       1.0  T
   8   -391.4396374 -0.200488E-03  0.113E-02    0.09       1.0  T
   9   -391.4396396 -0.218826E-05  0.834E-03    0.09       1.0  T
  10   -391.4397081 -0.685621E-04  0.525E-03    0.09       1.4  T
  11   -391.4397520 -0.438788E-04  0.169E-03    0.09       4.2  T
  12   -391.4397530 -0.990681E-06  0.673E-04    0.09      10.7  T
  13   -391.4397533 -0.326102E-06  0.321E-04    0.09      22.4  T
  14   -391.4397533  0.119385E-07  0.193E-04    0.09      37.2  T
  15   -391.4397533 -0.427403E-07  0.755E-05    0.09      95.0  T
     SCC iter.                  ...        0 min,  2.287 sec
     gradient                   ...        0 min,  0.901 sec
------------------------------------------------------------------------
empirical EA shift (eV):    4.8455
delta SCC EA (eV):    3.3231
------------------------------------------------------------------------
           -------------------------------------------------
          |                Property Printout                |
           -------------------------------------------------

    * Orbital Energies and Occupations

         #    Occupation            Energy/Eh            Energy/eV
      -------------------------------------------------------------
         1        2.0000           -1.0020102             -27.2661
       ...           ...                  ...                  ...
       296        2.0000           -0.3774892             -10.2720
       297        2.0000           -0.3744940             -10.1905
       298        2.0000           -0.3728807             -10.1466
       299        2.0000           -0.3665246              -9.9736
       300        2.0000           -0.3642625              -9.9121
       301        2.0000           -0.3577692              -9.7354
       302        2.0000           -0.3498345              -9.5195
       303        2.0000           -0.3492986              -9.5049
       304        2.0000           -0.3447125              -9.3801
       305        2.0000           -0.3327892              -9.0557
       306        2.0000           -0.3303427              -8.9891
       307        2.0000           -0.3208937              -8.7320
       308        0.8293           -0.2737678              -7.4496 (HOMO)
       309        0.1315           -0.2704726              -7.3599 (LUMO)
       310        0.0341           -0.2690878              -7.3223
       311        0.0048           -0.2671899              -7.2706
       312        0.0003           -0.2645395              -7.1985
       313        0.0000           -0.2620919              -7.1319
       314                         -0.2507602              -6.8235
       315                         -0.2506870              -6.8215
       316                         -0.2475253              -6.7355
       317                         -0.2440805              -6.6418
       318                         -0.2439771              -6.6390
       319                         -0.2408464              -6.5538
       ...                                ...                  ...
       784                        538.6181551           14656.5460
      -------------------------------------------------------------
                  HL-Gap            0.0032952 Eh            0.0897 eV
             Fermi-level           -0.2848069 Eh           -7.7500 eV

  Mulliken/CM5 charges         n(s)   n(p)   n(d)
     1C    -0.02707 -0.06791   1.085  2.942  0.000
     2C     0.05998  0.12035   1.104  2.836  0.000
     3C    -0.03872 -0.08405   1.079  2.960  0.000
     4C    -0.03644 -0.08143   1.073  2.963  0.000
     5C     0.06006  0.12405   1.098  2.842  0.000
     6N    -0.16030 -0.51330   1.312  3.848  0.000
     7C     0.00541  0.01116   1.087  2.907  0.000
     8C     0.01639  0.00778   1.096  2.888  0.000
     9C    -0.01684 -0.07014   1.080  2.937  0.000
    10C    -0.01093 -0.06273   1.092  2.919  0.000
    11C    -0.00977 -0.01823   1.099  2.911  0.000
    12C     0.14342  0.13326   1.201  2.655  0.000
    13O    -0.30207 -0.35749   1.651  4.651  0.000
    14C    -0.01751 -0.07063   1.085  2.932  0.000
    15C    -0.01970 -0.07297   1.075  2.944  0.000
    16C     0.05771  0.12588   1.116  2.826  0.000
    17C    -0.03915 -0.08522   1.083  2.956  0.000
    18C    -0.03866 -0.08413   1.090  2.948  0.000
    19N    -0.28759 -0.47433   1.292  3.995  0.000
    20C     0.06383  0.13457   1.130  2.806  0.000
    21C     0.01404  0.02124   1.082  2.904  0.000
    22C     0.06435  0.12922   1.108  2.828  0.000
    23C    -0.03614 -0.08058   1.078  2.958  0.000
    24C    -0.03624 -0.08124   1.072  2.964  0.000
    25C     0.05952  0.12296   1.096  2.844  0.000
    26N    -0.15770 -0.50998   1.314  3.843  0.000
    27C     0.00384  0.00965   1.086  2.910  0.000
    28C     0.01590  0.00731   1.095  2.889  0.000
    29C    -0.01832 -0.07149   1.078  2.940  0.000
    30C    -0.01181 -0.06359   1.092  2.920  0.000
    31C    -0.01035 -0.01880   1.098  2.912  0.000
    32C     0.14270  0.13254   1.201  2.656  0.000
    33O    -0.30346 -0.35890   1.651  4.652  0.000
    34C    -0.01744 -0.07057   1.085  2.932  0.000
    35C    -0.01903 -0.07243   1.077  2.942  0.000
    36C     0.05896  0.12839   1.119  2.822  0.000
    37C    -0.03985 -0.08589   1.085  2.955  0.000
    38C    -0.04149 -0.08789   1.091  2.950  0.000
    39C     0.05739  0.12306   1.125  2.818  0.000
    40N    -0.29129 -0.47835   1.291  4.000  0.000
    41H     0.02440  0.08344   0.976  0.000  0.000
    42H     0.03528  0.09197   0.965  0.000  0.000
    43H     0.02676  0.08547   0.973  0.000  0.000
    44H     0.16287  0.37121   0.837  0.000  0.000
    45H     0.02969  0.08769   0.970  0.000  0.000
    46H     0.03882  0.09901   0.961  0.000  0.000
    47H     0.03648  0.09818   0.964  0.000  0.000
    48H     0.03984  0.09650   0.960  0.000  0.000
    49H     0.02814  0.08607   0.972  0.000  0.000
    50H     0.01962  0.07843   0.980  0.000  0.000
    51H     0.02386  0.08196   0.976  0.000  0.000
    52H     0.03224  0.09035   0.968  0.000  0.000
    53H     0.02788  0.08666   0.972  0.000  0.000
    54H     0.16122  0.36952   0.839  0.000  0.000
    55H     0.02962  0.08759   0.970  0.000  0.000
    56H     0.03791  0.09812   0.962  0.000  0.000
    57H     0.03590  0.09761   0.964  0.000  0.000
    58H     0.03953  0.09619   0.960  0.000  0.000
    59H     0.02723  0.08516   0.973  0.000  0.000
    60H     0.01805  0.07674   0.982  0.000  0.000
    61H     0.02623  0.08267   0.974  0.000  0.000
    62C    -0.02621 -0.06705   1.085  2.941  0.000
    63C     0.05992  0.12029   1.104  2.836  0.000
    64C    -0.03838 -0.08371   1.079  2.959  0.000
    65C    -0.03639 -0.08138   1.073  2.963  0.000
    66C     0.06051  0.12450   1.099  2.841  0.000
    67N    -0.16006 -0.51304   1.312  3.848  0.000
    68C     0.00519  0.01094   1.087  2.908  0.000
    69C     0.01617  0.00756   1.095  2.888  0.000
    70C    -0.01692 -0.07023   1.080  2.937  0.000
    71C    -0.01092 -0.06272   1.092  2.919  0.000
    72C    -0.00983 -0.01829   1.099  2.911  0.000
    73C     0.14326  0.13311   1.201  2.655  0.000
    74O    -0.30218 -0.35759   1.651  4.651  0.000
    75C    -0.01761 -0.07073   1.085  2.932  0.000
    76C    -0.01984 -0.07311   1.075  2.945  0.000
    77C     0.05831  0.12648   1.117  2.825  0.000
    78C    -0.03889 -0.08496   1.084  2.955  0.000
    79C    -0.03819 -0.08366   1.091  2.948  0.000
    80N    -0.28753 -0.47423   1.292  3.995  0.000
    81C     0.06389  0.13461   1.130  2.807  0.000
    82C     0.01480  0.02199   1.083  2.903  0.000
    83C     0.06450  0.12936   1.108  2.828  0.000
    84C    -0.03554 -0.07999   1.078  2.957  0.000
    85C    -0.03593 -0.08093   1.072  2.964  0.000
    86C     0.06007  0.12350   1.097  2.843  0.000
    87N    -0.15764 -0.50989   1.314  3.843  0.000
    88C     0.00378  0.00959   1.086  2.910  0.000
    89C     0.01584  0.00724   1.095  2.889  0.000
    90C    -0.01837 -0.07154   1.078  2.940  0.000
    91C    -0.01175 -0.06354   1.092  2.920  0.000
    92C    -0.01027 -0.01872   1.098  2.912  0.000
    93C     0.14271  0.13254   1.201  2.656  0.000
    94O    -0.30340 -0.35883   1.651  4.652  0.000
    95C    -0.01740 -0.07053   1.085  2.932  0.000
    96C    -0.01902 -0.07240   1.077  2.942  0.000
    97C     0.05931  0.12875   1.120  2.821  0.000
    98C    -0.03978 -0.08581   1.085  2.955  0.000
    99C    -0.04125 -0.08765   1.091  2.950  0.000
   100C     0.05737  0.12304   1.125  2.818  0.000
   101N    -0.29093 -0.47800   1.291  4.000  0.000
   102H     0.02485  0.08389   0.975  0.000  0.000
   103H     0.03557  0.09226   0.964  0.000  0.000
   104H     0.02701  0.08572   0.973  0.000  0.000
   105H     0.16303  0.37136   0.837  0.000  0.000
   106H     0.02980  0.08779   0.970  0.000  0.000
   107H     0.03894  0.09914   0.961  0.000  0.000
   108H     0.03632  0.09801   0.964  0.000  0.000
   109H     0.03976  0.09642   0.960  0.000  0.000
   110H     0.02801  0.08594   0.972  0.000  0.000
   111H     0.02002  0.07885   0.980  0.000  0.000
   112H     0.02428  0.08240   0.976  0.000  0.000
   113H     0.03277  0.09088   0.967  0.000  0.000
   114H     0.02836  0.08715   0.972  0.000  0.000
   115H     0.16142  0.36971   0.839  0.000  0.000
   116H     0.02963  0.08758   0.970  0.000  0.000
   117H     0.03802  0.09823   0.962  0.000  0.000
   118H     0.03602  0.09773   0.964  0.000  0.000
   119H     0.03965  0.09631   0.960  0.000  0.000
   120H     0.02738  0.08531   0.973  0.000  0.000
   121H     0.01827  0.07697   0.982  0.000  0.000
   122H     0.02650  0.08294   0.973  0.000  0.000
   123C    -0.01904 -0.01914   1.077  2.942  0.000
   124C    -0.02137 -0.02147   1.075  2.947  0.000
   125C    -0.02316 -0.02393   1.061  2.962  0.000
   126C    -0.02139 -0.02303   1.090  2.931  0.000
   127C    -0.02552 -0.02627   1.060  2.966  0.000
   128C    -0.01931 -0.02090   1.093  2.926  0.000
   129C    -0.02077 -0.02088   1.075  2.946  0.000
   130C    -0.01793 -0.01803   1.077  2.941  0.000
   131C    -0.02510 -0.02584   1.060  2.966  0.000
   132C    -0.01837 -0.01996   1.094  2.925  0.000
   133C    -0.02220 -0.02297   1.062  2.961  0.000
   134C    -0.02084 -0.02248   1.091  2.930  0.000
   135C     0.01072  0.01797   1.079  2.910  0.000
   136C     0.06468  0.12956   1.109  2.826  0.000
   137C    -0.03776 -0.08221   1.077  2.961  0.000
   138C    -0.03637 -0.08130   1.073  2.964  0.000
   139C     0.05799  0.12147   1.094  2.848  0.000
   140N    -0.15735 -0.50980   1.313  3.844  0.000
   141C     0.00819  0.01384   1.089  2.902  0.000
   142C     0.01745  0.00875   1.097  2.886  0.000
   143C    -0.01658 -0.06982   1.080  2.937  0.000
   144C    -0.01078 -0.06257   1.092  2.919  0.000
   145C    -0.00941 -0.01787   1.099  2.911  0.000
   146C     0.14399  0.13385   1.202  2.654  0.000
   147O    -0.30194 -0.35739   1.651  4.651  0.000
   148C    -0.01672 -0.06985   1.085  2.931  0.000
   149C    -0.01861 -0.07189   1.075  2.943  0.000
   150C     0.05659  0.12478   1.114  2.829  0.000
   151C    -0.03937 -0.08538   1.084  2.955  0.000
   152C    -0.04002 -0.08550   1.090  2.950  0.000
   153N    -0.28770 -0.47397   1.291  3.996  0.000
   154C     0.06362  0.13432   1.130  2.806  0.000
   155C     0.01069  0.01794   1.079  2.911  0.000
   156C     0.06497  0.12983   1.109  2.826  0.000
   157C    -0.03740 -0.08186   1.077  2.960  0.000
   158C    -0.03572 -0.08068   1.073  2.963  0.000
   159C     0.05812  0.12160   1.094  2.848  0.000
   160N    -0.15741 -0.50985   1.313  3.844  0.000
   161C     0.00841  0.01407   1.090  2.902  0.000
   162C     0.01740  0.00870   1.096  2.886  0.000
   163C    -0.01758 -0.07098   1.077  2.940  0.000
   164C    -0.01630 -0.06944   1.086  2.931  0.000
   165C    -0.00942 -0.01789   1.099  2.911  0.000
   166C     0.14394  0.13377   1.202  2.654  0.000
   167O    -0.30225 -0.35770   1.651  4.651  0.000
   168C    -0.01124 -0.06303   1.092  2.919  0.000
   169C    -0.01760 -0.07078   1.078  2.940  0.000
   170C     0.05638  0.12455   1.114  2.830  0.000
   171C    -0.03989 -0.08591   1.084  2.956  0.000
   172C    -0.04036 -0.08584   1.090  2.951  0.000
   173C     0.06346  0.13420   1.130  2.807  0.000
   174N    -0.28748 -0.47373   1.292  3.996  0.000
   175H     0.03058  0.08864   0.969  0.000  0.000
   176H     0.02655  0.08536   0.973  0.000  0.000
   177H     0.16174  0.36972   0.838  0.000  0.000
   178H     0.02973  0.08762   0.970  0.000  0.000
   179H     0.03833  0.09853   0.962  0.000  0.000
   180H     0.03697  0.09868   0.963  0.000  0.000
   181H     0.04055  0.09721   0.959  0.000  0.000
   182H     0.02928  0.08714   0.971  0.000  0.000
   183H     0.01863  0.07742   0.981  0.000  0.000
   184H     0.02216  0.08021   0.978  0.000  0.000
   185H     0.03100  0.08908   0.969  0.000  0.000
   186H     0.02726  0.08609   0.973  0.000  0.000
   187H     0.16171  0.36970   0.838  0.000  0.000
   188H     0.02896  0.08686   0.971  0.000  0.000
   189H     0.04087  0.09755   0.959  0.000  0.000
   190H     0.03721  0.09894   0.963  0.000  0.000
   191H     0.03802  0.09824   0.962  0.000  0.000
   192H     0.03004  0.08795   0.970  0.000  0.000
   193H     0.01795  0.07678   0.982  0.000  0.000
   194H     0.02186  0.07993   0.978  0.000  0.000

Wiberg/Mayer (AO) data.
largest (>0.10) Wiberg bond orders for each atom

 ---------------------------------------------------------------------------
     #   Z sym  total        # sym  WBO       # sym  WBO       # sym  WBO
 ---------------------------------------------------------------------------
     1   6 C    3.797 --    39 C    1.388     2 C    1.363    41 H    0.996
     2   6 C    3.919 --     1 C    1.363     3 C    1.245     6 N    1.230
     3   6 C    3.827 --     4 C    1.586     2 C    1.245    42 H    0.993
     4   6 C    3.814 --     3 C    1.586     5 C    1.257    43 H    0.999
     5   6 C    3.890 --     7 C    1.331     4 C    1.257     6 N    1.228
     6   7 N    3.244 --     2 C    1.230     5 C    1.228    44 H    0.961
     7   6 C    3.830 --    16 C    1.367     5 C    1.331     8 C    1.059
     8   6 C    3.898 --    15 C    1.413     9 C    1.408     7 C    1.059
     9   6 C    3.869 --    10 C    1.474     8 C    1.408    45 H    0.988
    10   6 C    3.891 --     9 C    1.474    11 C    1.387    46 H    0.988
    11   6 C    3.935 --    10 C    1.387    14 C    1.382    12 C    1.084
    12   6 C    4.000 --    13 O    1.937    11 C    1.084    47 H    0.955
    13   8 O    2.060 --    12 C    1.937
    14   6 C    3.888 --    15 C    1.470    11 C    1.382    48 H    0.982
    15   6 C    3.859 --    14 C    1.470     8 C    1.413    49 H    0.988
    16   6 C    3.921 --     7 C    1.367    19 N    1.353    17 C    1.160
    17   6 C    3.836 --    18 C    1.692    16 C    1.160    50 H    0.998
    18   6 C    3.848 --    17 C    1.692    20 C    1.165    51 H    0.999
    19   7 N    2.548 --    20 C    1.411    16 C    1.353
    20   6 C    3.940 --    19 N    1.411    21 C    1.289    18 C    1.165
    21   6 C    3.826 --    20 C    1.289    22 C    1.276   126 C    1.222
    22   6 C    3.894 --    21 C    1.276    23 C    1.275    26 N    1.248
    23   6 C    3.821 --    24 C    1.569    22 C    1.275    52 H    0.999
    24   6 C    3.803 --    23 C    1.569    25 C    1.266    53 H    0.998
    25   6 C    3.883 --    27 C    1.328    24 C    1.266    26 N    1.223
    26   7 N    3.257 --    22 C    1.248    25 C    1.223    54 H    0.960
    27   6 C    3.811 --    36 C    1.360    25 C    1.328    28 C    1.061
    28   6 C    3.896 --    35 C    1.412    29 C    1.406    27 C    1.061
    29   6 C    3.864 --    30 C    1.475    28 C    1.406    55 H    0.988
    30   6 C    3.890 --    29 C    1.475    31 C    1.386    56 H    0.988
    31   6 C    3.933 --    30 C    1.386    34 C    1.381    32 C    1.085
    32   6 C    3.998 --    33 O    1.934    31 C    1.085    57 H    0.955
    33   8 O    2.057 --    32 C    1.934
    34   6 C    3.887 --    35 C    1.471    31 C    1.381    58 H    0.983
    35   6 C    3.861 --    34 C    1.471    28 C    1.412    59 H    0.988
    36   6 C    3.943 --    40 N    1.377    27 C    1.360    37 C    1.152
    37   6 C    3.841 --    38 C    1.708    36 C    1.152    60 H    0.999
    38   6 C    3.861 --    37 C    1.708    39 C    1.146    61 H    0.994
    39   6 C    3.965 --     1 C    1.388    40 N    1.372    38 C    1.146
    40   7 N    2.530 --    36 C    1.377    39 C    1.372
    41   1 H    1.034 --     1 C    0.996
    42   1 H    1.017 --     3 C    0.993
    43   1 H    1.032 --     4 C    0.999
    44   1 H    1.083 --     6 N    0.961
    45   1 H    1.050 --     9 C    0.988
    46   1 H    1.043 --    10 C    0.988
    47   1 H    1.012 --    12 C    0.955
    48   1 H    1.022 --    14 C    0.982
    49   1 H    1.049 --    15 C    0.988
    50   1 H    1.036 --    17 C    0.998
    51   1 H    1.033 --    18 C    0.999
    52   1 H    1.030 --    23 C    0.999
    53   1 H    1.032 --    24 C    0.998
    54   1 H    1.087 --    26 N    0.960
    55   1 H    1.047 --    29 C    0.988
    56   1 H    1.043 --    30 C    0.988
    57   1 H    1.012 --    32 C    0.955
    58   1 H    1.023 --    34 C    0.983
    59   1 H    1.053 --    35 C    0.988
    60   1 H    1.036 --    37 C    0.999
    61   1 H    1.020 --    38 C    0.994
    62   6 C    3.800 --   100 C    1.389    63 C    1.363   102 H    0.996
    63   6 C    3.918 --    62 C    1.363    64 C    1.246    67 N    1.229
    64   6 C    3.828 --    65 C    1.586    63 C    1.246   103 H    0.993
    65   6 C    3.813 --    64 C    1.586    66 C    1.257   104 H    0.999
    66   6 C    3.890 --    68 C    1.331    65 C    1.257    67 N    1.229
    67   7 N    3.245 --    66 C    1.229    63 C    1.229   105 H    0.961
    68   6 C    3.827 --    77 C    1.367    66 C    1.331    69 C    1.059
    69   6 C    3.897 --    76 C    1.413    70 C    1.408    68 C    1.059
    70   6 C    3.868 --    71 C    1.475    69 C    1.408   106 H    0.988
    71   6 C    3.891 --    70 C    1.475    72 C    1.387   107 H    0.988
    72   6 C    3.934 --    71 C    1.387    75 C    1.382    73 C    1.084
    73   6 C    3.999 --    74 O    1.937    72 C    1.084   108 H    0.955
    74   8 O    2.059 --    73 C    1.937
    75   6 C    3.887 --    76 C    1.470    72 C    1.382   109 H    0.982
    76   6 C    3.859 --    75 C    1.470    69 C    1.413   110 H    0.988
    77   6 C    3.923 --    68 C    1.367    80 N    1.355    78 C    1.160
    78   6 C    3.836 --    79 C    1.694    77 C    1.160   111 H    0.998
    79   6 C    3.850 --    78 C    1.694    81 C    1.164   112 H    0.999
    80   7 N    2.548 --    81 C    1.408    77 C    1.355
    81   6 C    3.941 --    80 N    1.408    82 C    1.292    79 C    1.164
    82   6 C    3.830 --    81 C    1.292    83 C    1.279   134 C    1.217
    83   6 C    3.894 --    82 C    1.279    84 C    1.273    87 N    1.247
    84   6 C    3.823 --    85 C    1.571    83 C    1.273   113 H    0.998
    85   6 C    3.803 --    84 C    1.571    86 C    1.264   114 H    0.998
    86   6 C    3.884 --    88 C    1.330    85 C    1.264    87 N    1.224
    87   7 N    3.257 --    83 C    1.247    86 C    1.224   115 H    0.960
    88   6 C    3.810 --    97 C    1.358    86 C    1.330    89 C    1.060
    89   6 C    3.896 --    96 C    1.412    90 C    1.407    88 C    1.060
    90   6 C    3.864 --    91 C    1.475    89 C    1.407   116 H    0.988
    91   6 C    3.890 --    90 C    1.475    92 C    1.386   117 H    0.988
    92   6 C    3.933 --    91 C    1.386    95 C    1.381    93 C    1.085
    93   6 C    3.997 --    94 O    1.934    92 C    1.085   118 H    0.955
    94   8 O    2.057 --    93 C    1.934
    95   6 C    3.887 --    96 C    1.471    92 C    1.381   119 H    0.983
    96   6 C    3.861 --    95 C    1.471    89 C    1.412   120 H    0.988
    97   6 C    3.943 --   101 N    1.379    88 C    1.358    98 C    1.152
    98   6 C    3.840 --    99 C    1.708    97 C    1.152   121 H    0.999
    99   6 C    3.861 --    98 C    1.708   100 C    1.146   122 H    0.994
   100   6 C    3.965 --    62 C    1.389   101 N    1.370    99 C    1.146
   101   7 N    2.531 --    97 C    1.379   100 C    1.370
   102   1 H    1.034 --    62 C    0.996
   103   1 H    1.017 --    64 C    0.993
   104   1 H    1.032 --    65 C    0.999
   105   1 H    1.083 --    67 N    0.961
   106   1 H    1.050 --    70 C    0.988
   107   1 H    1.043 --    71 C    0.988
   108   1 H    1.012 --    73 C    0.955
   109   1 H    1.022 --    75 C    0.982
   110   1 H    1.049 --    76 C    0.988
   111   1 H    1.036 --    78 C    0.998
   112   1 H    1.033 --    79 C    0.999
   113   1 H    1.030 --    84 C    0.998
   114   1 H    1.032 --    85 C    0.998
   115   1 H    1.087 --    87 N    0.960
   116   1 H    1.047 --    90 C    0.988
   117   1 H    1.043 --    91 C    0.988
   118   1 H    1.012 --    93 C    0.955
   119   1 H    1.023 --    95 C    0.983
   120   1 H    1.052 --    96 C    0.988
   121   1 H    1.036 --    98 C    0.999
   122   1 H    1.020 --    99 C    0.994
   123   6 C    3.831 --   124 C    2.372   127 C    1.357   126 C    0.167
   124   6 C    3.829 --   123 C    2.372   125 C    1.355   128 C    0.167
   125   6 C    3.801 --   126 C    2.469   124 C    1.355
   126   6 C    3.763 --   125 C    2.469    21 C    1.222   123 C    0.167
   127   6 C    3.797 --   128 C    2.465   123 C    1.357
   128   6 C    3.764 --   127 C    2.465   135 C    1.225   124 C    0.167
   129   6 C    3.829 --   130 C    2.377   133 C    1.352   132 C    0.168
   130   6 C    3.831 --   129 C    2.377   131 C    1.353   134 C    0.168
   131   6 C    3.798 --   132 C    2.469   130 C    1.353
   132   6 C    3.765 --   131 C    2.469   155 C    1.222   129 C    0.168
   133   6 C    3.802 --   134 C    2.474   129 C    1.352
   134   6 C    3.763 --   133 C    2.474    82 C    1.217   130 C    0.168
   135   6 C    3.810 --   173 C    1.283   136 C    1.274   128 C    1.225
   136   6 C    3.900 --   137 C    1.276   135 C    1.274   140 N    1.251
   137   6 C    3.819 --   138 C    1.567   136 C    1.276   175 H    0.999
   138   6 C    3.812 --   137 C    1.567   139 C    1.269   176 H    0.999
   139   6 C    3.879 --   141 C    1.328   138 C    1.269   140 N    1.219
   140   7 N    3.248 --   136 C    1.251   139 C    1.219   177 H    0.962
   141   6 C    3.827 --   150 C    1.376   139 C    1.328   142 C    1.054
   142   6 C    3.900 --   149 C    1.416   143 C    1.411   141 C    1.054
   143   6 C    3.869 --   144 C    1.473   142 C    1.411   178 H    0.988
   144   6 C    3.893 --   143 C    1.473   145 C    1.388   179 H    0.988
   145   6 C    3.936 --   144 C    1.388   148 C    1.383   146 C    1.083
   146   6 C    4.001 --   147 O    1.939   145 C    1.083   180 H    0.955
   147   8 O    2.063 --   146 C    1.939
   148   6 C    3.888 --   149 C    1.468   145 C    1.383   181 H    0.982
   149   6 C    3.860 --   148 C    1.468   142 C    1.416   182 H    0.988
   150   6 C    3.922 --   141 C    1.376   153 N    1.347   151 C    1.160
   151   6 C    3.838 --   152 C    1.692   150 C    1.160   183 H    0.999
   152   6 C    3.846 --   151 C    1.692   154 C    1.166   184 H    1.000
   153   7 N    2.537 --   154 C    1.415   150 C    1.347
   154   6 C    3.943 --   153 N    1.415   155 C    1.284   152 C    1.166
   155   6 C    3.811 --   154 C    1.284   156 C    1.275   132 C    1.222
   156   6 C    3.901 --   155 C    1.275   157 C    1.275   160 N    1.251
   157   6 C    3.819 --   158 C    1.569   156 C    1.275   185 H    0.999
   158   6 C    3.813 --   157 C    1.569   159 C    1.268   186 H    0.999
   159   6 C    3.879 --   161 C    1.329   158 C    1.268   160 N    1.219
   160   7 N    3.247 --   156 C    1.251   159 C    1.219   187 H    0.962
   161   6 C    3.828 --   170 C    1.374   159 C    1.329   162 C    1.055
   162   6 C    3.900 --   163 C    1.415   169 C    1.410   161 C    1.055
   163   6 C    3.864 --   164 C    1.469   162 C    1.415   188 H    0.988
   164   6 C    3.889 --   163 C    1.469   165 C    1.383   189 H    0.982
   165   6 C    3.936 --   168 C    1.388   164 C    1.383   166 C    1.083
   166   6 C    4.001 --   167 O    1.938   165 C    1.083   190 H    0.955
   167   8 O    2.062 --   166 C    1.938
   168   6 C    3.892 --   169 C    1.473   165 C    1.388   191 H    0.988
   169   6 C    3.865 --   168 C    1.473   162 C    1.410   192 H    0.988
   170   6 C    3.921 --   161 C    1.374   174 N    1.347   171 C    1.161
   171   6 C    3.838 --   172 C    1.691   170 C    1.161   193 H    0.999
   172   6 C    3.845 --   171 C    1.691   173 C    1.167   194 H    1.000
   173   6 C    3.942 --   174 N    1.416   135 C    1.283   172 C    1.167
   174   7 N    2.538 --   173 C    1.416   170 C    1.347
   175   1 H    1.030 --   137 C    0.999
   176   1 H    1.032 --   138 C    0.999
   177   1 H    1.084 --   140 N    0.962
   178   1 H    1.050 --   143 C    0.988
   179   1 H    1.043 --   144 C    0.988
   180   1 H    1.012 --   146 C    0.955
   181   1 H    1.022 --   148 C    0.982
   182   1 H    1.049 --   149 C    0.988
   183   1 H    1.037 --   151 C    0.999
   184   1 H    1.034 --   152 C    1.000
   185   1 H    1.030 --   157 C    0.999
   186   1 H    1.032 --   158 C    0.999
   187   1 H    1.084 --   160 N    0.962
   188   1 H    1.052 --   163 C    0.988
   189   1 H    1.022 --   164 C    0.982
   190   1 H    1.012 --   166 C    0.955
   191   1 H    1.043 --   168 C    0.988
   192   1 H    1.047 --   169 C    0.988
   193   1 H    1.037 --   171 C    0.999
   194   1 H    1.034 --   172 C    1.000
 ---------------------------------------------------------------------------

Topologies differ in total number of bonds
Writing topology from bond orders to xtbtopo.mol

 dipole moment from electron density (au)
     X       Y       Z   
 -87.2930   0.0483   0.1219  total (Debye):  221.877


           -------------------------------------------------
          | TOTAL ENERGY             -383.636085367778 Eh   |
          | GRADIENT NORM               0.082025447141 Eh/α |
          | HOMO-LUMO GAP               0.089667117795 eV   |
           -------------------------------------------------
########################################################################
[WARNING] Runtime exception occurred
-1- restart_readRestart: Dimension missmatch in restart file.
########################################################################

------------------------------------------------------------------------
 * finished run on 2022/07/30 at 10:17:34.492     
------------------------------------------------------------------------
 total:
 * wall-time:     0 d,  0 h,  0 min, 11.151 sec
 *  cpu-time:     0 d,  0 h,  0 min, 11.115 sec
 * ratio c/w:     0.997 speedup
 SCF:
 * wall-time:     0 d,  0 h,  0 min, 10.750 sec
 *  cpu-time:     0 d,  0 h,  0 min, 10.719 sec
 * ratio c/w:     0.997 speedup

