194
 energy: -340.366260139496 gnorm: 0.000846990826 xtb: 6.5.1 (b24c23e)
C           26.54908261729835       -0.06661188071462       -0.13720631455051
C           27.16544885056420       -1.27928438390985       -0.41698485042886
C           26.52136325184815       -2.50320605923006       -0.75304801262550
C           27.48738972430737       -3.45328993577040       -0.92857666396183
C           28.75294301298334       -2.84225106011384       -0.69598222332604
N           28.50846748190189       -1.53103523058198       -0.40305888130008
C           30.01893765846803       -3.43497165423671       -0.77034421985763
C           30.06019795247000       -4.88406815412931       -1.07420025446178
C           30.72807113488872       -5.34929949554431       -2.21161218436946
C           30.76635879680058       -6.70064027901977       -2.49511754045060
C           30.14132704983090       -7.62012589328197       -1.64603664559860
C           30.20032481462750       -9.05754408598059       -1.96767375627761
O           30.76167766718042       -9.50448197520211       -2.93512024646958
C           29.47431236249660       -7.15726783829163       -0.50920461852769
C           29.43215156702179       -5.80318157553060       -0.22860075766093
C           31.23058378912158       -2.76335823056109       -0.58411594094795
C           32.52999808036488       -3.41148859742671       -0.60599762881979
C           33.44438958289774       -2.44055583361643       -0.40455403625718
N           31.37630055820613       -1.43172007877178       -0.34501094442523
C           32.70211712596090       -1.20480217115088       -0.24594041805733
C           33.33172869877108        0.03765645034419       -0.03251154533460
C           32.69009691381463        1.26869438310845        0.19827467017669
C           33.32808910385706        2.51894736223542        0.41443494506672
C           32.35694592315059        3.45522724197754        0.63689707235384
C           31.09466910936845        2.80246068447639        0.56824885767155
N           31.34753741468342        1.48578663320996        0.29030482066310
C           29.82909083097492        3.38095605355682        0.71767881238276
C           29.79229060953090        4.81941058167706        1.06700067883340
C           30.38991251660787        5.27361206013331        2.24732080167211
C           30.35233123236326        6.61402146803660        2.57854738465161
C           29.72189984846742        7.53422361572567        1.73427051565132
C           29.69901682821829        8.95977187010272        2.10841753730259
O           30.19988463711070        9.39587917532068        3.11324538522321
C           29.12784129195081        7.08286239705923        0.55310302912118
C           29.16087046135057        5.73934441026306        0.22480791954060
C           28.61541559937866        2.70133107054129        0.56466635897109
C           27.30610548007422        3.30426411642368        0.76279206901076
C           26.39938721154758        2.33841063416800        0.51366515992183
C           27.15335484751124        1.14239392497421        0.18066383772511
N           28.48425924364740        1.39614537015505        0.23041190539684
H           25.46414796020299       -0.07619671830943       -0.16549544027708
H           25.45452725228935       -2.62606320220488       -0.85018971993498
H           27.34231269938220       -4.48501370029072       -1.20493514038335
H           29.22950062772648       -0.84485992194279       -0.20677478659654
H           31.20200682381537       -4.63828461444255       -2.87877940130143
H           31.27858559747870       -7.06851753553120       -3.37771068654031
H           29.67777980334149       -9.71012969549435       -1.23595489364531
H           28.99008364486490       -7.86383461138942        0.15710348402395
H           28.92722622569547       -5.44952546731465        0.66341239759334
H           32.69812439055919       -4.46742637818917       -0.74191588562050
H           34.51775728098490       -2.52772804212630       -0.35271603563750
H           34.39495763865619        2.67264341848190        0.39724394760087
H           32.49879117714233        4.50763420097621        0.82082545681210
H           30.62886502630334        0.77998841395994        0.16778538617426
H           30.86666730552738        4.56134145759832        2.91134604972313
H           30.80734844030454        6.97223201810231        3.49577699398092
H           29.17499927846325        9.61432586402459        1.37957211672958
H           28.64088000424957        7.79062351959005       -0.10990302732595
H           28.71184790669509        5.39513803844921       -0.69998690880097
H           27.12935053313233        4.32419579582152        1.06403181271901
H           25.32300250111290        2.39568120342195        0.55443724956347
C           65.32268945347651        0.10400601936136       -0.08024357451305
C           64.70406294789049        1.26673588989667        0.36029090830852
C           65.34555650101947        2.47629693551301        0.74916867103766
C           64.37803708132751        3.36311063844143        1.12876178814257
C           63.11414675695991        2.72026365770615        0.99289414241966
N           63.36109855162051        1.46414913772702        0.51743130260178
C           61.84720772228771        3.25335324578410        1.25776179785221
C           61.80293685366681        4.63274917758447        1.79568795581883
C           61.13065845334390        5.64258385265352        1.09966608450945
C           61.08769259189127        6.92817686048360        1.60307350003641
C           61.71283013918974        7.23461223269387        2.81649245343538
C           61.64793241565516        8.61277425985613        3.33569263854105
O           61.08071300247125        9.51417997338818        2.77294655825286
C           62.38517721608336        6.22729169335640        3.51282161167566
C           62.43163116713126        4.94094853615474        3.00567253053857
C           60.63709902045669        2.58470689240193        1.05167669260109
C           59.33681249091011        3.13727804370263        1.38796386791979
C           58.42473885548358        2.20698421261275        1.03891397406668
N           60.49417489500242        1.33404884960259        0.53495748178556
C           59.16925333587618        1.08306960479611        0.50414979762399
C           58.54222491206863       -0.08703473554395        0.03183392252113
C           59.18538548535893       -1.24546116032259       -0.44161657322296
C           58.54862729879539       -2.41899955472747       -0.92586628800982
C           59.52167395777537       -3.31468252484636       -1.27219252116995
C           60.78421996832913       -2.71644038509178       -1.00292879738266
N           60.52904164935465       -1.46425663323081       -0.51105230326118
C           62.05128417268450       -3.26728537030232       -1.22503042787484
C           62.09394334108472       -4.65732302317880       -1.73384959893883
C           61.52808052825781       -5.69941248257678       -0.99213245136343
C           61.57289998077646       -6.99694027654831       -1.46378186068367
C           62.17874627745954       -7.28314354570380       -2.69179815491157
C           62.21079122402299       -8.67543123157372       -3.17475220518083
O           61.73928610317543       -9.60448310174373       -2.57018580252367
C           62.74084254774013       -6.24281932002724       -3.43582838442492
C           62.70082879231017       -4.94444160631698       -2.96006397132972
C           63.26309507539467       -2.60426852318391       -1.00051415643655
C           64.57445467290628       -3.20535459834984       -1.19069689654334
C           65.47863906713040       -2.25682337609443       -0.87484850111409
C           64.72136612695078       -1.08258989052957       -0.47794050997206
N           63.39097750291758       -1.33143600802705       -0.55802613411517
H           66.40726482171272        0.13359054405412       -0.10861983196020
H           66.41174987337423        2.63616877057883        0.73051359851894
H           64.52099155098159        4.37756537349643        1.46389870602340
H           62.64151107985359        0.78034801019175        0.30790079979840
H           60.65659858600382        5.41154551239605        0.15248236163022
H           60.57147254205495        7.71740969363484        1.06703323089323
H           62.17139828840446        8.75974496246616        4.30469873172259
H           62.86975036978484        6.45522551950086        4.45670812812043
H           62.94030001375306        4.15841023797568        3.55758624173782
H           59.16649522714378        4.09949244435534        1.84276510343008
H           57.35164769857907        2.24829103613235        1.13443550033153
H           57.48113274591095       -2.54944013294220       -1.00048512682051
H           59.38066691028535       -4.29867275904086       -1.68857391982390
H           61.24700081856923       -0.79770204500740       -0.24661165648493
H           61.07081268554089       -5.48374768705633       -0.03300233245132
H           61.14281326148295       -7.81121181642909       -0.89050578646115
H           62.71236788827253       -8.80587592460318       -4.15735486871897
H           63.20849283311276       -6.45526918366451       -4.39175508635846
H           63.12537389413140       -4.13767308112621       -3.54680819583013
H           64.75424047160317       -4.21958777506587       -1.50892325977877
H           66.55544809463768       -2.31880706015069       -0.88863356145653
C           38.53425805829097        0.08869669740996       -0.08693144956945
C           37.30630137647476        0.09055763752451       -0.07236110634581
C           35.96153460897170        0.07829687982484       -0.06132600834363
C           34.73820975940556        0.06149026446351       -0.04308867546681
C           39.87893497291947        0.08123076767194       -0.09492977378687
C           41.10261083194131        0.07068977003613       -0.09112243586689
C           54.56676454193885       -0.12303225362585        0.02805268961351
C           53.33892585374902       -0.11142304848050        0.02518805890897
C           51.99403440603604       -0.09468624301854        0.01925310302785
C           50.77069511108498       -0.07070077715157        0.01325700981133
C           55.91190702392294       -0.12281889928790        0.02964335166295
C           57.13531866419131       -0.11205494814529        0.03289190967455
C           42.50826949284871        0.05213271621845       -0.07918928657943
C           43.15534655095497        0.98802889099373       -0.90779369849326
C           42.52763579105989        1.91980379665387       -1.77470966611333
C           43.50829361289611        2.64740333671838       -2.39123699650147
C           44.76422739223368        2.18596060858261       -1.91032986294864
N           44.50024384036475        1.17709198669407       -1.02365873741861
C           46.03445499769814        2.64460449976503       -2.27950973918669
C           46.07445921042898        3.76830973667440       -3.24621467503406
C           46.67247089643931        3.60074839485220       -4.49886288429382
C           46.70370423675850        4.64555863772206       -5.40211374071675
C           46.14512619371360        5.88448825135102       -5.07076159424563
C           46.19307323120966        6.98466704821372       -6.05128559697074
O           46.68212042472805        6.88335212096097       -7.14715412323119
C           45.55177303962017        6.05445764001191       -3.81766457950793
C           45.51315180830193        5.00500792500579       -2.91677548847433
C           47.24885626152872        2.13440474117011       -1.81650291674764
C           48.54554060349702        2.68018477144314       -2.17731231808262
C           49.46662332134535        1.93047838328723       -1.53802439361606
N           47.40280643679412        1.08836910284112       -0.95997735686314
C           48.73126129998763        0.93489488597320       -0.78280995532444
C           49.36474307546162       -0.04725937669850        0.00339704841289
C           48.71737684788340       -1.01798235810468        0.79062049498671
C           49.34512432837847       -2.02137362171220        1.57367676711241
C           48.36477907810042       -2.74185308578161        2.19870431917996
C           47.10884335850422       -2.19274922829941        1.82066854296704
N           47.37248834427705       -1.16031496310358        0.96160095441837
C           45.83891248600200       -2.62862881401776        2.21788151121673
C           45.80053801716710       -3.74812263977159        3.18902685597958
C           45.19256479466191       -4.95958156163452        2.84837152560296
C           45.15665681396262       -6.00476211823010        3.75415320684305
C           45.72340296332033       -5.85685081596905        5.02235612977671
C           45.69487700558548       -6.95332211045028        6.00767998654026
O           46.16762036455528       -6.87215616978809        7.11242691935223
C           46.32999567310070       -4.64374898632145        5.36445273191873
C           46.37142608104710       -3.60281804814878        4.45714272916616
C           44.62411664334179       -2.09561113975356        1.78205436290603
C           43.32703650293821       -2.53933280954477        2.26166845334312
C           42.40613073495738       -1.79291508958673        1.61822275352889
C           43.14197541477753       -0.88853945495131        0.75647129262231
N           44.47024577663638       -1.08692777733092        0.88170217207988
H           41.46178293204989        2.01036853964135       -1.90826641970953
H           43.37575826223803        3.42843914778872       -3.12194175132640
H           45.20913318591531        0.64408389137310       -0.53103323959087
H           47.09688446856892        2.63848192654660       -4.76182913556506
H           47.15879981483830        4.52181108243004       -6.37893403571212
H           45.73480802336847        7.93229237839246       -5.69584738321983
H           45.12065658157497        7.01382149492858       -3.55060166232658
H           45.06206570903132        5.14330960369056       -1.94057411256794
H           48.70627954211041        3.52979786665572       -2.82081696640496
H           50.54049999241557        2.02524021730780       -1.55300016799473
H           50.41087159714745       -2.16862333156598        1.64090643518388
H           48.49743148198780       -3.58536615059131        2.85621597514047
H           46.66386643301939       -0.58788518375049        0.51498363864857
H           44.76254026093100       -5.08093032811410        1.86073201069470
H           44.68826269933517       -6.94407049192556        3.47919975284681
H           45.19464245113765       -7.87735451848436        5.64740533913757
H           46.76342802538077       -4.53627220809379        6.35296897426122
H           46.83046821384174       -2.65930527532102        4.73012943173355
H           43.16493700450474       -3.30710483992394        3.00061220450222
H           41.33212337325402       -1.82498511372059        1.70699290227561
