122
 energy: -221.445296282995 gnorm: 0.664625469151 xtb: 6.5.1 (b24c23e)
Cu          17.23123400000000       -0.00875600000000       -0.00108200000000
C           13.86948100000000        0.12635000000000       -0.12010600000000
C           14.53554000000000        1.28004300000000       -0.01967400000000
C           13.88571500000000        2.58164200000000        0.07425800000000
C           14.82581900000000        3.49586100000000        0.21948100000000
C           16.13115400000000        2.82079400000000        0.22044200000000
N           15.95378300000000        1.41222800000000        0.06560800000000
C           17.32056800000000        3.43313100000000        0.39349500000000
C           17.35690000000000        4.90007300000000        0.58603300000000
C           17.61176200000000        5.43778800000000        1.85568100000000
C           17.65050500000000        6.82298100000000        2.03882700000000
C           17.43016099999999        7.68847000000000        0.95318400000000
C           17.46348600000000        9.15199500000000        1.12704500000000
O           17.69783500000000        9.66829600000000        2.25229600000000
C           17.17407500000000        7.14656400000000       -0.31601600000000
C           17.14005900000000        5.76132400000000       -0.49954900000000
C           18.61631100000000        2.70221400000000        0.41018100000000
C           19.91109400000000        3.34405400000000        0.66888300000000
C           20.84524800000000        2.42075200000000        0.57604700000000
N           18.75500700000000        1.43580500000000        0.15903200000000
C           20.15694400000000        1.17869500000000        0.24732300000000
C           20.75305600000000        0.00000000000000        0.00000000000000
C           19.99816900000000       -1.22345400000000       -0.35844400000000
C           20.55179100000000       -2.31189600000000       -0.87844100000000
C           19.50782400000000       -3.30684500000000       -1.01216200000000
C           18.38311900000000       -2.76317600000000       -0.56318400000000
N           18.60164000000000       -1.41872400000000       -0.12902000000000
C           17.08641800000000       -3.48336100000000       -0.47691000000000
C           17.09590700000000       -4.96338800000000       -0.55241000000000
C           16.53357500000000       -5.62258800000000       -1.65687500000000
C           16.56307300000000       -7.01785200000000       -1.73397200000000
C           17.15994100000000       -7.77245100000000       -0.71166400000000
C           17.18766500000000       -9.24303200000000       -0.81302500000000
O           17.76370900000000       -9.94439500000000        0.05951400000000
C           17.72764000000000       -7.10993000000000        0.39130400000000
C           17.69825700000000       -5.71455900000000        0.46735500000000
C           15.91817600000000       -2.83000900000000       -0.33323200000000
C           14.59647400000000       -3.44366600000000       -0.21606400000000
C           13.73602800000000       -2.44807200000000       -0.13060500000000
C           14.49894400000000       -1.20206900000000       -0.18055400000000
N           15.77240600000000       -1.41183900000000       -0.29871000000000
H           12.78621000000000        0.15916500000000       -0.13694500000000
H           12.82187600000000        2.77940800000000        0.04698500000000
H           14.63730300000000        4.55580300000000        0.32976100000000
H           17.78120000000000        4.78311500000000        2.70192000000000
H           17.85112200000000        7.21557100000000        3.02780400000000
H           17.28599600000000        9.80188800000000        0.27979300000000
H           17.00115200000000        7.79590100000000       -1.16565700000000
H           16.94303499999999        5.35849000000000       -1.48575600000000
H           20.09364500000000        4.38741900000000        0.88790100000000
H           21.90621000000000        2.58814800000000        0.70603500000000
H           21.59190400000000       -2.44879700000000       -1.14162700000000
H           19.63178400000000       -4.31194200000000       -1.39338200000000
H           16.07720200000000       -5.05469200000000       -2.45921900000000
H           16.12520400000000       -7.50844300000000       -2.59555400000000
H           16.71612400000000       -9.73590100000000       -1.65324000000000
H           18.19388600000000       -7.66900500000000        1.19364700000000
H           18.14140500000000       -5.21879200000000        1.32277100000000
H           14.34536400000000       -4.49619400000000       -0.19705800000000
H           12.66302000000000       -2.55014400000000       -0.03246900000000
Cu          27.90652600000000        0.00882100000000        0.00017600000000
C           31.26827900000000       -0.10795900000000       -0.13687500000000
C           30.60221900000000       -1.26419500000000       -0.20176000000000
C           31.25204500000000       -2.56590500000000       -0.29414300000000
C           30.31194100000000       -3.49148700000000       -0.28059100000000
C           29.00660500000000       -2.82343800000000       -0.18350600000000
N           29.18397700000000       -1.40717800000000       -0.13617200000000
C           27.81719200000000       -3.45417800000000       -0.09941800000000
C           27.78086000000000       -4.93358800000000       -0.11774500000000
C           27.52599800000000       -5.64662900000000        1.06238900000000
C           27.48725500000000       -7.04378600000000        1.04640700000000
C           27.70759900000000       -7.74585000000000       -0.15142300000000
C           27.67427400000000       -9.21921800000000       -0.18775000000000
O           27.43992500000000       -9.89050200000000        0.85250800000000
C           27.96368500000000       -7.02872500000000       -1.33051600000000
C           27.99770100000000       -5.63146600000000       -1.31491100000000
C           26.52144900000000       -2.73308700000000        0.02118600000000
C           25.22666600000000       -3.40522500000000        0.18584900000000
C           24.29251200000000       -2.47811300000000        0.22544400000000
N           26.38275300000000       -1.44381900000000       -0.04705700000000
C           24.98081500000000       -1.20190300000000        0.07694800000000
C           24.38470300000000        0.00000000000000        0.00000000000000
C           25.13959000000000        1.26203000000000       -0.18056300000000
C           24.58596900000000        2.41343000000000       -0.54025800000000
C           25.62993600000000        3.41728100000000       -0.53092800000000
C           26.75463999999999        2.81521500000000       -0.16394900000000
N           26.53612000000000        1.42263800000000        0.07433100000000
C           28.05134200000000        3.51577400000000        0.02400600000000
C           28.04185300000000        4.99146900000000        0.16004100000000
C           28.60418400000000        5.80123400000000       -0.83929300000000
C           28.57468700000000        7.19325700000000       -0.71690800000000
C           27.97781900000000        7.79458100000000        0.40244100000000
C           27.95009400000000        9.26460900000000        0.51153400000000
O           27.37405100000000        9.83456900000000        1.47505900000000
C           27.41011900000000        6.98174200000000        1.39982000000000
C           27.43950299999999        5.58976200000000        1.27638500000000
C           29.21958400000000        2.84862000000000        0.07317800000000
C           30.54128499999999        3.43933800000000        0.27654000000000
C           31.40173200000000        2.44172000000000        0.21934900000000
C           30.63881599999999        1.21553000000000       -0.00753100000000
N           29.36535400000000        1.43998800000000       -0.09461000000000
H           32.35155000000000       -0.13804100000000       -0.15821500000000
H           32.31588400000000       -2.75777200000000       -0.34930100000000
H           30.50045700000000       -4.55633200000000       -0.32237800000000
H           27.35656000000000       -5.11913900000000        1.99323400000000
H           27.28663800000000       -7.57321200000000        1.96939700000000
H           27.85176400000000       -9.74183300000000       -1.11891600000000
H           28.13660800000000       -7.55044900000000       -2.26396800000000
H           28.19472500000000       -5.09229500000000       -2.23370000000000
H           25.04411500000000       -4.46914600000000        0.25405200000000
H           23.23155000000000       -2.66231400000000        0.33026900000000
H           23.54585600000000        2.58641500000000       -0.78126600000000
H           25.50597600000000        4.46642300000000       -0.76513000000000
H           29.06055800000000        5.35338600000000       -1.71433200000000
H           29.01255500000000        7.80154300000000       -1.49984500000000
H           28.42163600000000        9.87210700000000       -0.24993000000000
H           26.94387400000000        7.42086000000000        2.27360100000000
H           26.99635500000000        4.97723100000000        2.05248200000000
H           30.79239600000000        4.47843200000000        0.44524000000000
H           32.47474000000000        2.52877700000000        0.33102000000000
C           21.95792100000000        0.00000000000000        0.00000000000000
C           23.17983900000000        0.00000000000000        0.00000000000000
122
 energy: -221.596870483353 gnorm: 0.282160258799 xtb: 6.5.1 (b24c23e)
Cu          17.23202507314688       -0.00458643160345       -0.00759065993357
C           13.86913357898372        0.10698019995005       -0.12140814198759
C           14.53979926424236        1.28069335983613       -0.01907156019200
C           13.88545756477548        2.57396842246940        0.07366135795866
C           14.83731082482307        3.49856576224796        0.21982996402954
C           16.12919739302484        2.81710565348928        0.21889584255053
N           15.93024214336907        1.43502359573254        0.07009854005288
C           17.33495698855671        3.43440622137517        0.39437924222164
C           17.36257402971468        4.90466305414342        0.58636317342730
C           17.61415010111134        5.44468103627688        1.85220408933710
C           17.64965899387555        6.82157767667363        2.03477643557731
C           17.43016997604701        7.68871505562465        0.95310178786044
C           17.46823079617388        9.15002529056021        1.14704436533787
O           17.69417978027630        9.65750232005729        2.23650859866681
C           17.17403898607424        7.14325218691896       -0.31317002357625
C           17.13950818676411        5.76530531291063       -0.49486936967161
C           18.60099695244102        2.73483610220123        0.41569095229698
C           19.88974413494915        3.36381006593520        0.66952148989074
C           20.82893862870854        2.41180270136473        0.57286867313621
N           18.74549344786463        1.44857071187323        0.16817854082164
C           20.10949176378381        1.19551359579787        0.25166131818130
C           20.66764792340145       -0.01891246639728       -0.00416984667706
C           19.95708710800894       -1.23021622189424       -0.35193056176789
C           20.54729601420359       -2.33854918708284       -0.88458109610906
C           19.52997741790151       -3.31582590999068       -1.01403585943781
C           18.37017370581136       -2.76005776066020       -0.55261742513179
N           18.59197749386608       -1.43306128308208       -0.13726520983484
C           17.10147059756999       -3.47478425148986       -0.47540994563232
C           17.10714061705509       -4.96078549461708       -0.55718415040634
C           16.53517587158174       -5.62443915395818       -1.65235109143930
C           16.56394016682300       -7.01329038851662       -1.72981275523571
C           17.15951120498026       -7.77168194793887       -0.71148478768254
C           17.19973951413105       -9.24390884658493       -0.79653628725321
O           17.75470832831077       -9.93098205456526        0.04869628735155
C           17.72484985942130       -7.10610736773195        0.38772977838975
C           17.69909906361434       -5.71806362203343        0.46165350963186
C           15.91718829874348       -2.82845146765116       -0.33161532669721
C           14.60408371748316       -3.44064668046152       -0.21731128059193
C           13.72321917516785       -2.43436978783307       -0.12990763365946
C           14.47596660607970       -1.19324796130816       -0.18027964410473
N           15.76830183114986       -1.42422295815160       -0.29430571370094
H           12.78637887514646        0.14945524699145       -0.13682702006586
H           12.82208294587981        2.76675653238624        0.04505292968115
H           14.65351749543090        4.55760774351248        0.33032849633944
H           17.78070369206294        4.78566246198893        2.69837630541806
H           17.85001257796420        7.21938373434037        3.02398723004411
H           17.28575130701498        9.79517278765061        0.27812310157019
H           17.00189496654494        7.79541085389502       -1.16332782422716
H           16.94416452054952        5.35869145953347       -1.48196515013290
H           20.08105525261830        4.39921694136445        0.88900006060495
H           21.89499017881850        2.56767621560594        0.70301147291771
H           21.58881183645812       -2.45397823522221       -1.14557713464778
H           19.64196442313918       -4.31559593899534       -1.39732614496792
H           16.07919168706287       -5.05477174646794       -2.45570748455349
H           16.12653139853168       -7.50717960298424       -2.59240394415886
H           16.71511515318919       -9.72878693799325       -1.65356175575371
H           18.19125360331662       -7.67093951063402        1.18888725815091
H           18.14003295901509       -5.21992897215263        1.31906677988344
H           14.36027690630690       -4.49411433618551       -0.19831159678756
H           12.65553955202003       -2.53886788824450       -0.03216534062196
Cu          27.90573513016718        0.00562086289900       -0.00685873540609
C           31.26862657602226       -0.08860100064756       -0.13540549451483
C           30.59796053213659       -1.26492510036624       -0.20125654434068
C           31.25230272496241       -2.55822518452361       -0.29364055991534
C           30.30044954215657       -3.49421461953586       -0.28063082158700
C           29.00856243036740       -2.81956764869932       -0.18451094003790
N           29.20751857494878       -1.43038178298095       -0.13497447995792
C           27.80280297895980       -3.45556627328793       -0.09872420636960
C           27.77518590124352       -4.93817832926857       -0.11807169307446
C           27.52360987299675       -5.65295674343644        1.05796598865177
C           27.48810097671959       -7.04181998760528        1.04259774000528
C           27.70758999789845       -7.74608114462997       -0.15153917366225
C           27.66952920119489       -9.22011667844841       -0.16767390694092
O           27.44358028084041       -9.87756968628816        0.83841831551769
C           27.96372102122064       -7.02585212416623       -1.32722756941303
C           27.99825179740953       -5.63607342759278       -1.31084597719012
C           26.53676237070242       -2.76616161227922        0.02199420323982
C           25.24801547860884       -3.42487138275344        0.18366773364466
C           24.30882086621829       -2.46880267965766        0.22357248687451
N           26.39226534274484       -1.45775810271602       -0.03982205900588
C           25.02826691218481       -1.21916811698061        0.07884703065550
C           24.47011126701952        0.01931346340628       -0.00143410925187
C           25.18067153637502        1.26779596937792       -0.17315277822320
C           24.59046345060379        2.44068621135326       -0.54254012963275
C           25.60778220845012        3.42643785104588       -0.53150415657421
C           26.76758529413975        2.81062449116973       -0.15393382100259
N           26.54578127367828        1.43800427459253        0.06821231691522
C           28.03628937900287        3.50707130359127        0.02426925311430
C           28.03061929156879        4.98957286621550        0.15494496335141
C           28.60258340565279        5.80242208839050       -0.83455143479893
C           28.57381957827383        7.18814954977158       -0.71344079983699
C           27.97824857559446        7.79379439209874        0.40250880497281
C           27.93801994080907        9.26312881731797        0.52797957278069
O           27.38305154320773        9.82283309369706        1.46244141053948
C           27.41290944858107        6.97846733142252        1.39573771128762
C           27.43866086085085        5.59404298557263        1.27124069145380
C           29.22057205302115        2.84684893075023        0.07455613633552
C           30.53367605151368        3.43652719981780        0.27487559536318
C           31.41454110380192        2.42805885074921        0.21808794729277
C           30.66179413511493        1.20676019574221       -0.00851557805239
N           29.36945925076970        1.45161965023635       -0.08848758649682
H           32.35138120828901       -0.12844703424416       -0.15671552850753
H           32.31567722897884       -2.74497445078734       -0.34941168715803
H           30.48424267262835       -4.55819912316798       -0.32207332162384
H           27.35705634138375       -5.12115587858765        1.98936340703729
H           27.28774741068829       -7.57644229897484        1.96507623753354
H           27.85200869133884       -9.73494854159682       -1.11961264096713
H           28.13586504720440       -7.55029552001159       -2.26159278847505
H           28.19359548927969       -5.09303429780446       -2.22997657855692
H           25.05670449374744       -4.48098071823073        0.25345981741565
H           23.24276947376274       -2.64162050736303        0.33019165048393
H           23.54894777694025        2.59210616528541       -0.78443825599001
H           25.49579541563096        4.47060160518210       -0.76851379967652
H           29.05856818376290        5.35296483275083       -1.71084488249873
H           29.01122781271674        7.79984408354782       -1.49690719014895
H           28.42264469545480        9.86511118231731       -0.25126158651158
H           26.94650617157104        7.42345265365289        2.26916555942414
H           26.99772701461604        4.97888379149872        2.04897752309375
H           30.77748332597572        4.47655216175432        0.44370310579400
H           32.48222062781220        2.51757288535231        0.32971483789662
C           21.97265667752304       -0.00792516464726       -0.00363131403513
C           23.16510262788112        0.00836153044560       -0.00246572592914
122
 energy: -221.655348161200 gnorm: 0.095895175870 xtb: 6.5.1 (b24c23e)
Cu          17.23448892462377       -0.00045485323766       -0.01538551488773
C           13.87173550606639        0.08771013113406       -0.12146239019049
C           14.54308147179014        1.28488668354515       -0.01754497318686
C           13.88515730918819        2.56721915128928        0.07319721285326
C           14.84679969574686        3.50036120037024        0.21936206651922
C           16.12142575266764        2.81349697308016        0.21748949641636
N           15.90231308190178        1.46183826073767        0.07447577244645
C           17.34652899686013        3.43503784890951        0.39578187581205
C           17.36396847005291        4.90863534699103        0.58719870901023
C           17.61673631686023        5.45049774150753        1.84931673605779
C           17.64925625633607        6.82117258152856        2.03026607373250
C           17.42970202448220        7.68744273583357        0.95108339326679
C           17.47203690385290        9.14902403954884        1.16663816989487
O           17.69307056812841        9.65124689425903        2.23346160534891
C           17.17354779372324        7.14080681145013       -0.31131216731690
C           17.13839113226028        5.76839002180949       -0.49094302194247
C           18.58261534331703        2.77024465398069        0.42306693124169
C           19.86726279492354        3.38154530910956        0.66897181414238
C           20.80386590727426        2.40584125442375        0.57016339417514
N           18.73922817798615        1.45924138797519        0.18258469038427
C           20.07108362356242        1.20613891127630        0.25657087772990
C           20.60352211311573       -0.03652589494254       -0.01460373630970
C           19.92493980815398       -1.23148397416566       -0.34406176740054
C           20.54142154934794       -2.36945406964509       -0.88448863377901
C           19.55775835625164       -3.32455847321126       -1.00764796726167
C           18.36003841600249       -2.76049664471433       -0.54059797555674
N           18.58862163883374       -1.45145065724732       -0.15755544623336
C           17.12209529691241       -3.46165706436558       -0.47378832250432
C           17.12256642112769       -4.95327508691935       -0.56434556486803
C           16.53935544237203       -5.62203385675951       -1.64890289959661
C           16.56442076285913       -7.00623663503774       -1.72579498507735
C           17.15871494031722       -7.76709431735971       -0.71280681707549
C           17.20983940629043       -9.24414358664357       -0.77959655449039
O           17.75250698787025       -9.92282839866312        0.04764072072701
C           17.72277546052956       -7.10030334633496        0.38281697978572
C           17.70374009569049       -5.71758120054657        0.45412985917182
C           15.91366937437514       -2.82057326899116       -0.32630198261323
C           14.61132285382289       -3.43165103641680       -0.21871350873654
C           13.71242199883187       -2.42221034575519       -0.13219870665978
C           14.45127165559050       -1.18497471224059       -0.17897295516765
N           15.76449265376409       -1.43853593196455       -0.28648725510044
H           12.78845296332262        0.13920029519015       -0.13450148908198
H           12.82171138730987        2.74947376944265        0.04222012453135
H           14.67551566212600        4.55984761391846        0.33033803751619
H           17.78101955264136        4.78794732320057        2.69381875381205
H           17.84780278283753        7.22708683501570        3.01770884590092
H           17.28443216570832        9.77965843814907        0.27069749975216
H           17.00224048588495        7.79613594675421       -1.16029404921981
H           16.94487146704047        5.35773608770115       -1.47716848282002
H           20.06401482723036        4.41448859619878        0.88935407685003
H           21.87155960406026        2.54293022230448        0.69984642324773
H           21.58271169180325       -2.46007703925802       -1.15051005642189
H           19.65433448335132       -4.32129740634394       -1.40021634739953
H           16.08189218050056       -5.05204419315350       -2.45135410806717
H           16.12711225886409       -7.50438029150108       -2.58726504724377
H           16.71254315665906       -9.71088359324595       -1.65751836899453
H           18.18608366795042       -7.67367038209497        1.18131480695901
H           18.14063964737600       -5.21897214571732        1.31378041579259
H           14.38146005989321       -4.48762324464846       -0.19999991176882
H           12.64628471799562       -2.52642784677645       -0.03342290820366
Cu          27.90327142745729        0.00264153747410       -0.01516182487843
C           31.26602483951408       -0.06951947075990       -0.13271515931400
C           30.59467961139674       -1.26929387865516       -0.20034314451568
C           31.25260373359547       -2.55147944642409       -0.29313857156209
C           30.29096143539366       -3.49592620145882       -0.28134962179825
C           29.01633509569967       -2.81579629806225       -0.18538935588766
N           29.23544868546475       -1.45754798021241       -0.13446152891116
C           27.79123095431189       -3.45639136294052       -0.09742583414800
C           27.77379140988409       -4.94222921177583       -0.11781021484042
C           27.52102362287723       -5.65830314994194        1.05427976552801
C           27.48850368800012       -7.04077669158004        1.03819114278523
C           27.70805793125831       -7.74453468507148       -0.15335573057236
C           27.66572308347204       -9.22191627077096       -0.14813716920986
O           27.44468951373435       -9.87094383995779        0.83629309299690
C           27.96421222119584       -7.02369622301292       -1.32504050831604
C           27.99936884622826       -5.63968617643875       -1.30739886901133
C           26.55514305114055       -2.80226044472266        0.02425261434625
C           25.27049583441753       -3.44234872691817        0.18059817697487
C           24.33389255472403       -2.46251758660904        0.22174369154042
N           26.39852897790425       -1.47037282665824       -0.02708240861905
C           25.06667426368498       -1.23038472468504        0.08219323859994
C           24.53423691790911        0.03823324918700       -0.00925327457819
C           25.21281812334490        1.26793090080265       -0.16518295832355
C           24.59633710551416        2.47126353541574       -0.53804787108797
C           25.58000060750719        3.43417255278009       -0.52393820460037
C           26.77772016376025        2.80934840414718       -0.14197382637883
N           26.54913545153854        1.45909723955123        0.05074884877470
C           28.01566464127110        3.49384735291805        0.02400477581503
C           28.01519337525564        4.98315892411299        0.14678710143917
C           28.59840407276648        5.79955038784833       -0.83148077305096
C           28.57333881806958        7.18059556556665       -0.71046858257770
C           27.97904468517783        7.78944198018181        0.40054689069098
C           27.92792014563041        9.26094883880702        0.54477987353175
O           27.38525290330420        9.81491267483880        1.46023555306286
C           27.41498409651730        6.97342219014516        1.39004841841105
C           27.43401972948650        5.59463711320249        1.26372507095398
C           29.22409165327950        2.83829562806349        0.07869283560121
C           30.52643806872252        3.42782369934419        0.27220679188657
C           31.42533912746761        2.41635058940275        0.21408902758854
C           30.68649006542079        1.19838579553005       -0.00840047765325
N           29.37326985858343        1.46467492115643       -0.07871106214777
H           32.34930734380895       -0.11862787379907       -0.15295330408071
H           32.31604948511387       -2.72746492468863       -0.34975433286696
H           30.46224509949709       -4.56041810767278       -0.32238280777978
H           27.35674049556501       -5.12276840381930        1.98452667663225
H           27.28995720332857       -7.58317285420697        1.95776493103335
H           27.85332785831806       -9.71853497653370       -1.12475336110969
H           28.13551953393868       -7.55144534104186       -2.25869317887863
H           28.19288853098931       -5.09277186264720       -2.22509276362423
H           25.07374407737970       -4.49614818061158        0.25163560531764
H           23.26619912257994       -2.61667669770241        0.33058298184742
H           23.55504718649562        2.59884583207107       -0.78845289563384
H           25.48342488823615        4.47665715066685       -0.77056313119131
H           29.05586754101772        5.34964507389218       -1.70692420865403
H           29.01064714375928        7.79634168317400       -1.49221953859749
H           28.42521668330192        9.84795374674069       -0.25772742835007
H           26.95167591765514        7.42723407033186        2.26205947311311
H           26.99712030222559        4.97868946707796        2.04360882678213
H           30.75630075232912        4.47036844603288        0.44110786475535
H           32.49147628001563        2.50543932996747        0.32669889083676
C           21.96558970661991       -0.02142524539332       -0.01316849974306
C           23.17216940972282        0.02308221560839       -0.00998318625479
122
 energy: -221.669479548521 gnorm: 0.035787204122 xtb: 6.5.1 (b24c23e)
Cu          17.22879905462260        0.00165214703104       -0.02721730685948
C           13.86526708955227        0.08245583144231       -0.11700085894034
C           14.53280566629115        1.29328146889290       -0.01417357995453
C           13.87357447481633        2.56826000783777        0.07201885073668
C           14.83909826553263        3.50672090221671        0.21674144973557
C           16.10142357577324        2.81915769400344        0.21829681689668
N           15.88069141330195        1.47763077170524        0.08027826807618
C           17.33338904518129        3.44423247069490        0.40055131615899
C           17.35270000167356        4.91669892735598        0.59059975727147
C           17.61559648578267        5.45617304149374        1.85061161645621
C           17.64942439436901        6.82524990903739        2.02977489990784
C           17.42909153248087        7.68743088109378        0.95022967769407
C           17.47413317408476        9.14755939895083        1.17360068761159
O           17.69361063807314        9.65330971199308        2.24251451369553