166
 energy: -301.817254492259 gnorm: 9.827240586070 xtb: 6.5.1 (b24c23e)
Co          16.13429700000000        0.02814500000000        0.02953600000000
C           12.76064000000000       -0.08148700000000       -0.08051600000000
C           13.43354600000000       -0.89627100000000       -0.89896800000000
C           12.80484500000000       -1.82669400000000       -1.83349500000000
C           13.76566800000000       -2.46800000000000       -2.47767800000000
C           15.04879000000000       -1.97429000000000       -1.98182300000000
N           14.85460400000000       -0.97872900000000       -0.98184500000000
C           16.23702800000000       -2.40516300000000       -2.41458400000000
C           17.53671200000000       -1.91374400000000       -1.92093700000000
C           18.81639500000000       -2.41193800000000       -2.42106100000000
C           19.77214499999999       -1.77069800000000       -1.77695000000000
N           17.69033100000000       -1.00480600000000       -1.00811800000000
C           19.10161900000000       -0.85495800000000       -0.85742800000000
C           19.71034900000000       -0.00854600000000       -0.00732800000000
C           18.96253500000000        0.89738500000000        0.90241100000000
C           19.53394000000000        1.74436900000000        1.75300900000000
C           18.47184900000000        2.44172800000000        2.45340800000000
C           17.32549100000000        1.97560600000000        1.98531700000000
N           17.53796500000000        0.97898800000000        0.98439300000000
C           16.01019600000000        2.44601200000000        2.45789800000000
C           14.84332300000000        1.98859200000000        1.99856600000000
C           13.53550700000000        2.43789500000000        2.45005000000000
C           12.65447900000000        1.74326000000000        1.75243600000000
C           13.40138800000000        0.85447000000000        0.85956500000000
N           14.68273700000000        0.99124900000000        0.99678400000000
H           11.67752900000000       -0.10401200000000       -0.10306800000000
H           11.74342700000000       -1.97640600000000       -1.98382200000000
H           13.61200300000000       -3.22397300000000       -3.23698100000000
H           16.25672600000000       -3.16964700000000       -3.18242500000000
H           18.96727500000000       -3.16806800000000       -3.18035700000000
H           20.83381800000000       -1.91748300000000       -1.92415000000000
H           20.59357100000000        1.89662000000000        1.90590500000000
H           18.59165700000000        3.20083700000000        3.21582300000000
H           15.99356600000000        3.21090200000000        3.22618700000000
H           13.31176800000000        3.18497500000000        3.20051800000000
H           11.57882200000000        1.82621500000000        1.83593300000000
Co          72.81250599999998       -0.06049300000000       -0.00474100000000
C           76.18616299999998        0.09465900000000       -0.01239900000000
C           75.51325700000000        1.24811000000000       -0.06971300000000
C           76.14195800000000        2.56521100000000       -0.13510000000000
C           75.18113500000000        3.47307100000000       -0.18020400000000
C           73.89801300000001        2.77420100000000       -0.14553200000000
N           74.09219899999999        1.36487500000000       -0.07554900000000
C           72.70977499999999        3.38413300000000       -0.17580300000000
C           71.41009099999998        2.68844300000000       -0.14122300000000
C           70.13040800000000        3.39350300000000       -0.17603700000000
C           69.17465799999999        2.48574000000000       -0.13094100000000
N           71.25647200000000        1.40184300000000       -0.07744100000000
C           69.84518399999999        1.18959800000000       -0.06677600000000
C           69.23645399999999       -0.00854600000000       -0.00732800000000
C           69.98426800000000       -1.29084900000000        0.05619800000000
C           69.41286299999999       -2.48975200000000        0.11563000000000
C           70.47495400000000       -3.47690300000000        0.16461100000000
C           71.62131200000000       -2.81712300000000        0.13191800000000
N           71.40883800000000       -1.40637800000000        0.06194600000000
C           72.93660600000000       -3.48309400000000        0.16505000000000
C           74.10348000000000       -2.83564400000000        0.13298400000000
C           75.41129599999999       -3.47180900000000        0.16470600000000
C           76.29232399999999       -2.48854500000000        0.11595200000000
C           75.54541500000001       -1.23027300000000        0.05337300000000
N           74.26406600000000       -1.42378700000000        0.06286500000000
H           77.26927400000000        0.12649600000000       -0.01392900000000
H           77.20337599999999        2.77711200000000       -0.14558700000000
H           75.33479999999999        4.54321700000000       -0.23332700000000
H           72.69007699999999        4.46632100000000       -0.22951600000000
H           69.97952799999999        4.46376100000000       -0.22904800000000
H           68.11298499999999        2.69337100000000       -0.14108400000000
H           68.35323200000001       -2.70525900000000        0.12631000000000
H           70.35514599999999       -4.55146300000000        0.21792700000000
H           72.95323700000000       -4.56588300000000        0.21882300000000
H           75.63503500000000       -4.52943200000000        0.21727600000000
H           77.36798100000000       -2.60609400000000        0.12191200000000
C           22.48941599999999        0.00127400000000       -0.00045800000000
C           23.94764200000000       -0.02056200000000       -0.01833200000000
C           25.08157000000000       -0.04131600000000       -0.01982200000000
C           26.44295200000000       -0.05390600000000       -0.02201400000000
C           27.71717100000000       -0.04359900000000       -0.02677900000000
C           28.90563300000000       -0.02480100000000       -0.03293500000000
C           30.25799400000000       -0.00001700000000       -0.01706700000000
C           31.35826200000000        0.00127400000000       -0.00045800000000
C           39.99751900000000        0.00127400000000       -0.00045800000000
C           41.45574600000000       -0.02056200000000       -0.01833200000000
C           42.58967400000000       -0.04131600000000       -0.01982200000000
C           43.95105600000000       -0.05390600000000       -0.02201400000000
C           45.22527400000000       -0.04359900000000       -0.02677900000000
C           46.41373700000000       -0.02480100000000       -0.03293500000000
C           47.76609800000000       -0.00001700000000       -0.01706700000000
C           48.86636500000000        0.00127400000000       -0.00045800000000
C           57.50562300000000        0.00127400000000       -0.00045800000000
C           58.96384900000000       -0.02056200000000       -0.01833200000000
C           60.09777699999999       -0.04131600000000       -0.01982200000000
C           61.45915899999999       -0.05390600000000       -0.02201400000000
C           62.73337799999999       -0.04359900000000       -0.02677900000000
C           63.92184000000000       -0.02480100000000       -0.03293500000000
C           65.27420100000001       -0.00001700000000       -0.01706700000000
C           66.37446799999999        0.00127400000000       -0.00045800000000
Co          35.67420700000000       -0.04586800000000       -0.04052000000000
C           32.24075500000000        0.00835400000000        0.00769400000000
C           32.90728800000000        0.88178700000000        0.78492500000000
C           32.28297500000000        1.87377800000000        1.66761400000000
C           33.24134700000000        2.55234400000000        2.27149100000000
C           34.52255599999999        2.03211600000000        1.80862400000000
N           34.33046500000000        0.97653800000000        0.86930900000000
C           35.70494099999999        2.49716800000000        2.22250000000000
C           37.01461600000000        1.99398000000000        1.77476700000000
C           38.28125900000000        2.53890800000000        2.25977500000000
C           39.25343900000000        1.87347600000000        1.66760900000000
N           37.19059299999999        1.03453900000000        0.92091200000000
C           38.60580800000000        0.89581800000000        0.79751000000000
C           39.23485700000000        0.00835400000000        0.00769400000000
C           38.50493400000000       -0.95718200000000       -0.85161100000000
C           39.09167700000000       -1.84798100000000       -1.64448500000000
C           38.04160600000000       -2.59530600000000       -2.30949100000000
C           36.88742600000000       -2.11191600000000       -1.87915800000000
N           37.08173699999999       -1.05578500000000       -0.93922600000000
C           35.58234800000000       -2.62190000000000       -2.33283200000000
C           34.40316499999999       -2.15422900000000       -1.91658100000000
C           33.11605300000000       -2.65617600000000       -2.36311000000000
C           32.20948400000000       -1.94054100000000       -1.72631600000000
C           32.91717400000000       -0.97813400000000       -0.87005800000000
N           34.20467900000000       -1.10021700000000       -0.97876300000000
H           31.22560500000000        2.04450100000000        1.81947900000000
H           33.08608300000000        3.35267700000000        2.98366500000000
H           35.71135000000000        3.30683200000000        2.94299500000000
H           38.41240400000000        3.34132800000000        2.97389500000000
H           40.31124299999999        2.04286600000000        1.81839600000000
H           40.15398199999999       -1.99908200000000       -1.77906100000000
H           38.17419700000000       -3.39788700000000       -3.02376600000000
H           35.58387700000000       -3.43201500000000       -3.05369300000000
H           32.92155200000000       -3.45164500000000       -3.07087900000000
H           31.14012200000000       -2.06151500000000       -1.83388800000000
Co          53.18230999999999       -0.04586800000000       -0.04052000000000
C           49.74885800000000        0.00835400000000        0.00769400000000
C           50.41539200000000        0.88178700000000        0.78492500000000
C           49.79107800000000        1.87377800000000        1.66761400000000
C           50.74945000000000        2.55234400000000        2.27149100000000
C           52.03066000000000        2.03211600000000        1.80862400000000
N           51.83856900000000        0.97653800000000        0.86930900000000
C           53.21304400000000        2.49716800000000        2.22250000000000
C           54.52271900000000        1.99398000000000        1.77476700000000
C           55.78936199999999        2.53890800000000        2.25977500000000
C           56.76154200000000        1.87347600000000        1.66760900000000
N           54.69869600000000        1.03453900000000        0.92091200000000
C           56.11391199999999        0.89581800000000        0.79751000000000
C           56.74296100000000        0.00835400000000        0.00769400000000
C           56.01303700000000       -0.95718200000000       -0.85161100000000
C           56.59978000000000       -1.84798100000000       -1.64448500000000
C           55.54970900000000       -2.59530600000000       -2.30949100000000
C           54.39552900000000       -2.11191600000000       -1.87915800000000
N           54.58984000000000       -1.05578500000000       -0.93922600000000
C           53.09045099999999       -2.62190000000000       -2.33283200000000
C           51.91126800000000       -2.15422900000000       -1.91658100000000
C           50.62415600000000       -2.65617600000000       -2.36311000000000
C           49.71758800000000       -1.94054100000000       -1.72631600000000
C           50.42527700000000       -0.97813400000000       -0.87005800000000
N           51.71278200000000       -1.10021700000000       -0.97876300000000
H           48.73370900000000        2.04450100000000        1.81947900000000
H           50.59418700000000        3.35267700000000        2.98366500000000
H           53.21945300000000        3.30683200000000        2.94299500000000
H           55.92050700000000        3.34132800000000        2.97389500000000
H           57.81934600000000        2.04286600000000        1.81839600000000
H           57.66208500000000       -1.99908200000000       -1.77906100000000
H           55.68230000000000       -3.39788700000000       -3.02376600000000
H           53.09198000000000       -3.43201500000000       -3.05369300000000
H           50.42965600000000       -3.45164500000000       -3.07087900000000
H           48.64822599999999       -2.06151500000000       -1.83388800000000
166
 energy: -305.331187181618 gnorm: 1.887087504264 xtb: 6.5.1 (b24c23e)
Co          16.13573315326872        0.02763591723117        0.02902379304856
C           12.76079996881960       -0.07914273738907       -0.07816130486318
C           13.43547241174112       -0.89690748336387       -0.89960741384419
C           12.80432409923604       -1.82589125696106       -1.83268867585648
C           13.76683534892139       -2.46832964522582       -2.47800920977818
C           15.04786781075214       -1.97296615260366       -1.98049321767647
N           14.85265651180715       -0.97983274540194       -0.98295332761092
C           16.24026438790062       -2.40491331276692       -2.41433308189640
C           17.53483042107374       -1.91598170972421       -1.92318446582208
C           18.81450625944735       -2.41292392919850       -2.42205142993675
C           19.77273939347240       -1.76956335474550       -1.77581051412425
N           17.69027774131723       -1.00339761340007       -1.00670262535809
C           19.10286976326810       -0.85461872933222       -0.85708725646577
C           19.70714453717164       -0.00691032912202       -0.00568847348808
C           18.96195857657627        0.89390460337890        0.89891566577205
C           19.53402697039022        1.74744089287052        1.75609411627595
C           18.47648248780499        2.44208552234422        2.45376694365945
C           17.32130266792456        1.97398675730281        1.98369116041588
N           17.53756900474545        0.97963216892904        0.98504068987033
C           16.01293095910975        2.44528640272310        2.45716892953206
C           14.84266273204284        1.98813723260150        1.99810931675425
C           13.53680111424890        2.43826503276448        2.45042151091289
C           12.65319524045423        1.74198413072556        1.75115458127150
C           13.39803740391175        0.85287828558426        0.85796657259744
N           14.68469728416683        0.99210138247665        0.99764020779259
H           11.67754557611364       -0.10386433355977       -0.10291966412012
H           11.74344870120458       -1.97608771099170       -1.98350232364290
H           13.61245960314323       -3.22394218254064       -3.23695010881939
H           16.25696149414675       -3.16962253649676       -3.18240043253640
H           18.96688202490512       -3.16809890362606       -3.18038812937441
H           20.83379279058947       -1.91706797841103       -1.92373319802764
H           20.59351022428772        1.89662981770440        1.90591465919394
H           18.59184336078053        3.20075877515618        3.21574435514903
H           15.99390342170157        3.21082178432267        3.22610633831831
H           13.31221238217784        3.18491849764832        3.20046114740582
H           11.57879282092710        1.82592931659823        1.83564597806883
Co          72.81108321940563       -0.05980282267779       -0.00477458843723
C           76.18600136112920        0.09134417219700       -0.01223436732275
C           75.51133338008194        1.24901164391556       -0.06975758245735
C           76.14248121332106        2.56407623577925       -0.13504364667699
C           75.17996970366335        3.47353673979386       -0.18022723529892
C           73.89893911756721        2.77230922101852       -0.14543811348040
N           74.09415779846206        1.36641927831955       -0.07562592072862
C           72.70652172596286        3.38377087962396       -0.17578502480673
C           71.41197758652251        2.69161325074048       -0.14138093482188
C           70.13227331810066        3.39489725297948       -0.17610646533983
C           69.17405379672898        2.48417250469938       -0.13086272370484
N           71.25641800043620        1.39976576799143       -0.07733856384283
C           69.84388944246555        1.18921353696453       -0.06675520518937
C           69.23884061418671       -0.01082905152961       -0.00720939683986
C           69.98478455957625       -1.28601282859288        0.05595934870106
C           69.41276317574993       -2.49412570152778        0.11584721143321
C           70.47030978960555       -3.47740349781701        0.16463565973193
C           71.62548754596982       -2.81482267062951        0.13180436640976
N           71.40915452731201       -1.40721007190930        0.06198631119134
C           72.93387596233900       -3.48206062824783        0.16499830069608
C           74.10413214990230       -2.83499479746186        0.13295178276336
C           75.41000653502829       -3.47233140807797        0.16473185109969
C           76.29360912470800       -2.48674328696820        0.11586260417300
C           75.54876212973332       -1.22802366080994        0.05326175259895
N           74.26212989730419       -1.42496325135573        0.06292306617788
H           77.26925759372949        0.12628680483106       -0.01391868538362
H           77.20335458040010        2.77666220768119       -0.14556466432769
H           75.33434303219930        4.54317312996093       -0.23332486167955
H           72.68983963396533        4.46628465203244       -0.22951393031792
H           69.97991957733967        4.46380217216591       -0.22905015147995
H           68.11301479971947        2.69277559271559       -0.14105383989659
H           68.35329362879969       -2.70526811765436        0.12631044819378
H           70.35495888962053       -4.55135023640489        0.21792128018226
H           72.95289797627983       -4.56576796223459        0.21881739886008
H           75.63459027232589       -4.52935174715967        0.21727194480061
H           77.36801041642958       -2.60569035388967        0.12189190969635
C           22.49642898941380        0.00117037892308       -0.00054794073727
C           23.92493987029597       -0.02021501118196       -0.01821439141039
C           25.09969094767176       -0.04159387856540       -0.01984053027799
C           26.43808140827491       -0.05389259692803       -0.02202333054009
C           27.71042896225931       -0.04367194175126       -0.02676633692504
C           28.91251120587980       -0.02465744812514       -0.03292921878164
C           30.22075790787373       -0.00028816279636       -0.01762813492871
C           31.27935575227293       -0.00038644805170       -0.00194632153254
C           40.18746552406805       -0.00201498609213       -0.00402060390089
C           41.44939121253024       -0.02057624882821       -0.01848076021040
C           42.60547191537766       -0.04154305124453       -0.01979068987733
C           43.94909362688971       -0.05390215422894       -0.02203599669159
C           45.21685459882809       -0.04369164287222       -0.02676632586982
C           46.42191706533711       -0.02464581307237       -0.03292394938311
C           47.72802964775622       -0.00029221521524       -0.01763829307492
C           48.78796283519715       -0.00037900115921       -0.00193813212821
C           57.69640288653991       -0.00202120667075       -0.00403702244012
C           58.95643154499117       -0.02059117741925       -0.01849014829454
C           60.11481157282329       -0.04154740581540       -0.01978554274727
C           61.45516670417443       -0.05390058977003       -0.02204523454843
C           62.72765582121163       -0.04367687427586       -0.02673330213827
C           63.92733138304882       -0.02471294546045       -0.03295684726909
C           65.25819106196343       -0.00006942335087       -0.01737317977256
C           66.39471245286801        0.00130601084150       -0.00017001894316
Co          35.67452933831162       -0.04565211253830       -0.04032798225936
C           32.34211082904797        0.00669691710556        0.00652922960292
C           32.91914789229848        0.88680689778844        0.78942328051260
C           32.28211325580813        1.87194841128040        1.66598582369769
C           33.24320092336616        2.55290036297863        2.27198553180790
C           34.52122835799042        2.03117298162800        1.80778218984846
N           34.32833553235329        0.97806683381479        0.87066905892503
C           35.70845390706788        2.49678347002126        2.22215746481514
C           37.01297566654251        1.99763098751993        1.77801533433656
C           38.27802270446229        2.54021730201727        2.26093987063708
C           39.25438138920312        1.87079581597230        1.66522524092216
N           37.19205324367593        1.03302755156721        0.91956526745308
C           38.59151101738995        0.90339228822181        0.80426678205391
C           39.05853214428723        0.00718722655708        0.00720055933503
C           38.49311942192279       -0.95861368957005       -0.85287532226825
C           39.09222517584971       -1.85049547120376       -1.64672115994723
C           38.04593146683153       -2.59566730788793       -2.30981310587360
C           36.88348524382187       -2.11025165080918       -1.87767630098538
N           37.08206502751916       -1.05681329855704       -0.94014304569078
C           35.58482534671141       -2.62102845744334       -2.33205697187872
C           34.40260780992363       -2.15401200767983       -1.91639059031402
C           33.11747208725817       -2.65662843928188       -2.36351305723307
C           32.20789757132506       -1.93882209902175       -1.72478685748865
C           32.92099784093971       -0.97961309949166       -0.87134846628051
N           34.20657373364949       -1.10136239923217       -0.97978332611688
H           31.22556695199614        2.04404291459460        1.81907176027435
H           33.08652050624013        3.35262475006759        2.98361851333333
H           35.71154874736840        3.30681081198397        2.94297682264531
H           38.41202788412834        3.34132857163050        2.97389554182886
H           40.31123322507260        2.04236129932302        1.81794712539637
H           40.15395911353960       -1.99905743523852       -1.77903885935655
H           38.17442701144450       -3.39777447622960       -3.02366597488367
H           35.58418582441377       -3.43192663278940       -3.05361379563114
H           32.92196972788862       -3.45155759213650       -3.07080119199842
H           31.14003428248569       -2.06113435709089       -1.83354911332058
Co          53.18271853583985       -0.04569490145306       -0.04036606227227
C           49.85000896675245        0.00659388185249        0.00643906822970
C           50.42744592715640        0.88690869762284        0.78951505636020
C           49.79021183296657        1.87194412898466        1.66598191576115
C           50.75131417231500        2.55290875474402        2.27199300974787
C           52.02940007222226        2.03123849524085        1.80784021640529
N           51.83619716487588        0.97809373518898        0.87069232363506
C           53.21643144295591        2.49678875894660        2.22216197604992
C           54.52111387235882        1.99755963459328        1.77795171692918
C           55.78616710702482        2.54020888369381        2.26093232216763
C           56.76246345310071        1.87082662266439        1.66525245490370
N           54.70006101697678        1.03307517303504        0.91960887505118
C           56.09966789496888        0.90325607163439        0.80414557394321
C           56.56640285676036        0.00727783974526        0.00728261359711
C           56.00118455016309       -0.95853927103779       -0.85280753299475
C           56.60028592182748       -1.85054489679829       -1.64676518159807
C           55.55408425749559       -2.59566695372298       -2.30981296722449
C           54.39154689093350       -2.11027339561713       -1.87769581216044
N           54.59020089498004       -1.05682385988028       -0.94015204719393
C           53.09297089125479       -2.62102964122527       -2.33205812966446
C           51.91069089575339       -2.15399448331384       -1.91637509435786
C           50.62559841031982       -2.65662255133399       -2.36350780217557
C           49.71599428166500       -1.93880409706418       -1.72477086063232
C           50.42908322314256       -0.97962794435997       -0.87136078759866
N           51.71467276203911       -1.10138809642956       -0.97980644541167
H           48.73366748681589        2.04404169742528        1.81907067603169
H           50.59462289901847        3.35262609678373        2.98361973825221
H           53.21964948279279        3.30681189643635        2.94297792905830
H           55.92012924276205        3.34132910665619        2.97389603257826
H           57.81933352965906        2.04236385985496        1.81794952468271
H           57.66206083394717       -1.99905756649594       -1.77903889703987
H           55.68252860404838       -3.39777402515711       -3.02366557020935
H           53.09228663097677       -3.43192639601813       -3.05361351241092
H           50.43007321627431       -3.45155780321363       -3.07080138167265
H           48.64813495255056       -2.06113131070449       -1.83354640971624
166
 energy: -305.939610042694 gnorm: 0.980707791453 xtb: 6.5.1 (b24c23e)
Co          16.14357579863128        0.02370310201719        0.02506900918460
C           12.76189143181823       -0.07073810942648       -0.06971881523234
C           13.44133897980115       -0.89706140971050       -0.89976209923327
C           12.80387490885757       -1.82230689456477       -1.82908805281070
C           13.77202737173331       -2.46844412113097       -2.47812451812539
C           15.04736252416985       -1.96838874600597       -1.97589433045004
N           14.84471163952857       -0.98416696870912       -0.98730384167032
C           16.25206741330365       -2.40339525301047       -2.41280719330535
C           17.52829174295868       -1.92339076454614       -1.93062416835109
C           18.80661827032896       -2.41625597051066       -2.42539869013184
C           19.77262565649793       -1.76536417913464       -1.77159451746928
N           17.69039563889475       -0.99962927221968       -1.00291071522665
C           19.10673819898698       -0.85230355230816       -0.85476578051444
C           19.68992064365506        0.00118543116368        0.00240712582866
C           18.95788735183216        0.88427258141688        0.88924022525069
C           19.53389230804988        1.75720491856208        1.76589999893219
C           18.49202854468264        2.44222060702350        2.45390331923711
C           17.31038587272538        1.96761687330666        1.97729640797086
N           17.53440284988476        0.98085741091845        0.98627988756194
C           16.02385351546230        2.44094374730775        2.45280686927283
C           14.84259784529811        1.98611941012393        1.99608373357178
C           13.54122157576349        2.43746417261562        2.44961719773158
C           12.64819375066524        1.73623133533118        1.74537718594328
C           13.38678216209249        0.84734111942131        0.85240640906583
N           14.68988551538259        0.99443345537178        0.99998355731220
H           11.67807165401354       -0.10216054466237       -0.10120755489225
H           11.74356551645867       -1.97326671214365       -1.98066866606746
H           13.61654558992869       -3.22371889239227       -3.23672616191169
H           16.25957104108106       -3.16901947837804       -3.18179497341220
H           18.96357290683376       -3.16907611595449       -3.18137010980897
H           20.83344859232651       -1.91352635979465       -1.92017716829735
H           20.59362459763985        1.89760702673353        1.90689483734551
H           18.59464096111647        3.20047764383228        3.21546214127752
H           15.99793784127030        3.20898636849597        3.22426236803613
H           13.31610367612873        3.18425159949343        3.19979124275467
H           11.57732114214049        1.82348930041142        1.83319543080507
Co          72.80334850654454       -0.05448811236371       -0.00503193804689
C           76.18493528489785        0.07947231137597       -0.01164123908565
C           75.50552572602112        1.24922399804374       -0.06976437774209
C           76.14294513315723        2.55899548720233       -0.13478800411965
C           75.17476100503529        3.47367310872313       -0.18023155589447
C           73.89942270114803        2.76575234301980       -0.14511033128091
N           74.10214702684010        1.37232539446723       -0.07591545678411
C           72.69467510357049        3.38151207165242       -0.17566940230338
C           71.41839815054874        2.70185467525904       -0.14189150065080
C           70.14007823599061        3.39964587953238       -0.17634150767131
C           69.17405021611866        2.47848429493508       -0.13057229562618
N           71.25539646197183        1.39396571581505       -0.07705618899360
C           69.83922920430749        1.18609690151391       -0.06658341259895