314
 energy: -521.016523724326 gnorm: 3.524088000974 xtb: 6.5.1 (b24c23e)
C           42.90867299999999       -0.00906600000000       -0.05736200000000
C           43.63716600000000       -1.26724400000000        0.50724300000000
C           43.02855699999999       -2.43176300000000        0.91695600000000
C           44.05034600000000       -3.28302600000000        1.41180400000000
C           45.24841400000000       -2.60563100000000        1.29395200000000
N           44.98980800000000       -1.39850100000000        0.69426300000000
C           46.67090300000000       -3.10774400000000        1.78348300000000
C           47.80073500000000       -2.43251800000000        1.43864100000000
C           49.10537300000000       -2.82875700000000        1.92783200000000
C           50.00773900000000       -1.97849800000000        1.45253000000000
N           47.99701100000000       -1.32625400000000        0.65417300000000
C           49.32856399999999       -1.00146300000000        0.62418200000000
C           49.99620899999999        0.00104300000000       -0.00691200000000
C           49.21855800000000        1.03391700000000       -0.92760700000000
C           49.75894899999999        1.76930400000000       -1.96457200000000
C           48.73415700000000        2.60293800000000       -2.47742200000000
C           47.59391200000000        2.34558200000000       -1.74674700000000
C           46.18461200000000        3.05129800000000       -1.93016000000000
C           46.15736700000000        4.38961400000000       -2.56303700000000
C           45.78469000000000        4.53479200000000       -3.90533500000000
C           45.77374600000000        5.79680200000000       -4.50227200000000
C           46.13850400000000        6.92124200000000       -3.76074000000000
C           46.51388800000000        6.78455800000000       -2.42354100000000
C           46.52416900000000        5.52212600000000       -1.82706700000000
C           45.05898500000000        2.43000500000000       -1.49094000000000
C           43.73710500000000        3.01875900000000       -1.61401900000000
C           42.85128899999999        2.16664100000000       -1.10659500000000
C           43.57291300000000        1.01187000000000       -0.63059100000000
N           44.89400500000000        1.21968300000000       -0.87664200000000
N           47.88457600000000        1.35161400000000       -0.84211500000000
C           46.70836899999999       -4.29957600000000        2.66433300000000
C           46.45601199999999       -4.17110700000000        4.03527000000000
C           46.48057700000000       -5.29402100000000        4.86450600000000
C           46.75663300000000       -6.55201000000000        4.32684400000000
C           47.00839500000000       -6.68832700000000        2.96093600000000
C           46.98341199999999       -5.56527000000000        2.13198200000000
H           41.83083899999999        0.03930100000000        0.04076500000000
H           41.97019300000000       -2.63851200000000        0.87988800000000
H           43.92315800000000       -4.26980100000000        1.83095600000000
H           45.69102100000000       -0.70911000000000        0.43448500000000
H           49.31644900000000       -3.66021600000000        2.57643500000000
H           51.06127299999999       -2.02880600000000        1.65789100000000
H           50.78086400000000        1.72337300000000       -2.30880300000000
H           48.81866900000000        3.31464600000000       -3.28482000000000
H           45.50045699999999        3.65094500000000       -4.47251900000000
H           45.47946100000000        5.89491600000000       -5.54216800000000
H           46.12971200000000        7.90280500000000       -4.22369600000000
H           46.79892000000000        7.65416500000000       -1.84010600000000
H           46.81519500000000        5.40482300000000       -0.78542400000000
H           43.50925700000000        3.97933900000000       -2.03974500000000
H           41.78778600000000        2.31096500000000       -1.04879900000000
H           47.20128000000000        0.89021300000000       -0.24716800000000
H           46.24369200000000       -3.18532400000000        4.44347900000000
H           46.28533000000000       -5.17973100000000        5.92591100000000
H           46.77729200000000       -7.42457600000000        4.97191900000000
H           47.22619600000000       -7.66284600000000        2.53597900000000
H           47.18135800000000       -5.65814000000000        1.06630900000000
C          125.35656000000000       -0.04026300000000       -0.03759000000000
C          124.62806699999999        1.00742000000000       -0.93433400000000
C          125.23667600000000        1.87505300000000       -1.81250400000000
C          124.21488800000000        2.68594400000000       -2.37105300000000
C          123.01681899999998        2.29019300000000       -1.80879500000000
N          123.27542600000000        1.23257600000000       -0.97319200000000
C          121.59433000000000        2.94722800000000       -2.05387700000000
C          120.46449900000000        2.34713500000000       -1.59048100000000
C          119.15985999999999        2.95866300000000       -1.73996700000000
C          118.25749500000001        2.16587500000000       -1.17398200000000
N          120.26822199999999        1.16548000000000       -0.92497200000000
C          118.93667000000001        0.99970700000000       -0.64406700000000
C          118.26902500000000        0.00104300000000       -0.00691200000000
C          119.04667499999998       -1.27247200000000        0.53407600000000
C          118.50628399999999       -2.52413400000000        0.75641100000000
C          119.53107599999998       -3.34378000000000        1.29133200000000
C          120.67132200000000       -2.57316600000000        1.37052800000000
C          122.08062099999999       -3.04029400000000        1.93040900000000
C          122.10786699999998       -4.18392600000000        2.87047600000000
C          122.48054300000000       -5.45974400000000        2.42873900000000
C          122.49148700000001       -6.53830200000000        3.31514500000000
C          122.12672900000000       -6.34775300000000        4.64853400000000
C          121.75134600000000       -5.08017300000000        5.09577600000000
C          121.74106399999999       -4.00185300000000        4.20879000000000
C          123.20624899999999       -2.37787900000000        1.55607400000000
C          124.52812800000000       -2.74051700000000        2.03594300000000
C          125.41394400000000       -1.91788700000000        1.48199000000000
C          124.69232099999999       -0.99446900000000        0.64093400000000
N          123.37122899999999       -1.30568800000000        0.72382100000000
N          120.38065700000000       -1.33078500000000        0.85786600000000
C          121.55686500000000        4.25256900000000       -2.75562000000000
C          121.80922099999999        5.43746500000000       -2.05419800000000
C          121.78465700000000        6.66671200000000       -2.71565200000000
C          121.50859999999999        6.71753400000000       -4.08277800000000
C          121.25683799999999        5.54053600000000       -4.78915000000000
C          121.28182200000001        4.31148400000000       -4.12744700000000
H          126.43439499999999        0.02782500000000        0.04803800000000
H          126.29504000000000        1.92979200000000       -2.01529200000000
H          124.34207499999999        3.48623500000000       -3.08446000000000
H          122.57421200000000        0.70336000000000       -0.46067300000000
H          118.94878399999999        3.90014200000000       -2.21497000000000
H          117.20396000000000        2.37306000000000       -1.13180700000000
H          117.48436899999999       -2.81581500000000        0.56792500000000
H          119.44656399999998       -4.37773600000000        1.59025600000000
H          122.76477699999998       -5.59533800000000        1.38734700000000
H          122.78577199999999       -7.52056500000000        2.95994200000000
H          122.13552099999998       -7.18543000000000        5.33852800000000
H          121.46631400000000       -4.92380500000000        6.13122800000000
H          121.45003800000001       -3.00981900000000        4.54738600000000
H          124.75597600000000       -3.53556900000000        2.72285500000000
H          126.47744699999998       -1.92723300000000        1.63717500000000
H          121.06395399999998       -0.59580500000000        0.69460100000000
H          122.02154200000000        5.38578100000000       -0.98849100000000
H          121.97990299999998        7.57775100000000       -2.15919000000000
H          121.48794100000001        7.67337200000000       -4.59646000000000
H          121.03903800000001        5.57226500000000       -5.85182100000000
H          121.08387600000000        3.38744000000000       -4.66636100000000
C           52.48017200000000        0.01470100000000        0.00264200000000
C           53.93839800000000       -0.00713600000000       -0.01523100000000
C           55.07232600000000       -0.02788900000000       -0.01672200000000
C           56.43370800000000       -0.04047900000000       -0.01891300000000
C           57.70792700000000       -0.03017300000000       -0.02367800000000
C           58.89638900000000       -0.01137500000000       -0.02983400000000
C           60.24875000000000        0.01341000000000       -0.01396700000000
C           61.34901700000000        0.01470100000000        0.00264200000000
C           70.58708000000000        0.01470100000000        0.00264200000000
C           72.04530599999998       -0.00713600000000       -0.01523100000000
C           73.17923399999999       -0.02788900000000       -0.01672200000000
C           74.54061599999999       -0.04047900000000       -0.01891300000000
C           75.81483500000000       -0.03017300000000       -0.02367800000000
C           77.00329700000000       -0.01137500000000       -0.02983400000000
C           78.35565800000001        0.01341000000000       -0.01396700000000
C           79.45592499999999        0.01470100000000        0.00264200000000
C           88.69398800000000        0.01470100000000        0.00264200000000
C           90.15221399999999       -0.00713600000000       -0.01523100000000
C           91.28614200000000       -0.02788900000000       -0.01672200000000
C           92.64752399999999       -0.04047900000000       -0.01891300000000
C           93.92174300000001       -0.03017300000000       -0.02367800000000
C           95.11020499999999       -0.01137500000000       -0.02983400000000
C           96.46256600000000        0.01341000000000       -0.01396700000000
C           97.56283300000000        0.01470100000000        0.00264200000000
C          106.80089499999998        0.01470100000000        0.00264200000000
C          108.25912199999999       -0.00713600000000       -0.01523100000000
C          109.39305000000000       -0.02788900000000       -0.01672200000000
C          110.75443099999998       -0.04047900000000       -0.01891300000000
C          112.02865000000000       -0.03017300000000       -0.02367800000000
C          113.21711300000000       -0.01137500000000       -0.02983400000000
C          114.56947300000000        0.01341000000000       -0.01396700000000
C          115.66974100000000        0.01470100000000        0.00264200000000
C           62.44874399999999       -0.00350800000000        0.00418700000000
C           63.24239599999999        1.10631500000000        0.81014700000000
C           62.73566999999999        1.93105800000000        1.79404000000000
C           63.77256900000000        2.81975600000000        2.17728000000000
C           64.88200999999999        2.50495500000000        1.42103600000000
N           64.57105799999999        1.41418000000000        0.64823600000000
C           66.27163600000000        3.26506700000000        1.42968000000000
C           67.40644399999999        2.61122500000000        1.06602700000000
C           68.69337500000000        3.27254100000000        1.00008800000000
C           69.60133700000000        2.38425400000000        0.61040900000000
N           67.61447500000000        1.31257100000000        0.69109900000000
C           68.93898299999999        1.11131900000000        0.40792200000000
C           69.60278099999999       -0.00350800000000        0.00418700000000
C           68.80914500000000       -1.35943100000000       -0.20269200000000
C           69.31591199999998       -2.63764200000000       -0.08273100000000
C           68.27900999999999       -3.53913900000000       -0.43481000000000
C           67.16952800000000       -2.78366200000000       -0.75129800000000
C           65.77987500000000       -3.33038400000000       -1.27937000000000
C           65.78900100000000       -4.60860400000000       -2.02919900000000
C           66.26706299999999       -4.64885800000000       -3.34408300000000
C           66.29206800000000       -5.85385000000000       -4.04910300000000
C           65.84128000000000       -7.02677200000000       -3.44207600000000
C           65.36633700000000       -6.99626800000000       -2.13039300000000
C           65.34228000000000       -5.79122000000000       -1.42579700000000
C           64.64507700000000       -2.60968500000000       -1.07845700000000
C           63.35813999999999       -3.03372100000000       -1.59019500000000
C           62.45018200000000       -2.12798800000000       -1.24299300000000
C           63.11254199999999       -1.08024300000000       -0.49227500000000
N           64.43705400000000       -1.42242400000000       -0.43233200000000
N           67.48046300000000       -1.46461400000000       -0.53418100000000
C           66.26239000000000        4.70133600000000        1.79468300000000
C           65.78412700000000        5.65405100000000        0.88766300000000
C           65.75880700000000        7.00672100000000        1.23310100000000
C           66.20948400000000        7.41449400000000        2.48930600000000
C           66.68465700000000        6.47097300000000        3.40089100000000
C           66.70903300000001        5.11855800000000        3.05510800000000
H           61.72723800000000        1.91286500000000        2.17842200000000
H           63.71196400000000        3.61339600000000        2.90674900000000
H           65.23216300000000        0.89156900000000        0.08090300000000
H           68.88801200000000        4.30762000000000        1.21719700000000
H           70.64577899999999        2.59504700000000        0.47069700000000
H           70.32437200000000       -2.89488800000000        0.20336100000000
H           68.33964100000000       -4.61638500000000       -0.47389600000000
H           66.61737800000000       -3.72963300000000       -3.80859800000000
H           66.66381000000000       -5.86946200000000       -5.06862800000000
H           65.86006100000000       -7.96294600000000       -3.99082500000000
H           65.01335600000000       -7.90396400000000       -1.65169900000000
H           64.97277800000001       -5.75520500000000       -0.40313800000000
H           63.16349700000000       -3.92255700000000       -2.16334000000000
H           61.40573899999999       -2.17971200000000       -1.49053300000000
H           66.81933700000000       -0.69412200000000       -0.57027700000000
H           65.43385900000000        5.32659100000000       -0.08883900000000
H           65.38687899999999        7.73432200000000        0.51887000000000
H           66.19042100000000        8.46610500000000        2.75698300000000
H           67.03753500000001        6.78027300000000        4.37939500000000
H           67.07866799999999        4.37423700000000        3.75725800000000
C           80.55565199999999       -0.00350800000000        0.00418700000000
C           81.34930400000000        1.10631500000000        0.81014700000000
C           80.84257700000001        1.93105800000000        1.79404000000000
C           81.87947600000000        2.81975600000000        2.17728000000000
C           82.98891800000000        2.50495500000000        1.42103600000000
N           82.67796600000000        1.41418000000000        0.64823600000000
C           84.37854400000001        3.26506700000000        1.42968000000000
C           85.51335200000000        2.61122500000000        1.06602700000000
C           86.80028299999999        3.27254100000000        1.00008800000000
C           87.70824499999999        2.38425400000000        0.61040900000000
N           85.72138300000000        1.31257100000000        0.69109900000000
C           87.04589100000000        1.11131900000000        0.40792200000000
C           87.70968899999998       -0.00350800000000        0.00418700000000
C           86.91605300000001       -1.35943100000000       -0.20269200000000
C           87.42281999999999       -2.63764200000000       -0.08273100000000
C           86.38591800000000       -3.53913900000000       -0.43481000000000
C           85.27643500000001       -2.78366200000000       -0.75129800000000
C           83.88678299999999       -3.33038400000000       -1.27937000000000
C           83.89590899999999       -4.60860400000000       -2.02919900000000
C           84.37397100000000       -4.64885800000000       -3.34408300000000
C           84.39897600000000       -5.85385000000000       -4.04910300000000
C           83.94818700000000       -7.02677200000000       -3.44207600000000
C           83.47324500000001       -6.99626800000000       -2.13039300000000
C           83.44918800000001       -5.79122000000000       -1.42579700000000
C           82.75198500000000       -2.60968500000000       -1.07845700000000
C           81.46504800000000       -3.03372100000000       -1.59019500000000
C           80.55708899999999       -2.12798800000000       -1.24299300000000
C           81.21944999999999       -1.08024300000000       -0.49227500000000
N           82.54396199999999       -1.42242400000000       -0.43233200000000
N           85.58737100000000       -1.46461400000000       -0.53418100000000
C           84.36929800000000        4.70133600000000        1.79468300000000
C           83.89103499999999        5.65405100000000        0.88766300000000
C           83.86571499999998        7.00672100000000        1.23310100000000
C           84.31639199999998        7.41449400000000        2.48930600000000
C           84.79156399999998        6.47097300000000        3.40089100000000
C           84.81594100000000        5.11855800000000        3.05510800000000
H           79.83414600000000        1.91286500000000        2.17842200000000
H           81.81887100000000        3.61339600000000        2.90674900000000
H           83.33907000000001        0.89156900000000        0.08090300000000
H           86.99491999999999        4.30762000000000        1.21719700000000
H           88.75268699999998        2.59504700000000        0.47069700000000
H           88.43128000000000       -2.89488800000000        0.20336100000000
H           86.44654900000000       -4.61638500000000       -0.47389600000000
H           84.72428600000001       -3.72963300000000       -3.80859800000000
H           84.77071799999999       -5.86946200000000       -5.06862800000000
H           83.96696900000001       -7.96294600000000       -3.99082500000000
H           83.12026299999999       -7.90396400000000       -1.65169900000000
H           83.07968599999998       -5.75520500000000       -0.40313800000000
H           81.27040400000000       -3.92255700000000       -2.16334000000000
H           79.51264700000000       -2.17971200000000       -1.49053300000000
H           84.92624499999998       -0.69412200000000       -0.57027700000000
H           83.54076700000000        5.32659100000000       -0.08883900000000
H           83.49378700000000        7.73432200000000        0.51887000000000
H           84.29732799999999        8.46610500000000        2.75698300000000
H           85.14444300000000        6.78027300000000        4.37939500000000
H           85.18557600000000        4.37423700000000        3.75725800000000
C           98.66255900000000       -0.00350800000000        0.00418700000000
C           99.45621100000000        1.10631500000000        0.81014700000000
C           98.94948500000000        1.93105800000000        1.79404000000000
C           99.98638400000000        2.81975600000000        2.17728000000000
C          101.09582600000000        2.50495500000000        1.42103600000000
N          100.78487399999999        1.41418000000000        0.64823600000000
C          102.48545100000000        3.26506700000000        1.42968000000000
C          103.62026000000000        2.61122500000000        1.06602700000000
C          104.90719100000000        3.27254100000000        1.00008800000000
C          105.81515299999998        2.38425400000000        0.61040900000000
N          103.82829099999999        1.31257100000000        0.69109900000000
C          105.15279900000000        1.11131900000000        0.40792200000000
C          105.81659699999999       -0.00350800000000        0.00418700000000
C          105.02296100000000       -1.35943100000000       -0.20269200000000
C          105.52972699999998       -2.63764200000000       -0.08273100000000
C          104.49282599999998       -3.53913900000000       -0.43481000000000
C          103.38334300000000       -2.78366200000000       -0.75129800000000
C          101.99369099999998       -3.33038400000000       -1.27937000000000
C          102.00281699999998       -4.60860400000000       -2.02919900000000
C          102.48087900000000       -4.64885800000000       -3.34408300000000
C          102.50588399999999       -5.85385000000000       -4.04910300000000
C          102.05509499999999       -7.02677200000000       -3.44207600000000
C          101.58015300000000       -6.99626800000000       -2.13039300000000
C          101.55609600000000       -5.79122000000000       -1.42579700000000
C          100.85889299999999       -2.60968500000000       -1.07845700000000
C           99.57195600000000       -3.03372100000000       -1.59019500000000
C           98.66399699999998       -2.12798800000000       -1.24299300000000
C           99.32635800000000       -1.08024300000000       -0.49227500000000
N          100.65087000000000       -1.42242400000000       -0.43233200000000
N          103.69427899999999       -1.46461400000000       -0.53418100000000
C          102.47620499999999        4.70133600000000        1.79468300000000
C          101.99794199999999        5.65405100000000        0.88766300000000
C          101.97262299999998        7.00672100000000        1.23310100000000
C          102.42329999999998        7.41449400000000        2.48930600000000
C          102.89847199999998        6.47097300000000        3.40089100000000
C          102.92284900000000        5.11855800000000        3.05510800000000
H           97.94105399999999        1.91286500000000        2.17842200000000
H           99.92577900000001        3.61339600000000        2.90674900000000
H          101.44597800000000        0.89156900000000        0.08090300000000
H          105.10182800000000        4.30762000000000        1.21719700000000
H          106.85959399999999        2.59504700000000        0.47069700000000
H          106.53818800000001       -2.89488800000000        0.20336100000000
H          104.55345699999999       -4.61638500000000       -0.47389600000000
H          102.83119400000000       -3.72963300000000       -3.80859800000000
H          102.87762599999999       -5.86946200000000       -5.06862800000000
H          102.07387700000000       -7.96294600000000       -3.99082500000000
H          101.22717100000000       -7.90396400000000       -1.65169900000000
H          101.18659399999999       -5.75520500000000       -0.40313800000000
H           99.37731200000000       -3.92255700000000       -2.16334000000000
H           97.61955500000001       -2.17971200000000       -1.49053300000000
H          103.03315300000000       -0.69412200000000       -0.57027700000000
H          101.64767499999999        5.32659100000000       -0.08883900000000
H          101.60069500000000        7.73432200000000        0.51887000000000
H          102.40423600000000        8.46610500000000        2.75698300000000
H          103.25135100000000        6.78027300000000        4.37939500000000
H          103.29248400000000        4.37423700000000        3.75725800000000
314
 energy: -522.411193499431 gnorm: 1.206483837308 xtb: 6.5.1 (b24c23e)
C           42.91582417502868       -0.02104009496974       -0.05189967282397
C           43.63379641802874       -1.25848143777725        0.50309881035595
C           43.03000698674840       -2.43451333283537        0.91899682097085
C           44.04771765145818       -3.28203150957790        1.41192703907267
C           45.25804438887310       -2.60782490663059        1.29625661570606
N           44.98991280643030       -1.39827487816915        0.69464012258123
C           46.65805578321228       -3.10253298830064        1.77876662240317
C           47.80353156078556       -2.43021293840171        1.43772608953589
C           49.10586634614390       -2.83102780306789        1.92951870521708
C           50.01079750719130       -1.97863324358451        1.45307276262126
N           47.99373940475857       -1.32459424942402        0.65298203482587
C           49.33027614178051       -1.00161027357858        0.62451446194523
C           49.98685038729450        0.00952616201696       -0.01556243543525
C           49.22392096437014        1.02589387426218       -0.92175365052594
C           49.75820857215146        1.77190170812298       -1.96556083524642
C           48.73686407912432        2.60234418177751       -2.47656961220769
C           47.58469910319673        2.34879103636335       -1.74687840796692
C           46.19675684454929        3.04470421472825       -1.92797178231675
C           46.15879776845186        4.38862979656967       -2.56336897529463
C           45.78461292176247        4.53533734483457       -3.90490958423954
C           45.77395719864116        5.79631433739047       -4.50094549758175
C           46.13851634595351        6.92032876397221       -3.76028623045356
C           46.51349387067948        6.78323569674860       -2.42394716533069
C           46.52425878099047        5.52215533336077       -1.82782286690152
C           45.05652939354017        2.42843086446096       -1.48931295592360
C           43.73639412119272        3.02156720922903       -1.61540097785818
C           42.84878959608771        2.16811523443227       -1.10702139631579
C           43.57497945193497        1.01430347704515       -0.63155637893254
N           44.89731877493811        1.21759430657219       -0.87577305111138
N           47.88476624186715        1.35207634720447       -0.84143740173311
C           46.70705180122903       -4.29925067569585        2.66351001942583
C           46.45596278102168       -4.17175117966587        4.03488913445429
C           46.48086357679396       -5.29380374635492        4.86311501757502
C           46.75661945504024       -6.55117994639341        4.32624144725265
C           47.00824577088945       -6.68693374397476        2.96117294013297
C           46.98343583712504       -5.56513261491130        2.13268045701991
H           41.83260468382716        0.03747521181248        0.04100747145117
H           41.97064990280196       -2.63894946871877        0.88008860900344
H           43.92283309590667       -4.26950522679994        1.83074891668724
H           45.69064261733077       -0.70947889024164        0.43466191590834
H           49.31584726872815       -3.66134692852824        2.57712206776472
H           51.06281836170291       -2.02780218527752        1.65735239894401
H           50.78056745676948        1.72365127104902       -2.30879283442548
H           48.81903557828259        3.31430916426907       -3.28455603575318
H           45.50066006262809        3.65156980065813       -4.47239032373475
H           45.47961466854523        5.89497598396300       -5.54177424832436
H           46.12973849027937        7.90248878501628       -4.22355790694671
H           46.79877501330714        7.65388321677882       -1.84041428634137
H           46.81509733525739        5.40507618220350       -0.78600425134320
H           43.50979090984967        3.98059665660585       -2.04047781471010
H           41.78655342697808        2.31067914064940       -1.04855112612932
H           47.20178613958534        0.89056169289981       -0.24747719761463
H           46.24374730925596       -3.18597220481183        4.44342849384973
H           46.28542575263729       -5.17987721027073        5.92550857656474
H           46.77726263352764       -7.42429830599844        4.97170603012214
H           47.22607909360793       -7.66251482814539        2.53623465876210
H           47.18120084446161       -5.65830948717612        1.06693679910249
C          125.34940386594549       -0.03019575118923       -0.04609972764558
C          124.63144213352156        0.99991735668366       -0.92816739211777
C          125.23522493654521        1.87808233206818       -1.81412670786823
C          124.21752843912418        2.68562698822279       -2.37010059468128
C          123.00718092870324        2.29321210942180       -1.80978365349831
N          123.27531633401881        1.23282161809998       -0.97282872055130
C          121.60717624737983        2.94072262920204       -2.05117500331096
C          120.46169524632944        2.34530443460368       -1.58878612790085
C          119.15936905882079        2.96115909385635       -1.74129334591031
C          118.25444432382737        2.16645590286717       -1.17391588688064
N          120.27139231065254        1.16361692185304       -0.92386328295074