188
 energy: -327.213918126291 gnorm: 0.842132102112 xtb: 6.5.1 (b24c23e)
C           25.12253200000000       -0.02253400000000        0.09879800000000
C           25.85075100000000        1.35343000000000        0.17755100000000
C           25.24344300000000        2.57509000000000        0.35591900000000
C           26.26606300000000        3.55792400000000        0.30884700000000
C           27.46353300000000        2.90216800000000        0.09377100000000
N           27.20278800000000        1.55490100000000        0.06240600000000
C           28.88637400000000        3.57097000000000       -0.10918000000000
C           28.92577100000000        5.03694500000000       -0.31290900000000
C           29.23012000000000        5.88825400000000        0.75635200000000
C           29.25905300000000        7.27195800000000        0.56932600000000
C           28.98255200000000        7.81178300000000       -0.69132900000000
C           29.01334600000000        9.23153800000000       -0.88721800000000
N           29.03707100000000       10.38102200000000       -1.05150500000000
C           28.67585700000000        6.96437500000000       -1.76180100000000
C           28.64763200000000        5.58040300000000       -1.57111500000000
C           30.01664700000000        2.81448500000000       -0.13266300000000
C           31.31974000000000        3.39538000000000       -0.38474900000000
C           32.22316700000000        2.42276100000000       -0.36859000000000
N           30.21476400000000        1.46898900000000        0.03511800000000
C           31.54672600000000        1.17003900000000       -0.09409800000000
C           32.21809200000000       -0.00961300000000       -0.00877700000000
C           31.44494600000000       -1.35761000000000        0.31814700000000
C           31.99864500000000       -2.50903600000000        0.84535100000000
C           30.97133100000000       -3.48219200000000        0.91796200000000
C           29.81763800000000       -2.89610200000000        0.44240100000000
N           30.10308000000000       -1.58751800000000        0.13592700000000
C           28.40455700000000       -3.59895000000000        0.28788200000000
C           28.37217700000000       -5.07472700000000        0.20114100000000
C           28.02981800000000       -5.84533800000000        1.31942400000000
C           28.00841800000000       -7.23851400000000        1.23406900000000
C           28.33369300000000       -7.86988200000000        0.02842700000000
C           28.31002800000000       -9.30018300000000       -0.06179100000000
N           28.29183400000000      -10.45917300000000       -0.13551100000000
C           28.68034700000000       -7.10330100000000       -1.09020600000000
C           28.69869500000000       -5.71026500000000       -1.00201500000000
C           27.27721200000000       -2.84644900000000        0.20352500000000
C           25.95381500000000       -3.42508500000000        0.04803600000000
C           25.06648600000000       -2.43490400000000        0.01062400000000
C           25.78878500000000       -1.19214600000000        0.12383100000000
N           27.11118200000000       -1.48986400000000        0.23329800000000
H           24.04368500000000       -0.02108900000000       -0.00222100000000
H           24.18548300000000        2.74101800000000        0.48897000000000
H           26.13778800000000        4.62604200000000        0.39770100000000
H           27.90218800000000        0.82229000000000       -0.02801700000000
H           29.44863800000000        5.45442600000000        1.73092900000000
H           29.49887100000000        7.91397500000000        1.41244800000000
H           28.46012700000000        7.36450800000000       -2.74814100000000
H           28.41224200000000        4.91123700000000       -2.39554000000000
H           31.53267100000000        4.43294700000000       -0.57044000000000
H           33.27569100000000        2.56533700000000       -0.53244900000000
H           33.03175700000000       -2.64311600000000        1.12815100000000
H           31.06959700000000       -4.49974400000000        1.26018400000000
H           29.41517600000000       -0.89191500000000       -0.14362300000000
H           27.77534500000000       -5.34160200000000        2.24973600000000
H           27.73703300000000       -7.81737700000000        2.11260000000000
H           28.93856000000000       -7.57451900000000       -2.03500800000000
H           28.96231300000000       -5.10189300000000       -1.86635400000000
H           25.72227900000000       -4.47194100000000       -0.02483700000000
H           24.00119800000000       -2.53480100000000       -0.09659700000000
C           66.51040800000000        0.03267100000000        0.09097900000000
C           65.78218900000000       -1.26730800000000        0.54872600000000
C           66.38949700000001       -2.39139000000000        1.05932100000000
C           65.36687700000000       -3.34864200000000        1.28702400000000
C           64.16940700000001       -2.77840000000000        0.89831000000000
N           64.43015200000001       -1.49283000000000        0.49405600000000
C           62.74656600000000       -3.47725600000000        0.88906100000000
C           62.70716899999999       -4.94214900000000        1.10043000000000
C           62.40282000000000       -5.46305400000000        2.36403800000000
C           62.37388700000000       -6.84427300000000        2.56860800000000
C           62.65038699999999       -7.71293800000000        1.50743800000000
C           62.61959299999999       -9.13125100000000        1.71350500000000
N           62.59586899999999      -10.28114800000000        1.87487900000000
C           62.95708299999999       -7.19611700000000        0.24374900000000
C           62.98530800000000       -5.81362400000000        0.04262100000000
C           61.61629299999999       -2.75704400000000        0.65643300000000
C           60.31320000000000       -3.38509400000000        0.57556900000000
C           59.40977300000000       -2.44624100000000        0.32100700000000
N           61.41817600000000       -1.41787500000000        0.44398400000000
C           60.08621400000000       -1.16656400000000        0.23683500000000
C           59.41484800000000       -0.00961300000000       -0.00877700000000
C           60.18799400000000        1.37615100000000       -0.06903600000000
C           59.63429400000000        2.62869100000000        0.11769500000000
C           60.66160799999999        3.58373700000000       -0.08278600000000
C           61.81530200000000        2.88863900000000       -0.37689300000000
N           61.52985899999999        1.54641600000000       -0.30793200000000
C           63.22838200000000        3.52093600000000       -0.72050700000000
C           63.26076300000000        4.91458600000000       -1.21364600000000
C           63.60312200000000        5.96542500000000       -0.35333500000000
C           63.62452199999999        7.28010500000000       -0.82220400000000
C           63.29924700000000        7.55184800000000       -2.15575300000000
C           63.32291200000000        8.90084400000000       -2.63960300000000
N           63.34110600000000        9.99378000000000       -3.03226300000000
C           62.95259299999999        6.50478400000000       -3.01752000000000
C           62.93424499999999        5.19102400000000       -2.54596500000000
C           64.35572800000000        2.77460600000000       -0.59258500000000
C           65.67912500000000        3.28730700000000       -0.90264000000000
C           66.56645399999999        2.32568000000000       -0.66361700000000
C           65.84415500000000        1.16323500000000       -0.20976100000000
N           64.52175800000001        1.47964200000000       -0.18727300000000
H           67.58925499999999        0.00323200000000       -0.00566500000000
H           67.44745700000000       -2.51384600000000        1.23321600000000
H           65.49515200000000       -4.35007700000000        1.66898900000000
H           63.73075200000000       -0.81414100000000        0.20375100000000
H           62.18430200000000       -4.77565800000000        3.17981600000000
H           62.13406899999999       -7.22691400000000        3.55685200000000
H           63.17281299999999       -7.85441000000000       -0.59268500000000
H           63.22069800000000       -5.39971000000000       -0.93520000000000
H           60.10026900000000       -4.43342000000000        0.68530400000000
H           58.35724900000000       -2.62871100000000        0.20318400000000
H           58.60118300000000        2.83602900000000        0.35214000000000
H           60.56334300000000        4.65630200000000       -0.03658700000000
H           62.21776400000000        0.80054300000000       -0.38332600000000
H           63.85759500000000        5.73983900000000        0.68027200000000
H           63.89590699999999        8.08016200000000       -0.13896900000000
H           62.69438000000000        6.69510700000000       -4.05601600000000
H           62.67062700000000        4.36656000000000       -3.20737100000000
H           65.91066100000000        4.27275500000000       -1.26334900000000
H           67.63174200000000        2.39187400000000       -0.79436200000000
C           38.43269399999999       -0.00851100000000       -0.00028700000000
C           37.22375500000000       -0.02196600000000       -0.00873400000000
C           35.80222599999999       -0.01314700000000       -0.02071700000000
C           34.59055700000000       -0.00570800000000       -0.00985400000000
C           39.84929900000000       -0.01518600000000        0.00024600000000
C           41.06999500000000       -0.00570800000000       -0.00985400000000
C           54.40793300000000       -0.00851100000000       -0.00028700000000
C           53.19899400000000       -0.02196600000000       -0.00873400000000
C           51.77746500000000       -0.01314700000000       -0.02071700000000
C           50.56579499999999       -0.00570800000000       -0.00985400000000
C           55.82453800000000       -0.01518600000000        0.00024600000000
C           57.04523300000000       -0.00570800000000       -0.00985400000000
C           42.23741799999999        0.02073900000000        0.01989500000000
C           43.03265200000000        1.17247000000000       -0.72184200000000
C           42.53148600000000        2.39283800000000       -1.12660200000000
C           43.57004800000000        3.06856300000000       -1.81732000000000
C           44.67382599999999        2.24170700000000       -1.80729600000000
N           44.35942200000000        1.12627600000000       -1.07253800000000
C           46.06065599999999        2.51543700000000       -2.51854200000000
C           46.04852300000000        3.36082200000000       -3.73290700000000
C           45.57186100000000        2.84198600000000       -4.94234300000000
C           45.54524100000000        3.63867100000000       -6.08918300000000
C           45.99446500000000        4.96282600000000       -6.03070200000000
C           45.96838800000000        5.78191200000000       -7.20667500000000
N           45.94709900000000        6.44789200000000       -8.15870600000000
C           46.46857100000000        5.48733600000000       -4.82286200000000
C           46.49293600000000        4.68794300000000       -3.67812200000000
C           47.19703199999999        1.94317800000000       -2.04220200000000
C           48.48245299999999        2.11435800000000       -2.68782600000000
C           49.39153400000000        1.43429700000000       -1.99757200000000
N           47.40687100000000        1.13215600000000       -0.96224600000000
C           48.73104700000000        0.79460100000000       -0.87787400000000
C           49.39537199999999        0.02073900000000        0.01989500000000
C           48.60015499999999       -0.65269300000000        1.21286300000000
C           49.10140700000000       -0.98591600000000        2.45463200000000
C           48.06285200000000       -1.63612000000000        3.16943000000000
C           46.95897099999999       -1.67394700000000        2.34351900000000
N           47.27332100000000       -1.00525000000000        1.18726300000000
C           45.57214600000000       -2.36807500000000        2.65821100000000
C           45.58446500000000       -3.53151900000000        3.57242000000000
C           46.06276800000000       -4.76843200000000        3.12474400000000
C           46.08959700000000       -5.86735200000000        3.98630000000000
C           45.63896200000000       -5.73298800000000        5.30443300000000
C           45.66520200000000       -6.85975600000000        6.18998200000000
N           45.68656600000000       -7.77187700000000        6.90963100000000
C           45.16326600000000       -4.49732900000000        5.75790200000000
C           45.13872400000000       -3.40063800000000        4.89375400000000
C           44.43573900000000       -1.92579300000000        2.05928600000000
C           43.15036899999999       -2.56053100000000        2.26754300000000
C           42.24127800000000       -1.91104900000000        1.54846000000000
C           42.90171400000000       -0.83034800000000        0.84483800000000
N           44.22584799999999       -0.89474500000000        1.18694100000000
H           41.52589300000000        2.74995000000000       -0.96342700000000
H           43.51215000000000        4.03924700000000       -2.28602000000000
H           45.01695900000000        0.40383600000000       -0.79368800000000
H           45.22443200000000        1.81085400000000       -4.97640700000000
H           45.17255600000000        3.21417900000000       -7.01767900000000
H           46.82203199999999        6.51297900000000       -4.75840800000000
H           46.86128600000000        5.08330700000000       -2.73302000000000
H           48.67821899999999        2.68346900000000       -3.57866600000000
H           50.43563000000000        1.37682100000000       -2.24600800000000
H           50.10704999999999       -0.80243000000000        2.80155400000000
H           48.12079300000000       -2.04771800000000        4.16568000000000
H           46.61570900000000       -0.76860900000000        0.45001600000000
H           46.41132799999999       -4.86162400000000        2.09765100000000
H           46.46355300000000       -6.81844300000000        3.61645900000000
H           44.80869400000000       -4.37413700000000        6.77777600000000
H           44.76917700000000       -2.43462900000000        5.23357400000000
H           42.95465099999999       -3.41688000000000        2.88735400000000
H           41.19722700000000       -2.16257200000000        1.50535600000000
188
 energy: -327.452824711986 gnorm: 0.355071816581 xtb: 6.5.1 (b24c23e)
C           25.14812392168059        0.01016523555399        0.10050660139205
C           25.84769951159607        1.33596798202166        0.17675692418762
C           25.24863465935631        2.58054391066270        0.35224165920289
C           26.26382761603649        3.55528244921494        0.30442764900182
C           27.48201168547081        2.90519323689259        0.09196192065132
N           27.20429226514478        1.55435677265194        0.06039716666923
C           28.85462600087013        3.54704336582877       -0.10403441778701
C           28.91560778898903        5.02795953127529       -0.30891953343907
C           29.22956605958814        5.88654910621466        0.75341339588728
C           29.25926608972550        7.26652479768194        0.56835108741987
C           28.98238486939903        7.81185971352740       -0.69139440468043
C           29.01319678331410        9.23126166709742       -0.88739177995504
N           29.03687715025459       10.37104460647318       -1.04998090955966
C           28.67681788754244        6.95948198543128       -1.75966059919459
C           28.64643127855117        5.58020875355605       -1.56720429229270
C           30.01922437190975        2.80348922917301       -0.13342875845681
C           31.32199816940809        3.40127205700828       -0.38605933753728
C           32.23366316637303        2.42414802528515       -0.36951927152800
N           30.21223637418695        1.45644506263920        0.03390471595246
C           31.55664328029973        1.16524495916812       -0.09392884548554
C           32.21537405502573       -0.03987609015699        0.00826064197585
C           31.45997266862699       -1.33793793094407        0.31702926944648
C           31.99833283585602       -2.51342029411627        0.84014015822004
C           30.97576881065567       -3.47895041424904        0.91204640629923
C           29.80166723850739       -2.89729146789487        0.43947783101551
N           30.10786369194242       -1.58469569578903        0.13089359790080
C           28.43683174765227       -3.57610711833947        0.29013513895035
C           28.38342200374274       -5.06612914222281        0.20497998775989
C           28.03034595565517       -5.84389238582429        1.31615251964238
C           28.00819573260445       -7.23348755671264        1.23255651121965
C           28.33379453490015       -7.87006912591069        0.02830097093465
C           28.31029025200761       -9.30003946070771       -0.06172016839096
N           28.29194162322967      -10.44912784943991       -0.13490457350887
C           28.67942222804058       -7.09854694483286       -1.08851294680589
C           28.70005489914481       -5.70953562427075       -0.99821396368685
C           27.27703067679808       -2.83875276906756        0.20131044443106
C           25.95267793932888       -3.43364637408637        0.04812544445290
C           25.06107953914515       -2.43904562282907        0.00972700466845
C           25.79747702661158       -1.19311350533957        0.12246603481271
N           27.12258945888071       -1.48178800285647        0.23276421387524
H           24.05999609291637       -0.00605164924189        0.00225986670201
H           24.18960485602544        2.74470867525628        0.48889630683231
H           26.13600839758380        4.62356564557201        0.39765408109688
H           27.90185229392631        0.82312553474236       -0.02836742722768
H           29.44754070042305        5.45720091560184        1.72837650581372
H           29.49807213623945        7.91248646521092        1.40911106499899
H           28.46107121421904        7.36409539027951       -2.74472377596778
H           28.41233286295002        4.91452062335611       -2.39389476693095
H           31.52857728586310        4.43989598458173       -0.57057179034568
H           33.28515716023824        2.56022333631732       -0.53247221053305
H           33.02993884989597       -2.64581412035764        1.12770944219951
H           31.07164644248732       -4.49674673856867        1.25980165754468
H           29.41856514353501       -0.89200797472093       -0.14410282858223
H           27.77653143298362       -5.34436945345144        2.24761234777471
H           27.73798211529271       -7.81623978053428        2.10920427829812
H           28.93711510550112       -7.57392957168612       -2.03142473704747
H           28.96223209737892       -5.10528347558726       -1.86392240104416
H           25.72594008519194       -4.48058939747001       -0.02438909259566
H           23.99551437675273       -2.53311155418641       -0.09690116006464
C           66.48481377407872        0.00173035534762        0.10170196055052
C           65.78524136175773       -1.25075223592676        0.54311372083733
C           66.38430554273330       -2.39765239798992        1.05730280379337
C           65.36911278616643       -3.34732998887462        1.28204549762803
C           64.15092646805186       -2.78180342908493        0.89741392387460
N           64.42864599771845       -1.49286424612386        0.49197564892186
C           62.77829824047019       -3.45282598475324        0.88735466044417
C           62.71732778400494       -4.93240350968437        1.10176680754276
C           62.40337318471001       -5.46223074457684        2.36074128939090
C           62.37367363827632       -6.83932358244602        2.56616368753712
C           62.65055401501647       -7.71302907821435        1.50739807472602
C           62.61974440364676       -9.13103438523108        1.71326284120859
N           62.59606112413525      -10.27113977031183        1.87356540783252
C           62.95612181601898       -7.19082098946086        0.24444856083434
C           62.98650825348317       -5.81234930985713        0.04632471514963
C           61.61369621537931       -2.74666200582587        0.65262773881939
C           60.31092823953600       -3.39110109918679        0.57594037257446
C           59.39923904026542       -2.44781989686753        0.32050518724054
N           61.42062688065208       -1.40611151069440        0.43930363518838
C           60.07615809292334       -1.16183622427114        0.23569200719591
C           59.41733172754170        0.02441029068598       -0.00059425622924
C           60.17295913488690        1.35696736895120       -0.06467358212191
C           59.63460946820673        2.63147507931388        0.11147476858536
C           60.65716749771558        3.57898268084151       -0.08756960906009
C           61.83127869250065        2.88896885224319       -0.38003584539318
N           61.52507342142334        1.54230327081610       -0.31200023279895
C           63.19610133282116        3.49961840121518       -0.71199823068716
C           63.24951661986471        4.90739414516038       -1.20756990797366
C           63.60259438941409        5.96312726935393       -0.35607446963140
C           63.62474349044489        7.27485621530982       -0.82226232605711
C           63.29914448332485        7.55199130270573       -2.15592703794027
C           63.32265036560805        8.90072658480307       -2.63949748783779
N           63.34099994799121        9.98430003986587       -3.02888332401984
C           62.95351841794847        6.50068635342039       -3.01457335781346
C           62.93288469086234        5.19137760835948       -2.54211123772511
C           64.35591058112671        2.76659555840158       -0.59257735870301
C           65.68026164463218        3.29555606667698       -0.90493074674242
C           66.57186093598374        2.32940950821978       -0.66562859791443
C           65.83546466408939        1.16378683290921       -0.21134178884781
N           64.51035016892484        1.47173711385759       -0.18554067551486
H           67.57294269133017       -0.00996997078659        0.00281625293105
H           67.44333495362115       -2.51741251848667        1.23417044165977
H           65.49693139517547       -4.34771007779638        1.66825673079668
H           63.73108694613730       -0.81504089811364        0.20364640012701
H           62.18539941308634       -4.77903253937910        3.17813469625469
H           62.13486818438503       -7.22641013014882        3.55323300929247
H           63.17186961213884       -7.85306424039860       -0.58951616250044
H           63.22060765989519       -5.40240695738085       -0.93270798645580
H           60.10436351040627       -4.44012384505696        0.68710534676725
H           58.34776572090947       -2.62382209451449        0.20174182374240
H           58.60299675047344        2.83849246755620        0.35096505865703
H           60.56129298087703        4.65331642370941       -0.03612193058728
H           62.21437221606243        0.80049499457617       -0.38381417326060
H           63.85640861764519        5.74190762588006        0.67746491368165
H           63.89495805599081        8.07812565044064       -0.14191530298547
H           62.69582450983133        6.69553468717474       -4.05240844274548
H           62.67070769416477        4.37049240836655       -3.20597631230947
H           65.90699891978051        4.28118624757609       -1.26531959337214
H           67.63742510375822        2.39016615149668       -0.79418470432313
C           38.42095517742897       -0.01059546988014        0.00076762843218
C           37.19257992592199       -0.02197329681450       -0.00926878710366
C           35.78181884364400       -0.01324063306225       -0.01979322664121
C           34.54929258840426       -0.00731213553943       -0.00927652979634
C           39.78833713589679       -0.01242512778593       -0.00720262058299
C           41.00514645475334        0.01244776876552       -0.02369473408360
C           54.43990541500291       -0.00870847963123       -0.00100790694879
C           53.21167708694905       -0.02219371006841       -0.01201894347433
C           51.84250888169491       -0.01769068957014       -0.01659085542772
C           50.62681601202180       -0.02102680202415        0.00988515039916
C           55.84865566289903       -0.01424988465237        0.00007286446232
C           57.08240390172722       -0.00506321988799       -0.00897628282129
C           42.31254971584908        0.04863183089630        0.01365259776834
C           43.04450793472360        1.16865417994386       -0.71405001708129
C           42.53564706908310        2.39104422585758       -1.13413525771740
C           43.56753980848201        3.06362615964134       -1.82185543164497
C           44.69169781869162        2.24431852071205       -1.81371426122446
N           44.36571065943840        1.12627257244144       -1.07827161047087
C           46.03127870769049        2.50632053574392       -2.50124618212044
C           46.03855841581807        3.35986431109685       -3.72414412568634
C           45.57060835480482        2.84504679763979       -4.93975246366319
C           45.54641743541380        3.63705623121313       -6.08448524880594
C           45.99440507355725        4.96309085828193       -6.03095168658596
C           45.96828118820652        5.78199363119439       -7.20659334463923
N           45.94731551061253        6.44189870920786       -8.15023642459749
C           46.46881749611899        5.48306604756164       -4.81987912512518
C           46.49259185732498        4.68489110046020       -3.67930070399955
C           47.19439625464432        1.94064643198341       -2.04246885662712
C           48.48219747936346        2.12082225305262       -2.69648463194036
C           49.39279171383302        1.43495656077599       -1.99968390234190
N           47.38471652630471        1.12850186422669       -0.95989847930987
C           48.69153785667281        0.80284157371541       -0.89254399017785
C           49.31918706702040        0.01633263619565        0.04807072080291
C           48.58837536846917       -0.64499000989436        1.20846739498478
C           49.09729360199528       -0.99358497354659        2.45323665278898
C           48.06539200725238       -1.64091397733572        3.16474388762161
C           46.94112486045637       -1.68018510142299        2.34645487603584
N           47.26707601608442       -1.01090409609847        1.18756413186106
C           45.60150606163825       -2.35131008298330        2.64806855842381
C           45.59443205806132       -3.52280622953955        3.57094530029327
C           46.06402225243958       -4.76566618426408        3.12764417335242
C           46.08841985700627       -5.86275704327132        3.98441290334853
C           45.63901923909027       -5.73321865724606        5.30470704440550
C           45.66530540207071       -6.85966848116574        6.19005410651086
N           45.68634826054345       -7.76376196639438        6.90317569776659
C           45.16302359032394       -4.49459382735619        5.75345933843185
C           45.13906474049472       -3.40198743063377        4.89076320341013
C           44.43834671336880       -1.92617887748985        2.05676419470378
C           43.15065384142431       -2.56878942844803        2.27450241230566
C           42.24003286404974       -1.91307614487932        1.54919217082940
C           42.94117806898812       -0.84457331601838        0.85378605393372
N           44.24782743281349       -0.89251356148116        1.18300345726008
H           41.52963771745537        2.74916508886663       -0.96520102068890
H           43.50962252363269        4.03716438873341       -2.28496176752361
H           45.01814969648818        0.40489495352680       -0.79552527929460
H           45.22493340774744        1.81460888508832       -4.97749214928134
H           45.17426457955729        3.21643024784911       -7.01506599019905
H           46.82057574913395        6.50967513448842       -4.75956313909727
H           46.85986827468405        5.08329341398538       -2.73662216125918
H           48.67535500548374        2.68952647534818       -3.58555954382844
H           50.44023433357187        1.37233043370666       -2.24071335174397
H           50.10332127996474       -0.80425120080958        2.80088558921465
H           48.12332430822907       -2.04677000182829        4.16352477679895
H           46.61451890707834       -0.77036857814433        0.45115705644368
H           46.41082204971039       -4.86249261797205        2.10145595242854
H           46.46183917427174       -6.81570453348238        3.61855433512961
H           44.81015687420604       -4.37547541670654        6.77454062256523
H           44.77059571848213       -2.43822373411532        5.23376820431626
H           42.95752088459646       -3.42340032684664        2.89380278804328
H           41.19262028167451       -2.15750939458183        1.50054703166580
188
 energy: -327.564788708273 gnorm: 0.144774038151 xtb: 6.5.1 (b24c23e)
C           25.19031250052076        0.05069701758600        0.10301693467663
C           25.85055460777440        1.31722470204282        0.17461323024859
C           25.25990902414214        2.58829027925911        0.34402402961297
C           26.26283711751805        3.54980384075968        0.29562109968163
C           27.50680789474789        2.90582632564252        0.08809358090499