150
 energy: -230.721520410321 gnorm: 0.673433407861 xtb: 6.5.1 (b24c23e)
Co          17.18957000000000       -0.00615000000000       -0.00418600000000
C           13.81570200000000        0.12636800000000        0.03509700000000
C           14.48441800000000        1.17900800000000        0.51370800000000
C           13.84110100000000        2.36053700000000        1.07649300000000
C           14.78811400000000        3.21300000000000        1.42161800000000
C           16.08855800000000        2.61570500000000        1.09123200000000
N           15.90399200000000        1.32151200000000        0.51880600000000
C           17.28231700000000        3.21323800000000        1.27354900000000
C           17.32787200000000        4.58113200000000        1.85310900000000
C           17.24413900000000        5.71437000000000        1.00991000000000
C           17.10634300000000        5.56392000000000       -0.48312300000000
C           17.28708000000000        6.99964600000000        1.57144900000000
C           17.40667600000000        7.17230500000000        2.95531800000000
C           17.49257400000000        8.55224600000000        3.53879100000000
C           17.51543000000000        6.05069500000000        3.78546300000000
C           17.46862100000000        4.75459100000000        3.24996100000000
C           17.57998600000000        3.56837400000000        4.17245800000000
C           18.57540000000000        2.57379000000000        0.92022000000000
C           19.86753700000000        3.26448900000000        0.99241200000000
C           20.80273500000000        2.40550300000000        0.64438800000000
N           18.71279200000000        1.33849500000000        0.54481900000000
C           20.11498700000000        1.15373100000000        0.34851600000000
C           20.70998600000000        0.00000000000000        0.00000000000000
C           19.95273900000000       -1.24196200000000       -0.28763200000000
C           20.50902600000000       -2.44082600000000       -0.41050600000000
C           19.46004400000000       -3.36989200000000       -0.77711700000000
C           18.32866400000000       -2.67954200000000       -0.85359900000000
N           18.54896600000000       -1.30112200000000       -0.54749000000000
C           17.02697999999999       -3.25916400000000       -1.27365800000000
C           17.01650100000000       -4.62126900000000       -1.87197600000000
C           17.25517100000000       -4.78896300000000       -3.25616200000000
C           17.52289800000000       -3.60389600000000       -4.14761300000000
C           17.25187500000000       -6.07888600000000       -3.80822700000000
C           17.01312500000000       -7.19998700000000       -3.00605200000000
C           16.98755100000000       -8.56601000000000       -3.62686300000000
C           16.76400400000000       -7.03238200000000       -1.63839500000000
C           16.77470300000000       -5.75433300000000       -1.05909000000000
C           16.51362600000000       -5.61065600000000        0.41826400000000
C           15.86530500000000       -2.59642400000000       -1.13015900000000
C           14.54530700000000       -3.09200000000000       -1.51296000000000
C           13.68416700000000       -2.16488500000000       -1.14185200000000
C           14.44632600000000       -1.07639700000000       -0.53135500000000
N           15.71960500000000       -1.31742800000000       -0.51828700000000
H           12.73252700000000        0.15172500000000        0.05742500000000
H           12.77801300000000        2.52651800000000        1.19440500000000
H           14.61027200000000        4.18431100000000        1.86489400000000
H           16.15472100000000        5.04452800000000       -0.72127900000000
H           17.95637500000000        4.97196100000000       -0.88268200000000
H           17.10181700000000        6.54825200000000       -0.99754500000000
H           17.22786700000000        7.87163000000000        0.93058400000000
H           17.06871500000000        8.57095200000000        4.56555100000000
H           18.55539600000000        8.87016700000000        3.57948400000000
H           16.92067200000000        9.27682000000000        2.92064000000000
H           17.63479300000000        6.19021900000000        4.85357400000000
H           18.49498100000000        2.98900200000000        3.92826100000000
H           17.63884400000000        3.87871700000000        5.23702300000000
H           16.69068900000000        2.91426100000000        4.05450900000000
H           20.04318900000000        4.29310000000000        1.27893100000000
H           21.86291700000000        2.61727300000000        0.60175200000000
H           21.55463500000000       -2.68798100000000       -0.28668100000000
H           19.58738700000000       -4.42604700000000       -0.97634800000000
H           16.68779900000000       -2.87594900000000       -4.06974500000000
H           17.61872200000000       -3.90336800000000       -5.21277400000000
H           18.46846000000000       -3.11057200000000       -3.83941600000000
H           17.43363400000000       -6.21533000000000       -4.86812800000000
H           17.88850100000000       -8.71004800000000       -4.26125500000000
H           16.97843100000000       -9.36417200000000       -2.85352000000000
H           16.07895500000000       -8.66895200000000       -4.25752400000000
H           16.56514600000000       -7.90126000000000       -1.02214700000000
H           15.55912300000000       -5.06767400000000        0.57870600000000
H           17.34119000000000       -5.04504100000000        0.89548000000000
H           16.44088000000000       -6.59802400000000        0.92171400000000
H           14.29746700000000       -4.02979000000000       -1.99311100000000
H           12.61094500000000       -2.21570800000000       -1.27005700000000
Co          27.82993900000000        0.00733600000000        0.00123700000000
C           31.20380700000000       -0.11548400000000       -0.06216300000000
C           30.53509100000000       -1.20640700000000       -0.44557600000000
C           31.17840800000000       -2.44861000000000       -0.85748500000000
C           30.23139500000000       -3.30267300000000       -1.19863300000000
C           28.93095000000000       -2.64293900000000       -1.02350900000000
N           29.11551700000000       -1.31276500000000       -0.54055700000000
C           27.73719100000000       -3.20033200000000       -1.30564100000000
C           27.69163700000000       -4.58862800000000       -1.83447000000000
C           27.77537000000000       -4.82258300000000       -3.22748000000000
C           27.91316500000000       -3.68035300000000       -4.20066800000000
C           27.73242900000000       -6.13878600000000       -3.71211600000000
C           27.61283300000000       -7.22146400000000       -2.83307600000000
C           27.52693500000000       -8.62116100000000       -3.36742100000000
C           27.50407900000000       -6.98686100000000       -1.45753500000000
C           27.55088800000000       -5.68087200000000       -0.94661600000000
C           27.43952300000000       -5.46358600000000        0.54029400000000
C           26.44410900000000       -2.49429800000000       -1.11788900000000
C           25.15197200000000       -3.04267500000000       -1.54398800000000
C           24.21677300000000       -2.18189900000000       -1.20041600000000
N           26.30671700000000       -1.34302900000000       -0.53354500000000
C           24.90452200000000       -1.07380100000000       -0.54727600000000
C           24.30952300000000        0.00000000000000        0.00000000000000
C           25.06677000000000        1.09531400000000        0.65229400000000
C           24.51048300000000        2.04546400000000        1.39363600000000
C           25.55946399999999        2.96967800000000        1.77231400000000
C           26.69084500000000        2.52448300000000        1.23917800000000
N           26.47054300000000        1.31791000000000        0.50574300000000
C           27.99252900000000        3.23354700000000        1.33735800000000
C           28.00300800000000        4.63065200000000        1.84864500000000
C           27.76433800000000        5.70996700000000        0.96593700000000
C           27.49661100000000        5.47201800000000       -0.49777300000000
C           27.76763400000000        7.02296400000000        1.46062600000000
C           28.00638400000000        7.27656400000000        2.81563100000000
C           28.03195800000000        8.69206800000000        3.31339900000000
C           28.25550500000000        6.20875600000000        3.68647200000000
C           28.24480500000000        4.88546900000000        3.21966100000000
C           28.50588300000000        3.75898100000000        4.18622400000000
C           29.15420400000000        2.65597600000000        0.98207200000000
C           30.47420200000000        3.27860000000000        1.04895000000000
C           31.33534200000000        2.35268000000000        0.67486800000000
C           30.57318300000000        1.14458200000000        0.36180200000000
N           29.29990400000000        1.30945800000000        0.53810400000000
H           32.28698200000000       -0.14923900000000       -0.06360700000000
H           32.24149600000000       -2.65001300000000       -0.88731500000000
H           30.40923700000000       -4.31044600000000       -1.55123700000000
H           28.86478800000000       -3.14068700000000       -4.01292800000000
H           27.06313400000000       -2.97658000000000       -4.07915400000000
H           27.91769200000000       -4.03448300000000       -5.25334700000000
H           27.79164200000000       -6.32430700000000       -4.77825200000000
H           27.95079400000000       -9.34551300000000       -2.63947900000000
H           26.46411300000000       -8.87874100000000       -3.55816400000000
H           28.09883700000000       -8.71603900000000       -4.31511200000000
H           27.38471600000000       -7.82702200000000       -0.78340000000000
H           26.52452800000000       -4.87645700000000        0.76520100000000
H           27.38066400000000       -6.42455300000000        1.09360700000000
H           28.32882000000000       -4.90993000000000        0.90804400000000
H           24.97632000000000       -3.98326900000000       -2.04937600000000
H           23.15659200000000       -2.30519000000000       -1.37779600000000
H           23.46487399999999        2.13808000000000        1.65409900000000
H           25.43212200000000        3.86971500000000        2.35975700000000
H           28.33171000000000        4.89283300000000       -0.94556200000000
H           27.40078700000000        6.42555200000000       -1.05904200000000
H           26.55104900000000        4.90267100000000       -0.61692400000000
H           27.58587500000000        7.85521800000000        0.79028300000000
H           27.13100800000000        9.23521000000000        2.95535400000000
H           28.04107800000000        8.73260200000000        4.42402000000000
H           28.94055400000000        9.20297300000000        2.92959400000000
H           28.45436200000000        6.40907900000000        4.73269400000000
H           29.46038600000000        3.25609600000000        3.92607500000000
H           27.67831899999999        3.02045300000000        4.13898400000000
H           28.57862900000000        4.12289700000000        5.23308700000000
H           30.72204200000000        4.28771500000000        1.35173800000000
H           32.40856400000000        2.47811300000000        0.61754300000000
C           21.89879600000000        0.00000000000000        0.00000000000000
C           23.12071300000000        0.00000000000000        0.00000000000000
150
 energy: -230.872705826927 gnorm: 0.269199628638 xtb: 6.5.1 (b24c23e)
Co          17.18997954498117        0.00150083002051       -0.00216325793836
C           13.81685979306930        0.10947123542787        0.02663053508174
C           14.49319982043744        1.17625642821360        0.51249186611920
C           13.84368716773164        2.35104490264396        1.07227500001839
C           14.80186029105822        3.21227034586499        1.42060838320996
C           16.09044733416826        2.60658274300804        1.08827057077046
N           15.89338809971624        1.32831496303652        0.52639435693724
C           17.29703132376293        3.21707255093915        1.27364154156577
C           17.33328038328100        4.58879031794655        1.85527719595917
C           17.24473355428357        5.71606214430695        1.01521950059645
C           17.10701255986725        5.56240210850743       -0.48066478615310
C           17.28672032753776        6.99427718496193        1.57536728481506
C           17.41036756830247        7.16923236121713        2.95357661082330
C           17.49029311270911        8.55290738287569        3.53928791338025
C           17.51363913422305        6.04964147988741        3.77892447761968
C           17.46949933317419        4.75949011387325        3.24692715563146
C           17.57951648813432        3.56911393944034        4.16942700424559
C           18.55574694820262        2.60057742594589        0.93075538684411
C           19.84349993345250        3.27944168117397        1.00148166247943
C           20.78268135818407        2.39414447810543        0.64116274470732
N           18.69140547399553        1.34710371427574        0.53697461159767
C           20.05869315841314        1.17007245497203        0.35224127382757
C           20.61593525824926       -0.01846001131284       -0.00529527570349
C           19.90424367270034       -1.24264808712836       -0.29414024602197
C           20.50033363300339       -2.46231669994735       -0.41774834381306
C           19.47740064605666       -3.37573279460115       -0.77977151435579
C           18.31025339891333       -2.66917185959444       -0.85795154051921
N           18.52478849605444       -1.31139606722357       -0.53629958193935
C           17.04164073738357       -3.25330661037890       -1.27108255490102
C           17.02614763376349       -4.62384771789756       -1.87093733413982
C           17.25669434711323       -4.79227376689913       -3.25175347224774
C           17.52203914912194       -3.60422272118173       -4.14467115274759
C           17.25022283611038       -6.07674978491725       -3.80056498713564
C           17.01076952346154       -7.19657587028754       -3.00378621298099
C           16.98874294297211       -8.56657831212258       -3.62632908506347
C           16.76560257157420       -7.02553753395028       -1.64179934372239
C           16.77602104748808       -5.75317572941565       -1.06407843097401
C           16.51491522883583       -5.60873123789140        0.41616533755929
C           15.86822255552607       -2.59074529545535       -1.12851836824743
C           14.55556333267299       -3.08786321444050       -1.50933103835141
C           13.67480955265748       -2.15088254682538       -1.13405614714475
C           14.43012038565305       -1.06610450302599       -0.52665460719446
N           15.72593055494168       -1.31533261409094       -0.52680156171615
H           12.73349486338954        0.14366688102255        0.05290106796181
H           12.78013573001865        2.51386187588152        1.18875045307340
H           14.62732676143311        4.18359591965184        1.86407454839205
H           16.16535627538076        5.04627007269238       -0.72140645952409
H           17.94640324766013        4.97410638309136       -0.88075725354528
H           17.10181326253195        6.53838975277902       -0.98918321708781
H           17.22712731123334        7.86733418469249        0.93195034427374
H           17.07515782594327        8.57181277830824        4.55763481999271
H           18.54378468789310        8.87081398761009        3.58084945432820
H           16.92823945138969        9.27204281864200        2.92560992655686
H           17.63314285027381        6.18804105120629        4.84964444145858
H           18.48465753846157        2.99063699993629        3.93008646055944
H           17.63844979991353        3.87787223336957        5.22406215511141
H           16.70097879401714        2.91668604976585        4.05424400628631
H           20.02996697227928        4.30171282351461        1.28363512137521
H           21.84843722268586        2.59690247304330        0.59373940591238
H           21.54783401643901       -2.69217390725283       -0.28463907588553
H           19.59584287693153       -4.42893250913050       -0.97518828221423
H           16.69779285840443       -2.87915631025669       -4.06875956788416
H           17.61746399221802       -3.90269611119922       -5.19970156698835
H           18.45809145389543       -3.11107434856843       -3.84188734604448
H           17.43305221984751       -6.21244625667502       -4.86317085577845
H           17.87819860364559       -8.71059582393953       -4.25819492635380
H           16.97713019868740       -9.35652230726017       -2.86093848275574
H           16.08943360108940       -8.67132818507518       -4.25318327865027
H           16.56663271096991       -7.89623561062483       -1.02329838992292
H           15.56957469814578       -5.06972909063749        0.57992474087232
H           17.33154533209063       -5.04653542138956        0.89277438722558
H           16.44140948961241       -6.58803466885249        0.91310432782704
H           14.31322211640322       -4.02673164791160       -1.99067289484407
H           12.60570373513356       -2.20428287163353       -1.26486343334649
Co          27.82952942380599        0.00041479102602       -0.00259996103344
C           31.20264924198860       -0.09742987112263       -0.05657409953290
C           30.52630915971457       -1.20357957404925       -0.44454868382295
C           31.17582171459184       -2.43884053196324       -0.85395708257891
C           30.21764865069528       -3.30144728010509       -1.19885607920391
C           28.92906109797505       -2.63430634069750       -1.01933046804182
N           29.12612091854010       -1.32292759100146       -0.53979130283074
C           27.72247705077758       -3.20316316152835       -1.30822893450457
C           27.68622856540927       -4.59565483077303       -1.83820783599333
C           27.77477533445402       -4.82748001189910       -3.22482065151055
C           27.91249586516114       -3.68095978061718       -4.19784338427959
C           27.73278866910954       -6.13762463098937       -3.70557149663571
C           27.60914141728563       -7.21804131145400       -2.83220494304514
C           27.52921589187508       -8.62198236906167       -3.36752070447597
C           27.50586986119145       -6.98157413888206       -1.46152361599453
C           27.55000961584038       -5.68230644441050       -0.95219669611329
C           27.43999242216452       -5.46202187708573        0.53759447994689
C           26.46376193170996       -2.52092128027070       -1.12883292371181
C           25.17600893248012       -3.05974396154340       -1.54779528999382
C           24.23682706952366       -2.17146989682954       -1.19487955385400
N           26.32810334479151       -1.34380999797105       -0.54516513390206
C           24.96081572632044       -1.08817167134367       -0.55590161355148
C           24.40357373217905        0.01698640593342        0.00895935160928
C           25.11526535027039        1.10031508828906        0.64807282829654
C           24.51917529471782        2.06598555226337        1.40328883823759
C           25.54210763027947        2.97573026691087        1.77444216736729
C           26.70925549044238        2.52001353912871        1.22885767356550
N           26.49472040681352        1.31757638532233        0.52093093562469
C           27.97786816493853        3.22753737371456        1.33516129723471
C           27.99336131697895        4.63179347652856        1.85117949992195
C           27.76281471640966        5.70930374132501        0.97141069939548
C           27.49746989346570        5.47021702538985       -0.49542386800348
C           27.76928619095584        7.01611774632159        1.46467575519120
C           28.00873945321067        7.27253385476821        2.81490432324309
C           28.03076608273269        8.69210841727697        3.31417780121757
C           28.25390626236277        6.20617429645751        3.67927696650101
C           28.24348729524425        4.88808733653571        3.21526016285532
C           28.50459368446505        3.75904510413576        4.18337696720123
C           29.15128642446776        2.65074267167994        0.97932423008666
C           30.46394567151017        3.27310221395316        1.04870445629580
C           31.34469938621368        2.33717897750417        0.67079900079783
C           30.58938865192686        1.13390080343680        0.35806801228339
N           29.29357841736322        1.31384105262201        0.53050945603915
H           32.28601416402713       -0.14029235698921       -0.06129253059796
H           32.23937317979944       -2.63696579991986       -0.88263308483160
H           30.39218224450804       -4.30936305424146       -1.55133340647988
H           28.85415262528216       -3.14185576176322       -4.01422615318339
H           27.07310559125284       -2.97946050404869       -4.07925043621896
H           27.91769568881151       -4.03315556590467       -5.24048508603780
H           27.79238168285342       -6.32215303710725       -4.77429186116264
H           27.94435119283187       -9.34065353185820       -2.64578713934684
H           26.47572436725759       -8.88015314171814       -3.55762655943063
H           28.09126950034641       -8.71603272926487       -4.30821823478484
H           27.38636614173167       -7.82272995878876       -0.78472772746738
H           26.53485145851256       -4.87890058807174        0.76538606962567
H           27.38105837092201       -6.41497009706998        1.08483957544793
H           28.31853020012692       -4.91149656381428        0.90617382506439
H           24.98954198709858       -3.99274058909435       -2.05194444580988
H           23.17107159824830       -2.28494371073190       -1.36947472247957
H           23.47167496435435        2.13969182243426        1.65847522143724
H           25.42366608311065        3.87099424172258        2.36259154374795
H           28.32171608278576        4.89446511525649       -0.94263050251156
H           27.40204505322860        6.41601694086974       -1.05007457626825
H           26.56141743129241        4.90474428728715       -0.61835962102282
H           27.58645676660912        7.84970520410584        0.79186338056608
H           27.14131033767037        9.23348682608046        2.95794130181335
H           28.04237883704163        8.73221813312774        4.41337090872426
H           28.93007540048965        9.20168245622012        2.93437128885937
H           28.45287542018664        6.40625074485011        4.72838498519300
H           29.44993429710211        3.25673517933055        3.92837712457514
H           27.68796363579159        3.02340442697771        4.13806634360599
H           28.57809945193647        4.12164965874687        5.21995852254353
H           30.70628691662479        4.28382022857256        1.35138000833306
H           32.41380521236425        2.46627326119035        0.61338070603014
C           21.91443695085899       -0.00853292133253       -0.00067262186159
C           23.10507203163031        0.00662279516465        0.00542212247104
150
 energy: -230.933444515322 gnorm: 0.106139549635 xtb: 6.5.1 (b24c23e)
Co          17.18972143736543        0.00990390836178       -0.00203287502666
C           13.82203191529016        0.09197290743978        0.01780131038835
C           14.50429327728909        1.17319157962381        0.51377185563624
C           13.85057190045081        2.33864569609717        1.06695475260384
C           14.81763111025368        3.20705620604320        1.41838689359973
C           16.08967656136402        2.59541112136110        1.08716044424926
N           15.88010792102707        1.33864283311590        0.53496435134484
C           17.30807936252118        3.22013877851798        1.27369531622700
C           17.33497662606136        4.59522514808361        1.85668679195710
C           17.24513169398535        5.71708618260215        1.01975525248220
C           17.10755949788660        5.55942363512663       -0.47662717002809
C           17.28660026255297        6.99027697664048        1.57842813062876
C           17.41404836503550        7.16743171506210        2.95226300291935
C           17.48872886044574        8.55307955826425        3.53950260855449
C           17.51233000355985        6.04876750994494        3.77338058753785
C           17.47037780346422        4.76336588445725        3.24312378123068
C           17.57896630536397        3.57005270469941        4.16372499959653
C           18.52960577080076        2.62760245961913        0.93895669360069
C           19.81305602737089        3.28772368593025        1.01101085448991
C           20.74833198705582        2.38193063896673        0.63665933082679
N           18.66835437019458        1.35436296473891        0.51722718596897
C           20.01027414304815        1.17710880222490        0.34911658713689
C           20.54921954807736       -0.03951639094606       -0.00451215979400
C           19.86202754463552       -1.23576406061743       -0.29449429393370
C           20.48549890745175       -2.48238518600333       -0.43112962278559
C           19.49711650122373       -3.37438325112737       -0.78717877593037
C           18.29202713284824       -2.65966205978839       -0.85941803337843
N           18.50593208447080       -1.32846568535696       -0.51387537088590
C           17.06257905499779       -3.24214788746953       -1.26628831286070
C           17.04026367425905       -4.62159640170778       -1.86587680277705
C           17.26109350266319       -4.79255896735168       -3.24399449454297
C           17.52213553259102       -3.60400993534634       -4.13872139983124
C           17.24881861551807       -6.07237259728326       -3.79218072873579
C           17.00845331413311       -7.19252786356063       -3.00143507927649
C           16.98962042102182       -8.56519456483594       -3.62525583786953
C           16.76711023200140       -7.01706916958418       -1.64386043956887
C           16.78005683868721       -5.74838017464642       -1.06736022944853
C           16.51712225969353       -5.60442626657503        0.41312942359001
C           15.87250319382879       -2.57411671455846       -1.12742961250072
C           14.57004153870657       -3.07417835063405       -1.50096787374461
C           13.67204842256456       -2.13528626156971       -1.12258606934141
C           14.41584519967568       -1.05282629474319       -0.52259401108116
N           15.73654851090704       -1.30855333159941       -0.53953862937422
H           12.73804539312530        0.13500232120299        0.04531006480146
H           12.78619641145988        2.49296205591471        1.17898955746720
H           14.65421443267864        4.17944155073208        1.86140136603013
H           16.17461719826362        5.04491861257648       -0.71958807132399
H           17.93769332433414        4.97296157746550       -0.87692705847685
H           17.10211304419066        6.52993534714577       -0.97744814596474
H           17.22496895676193        7.86232062724985        0.93288072314425
H           17.08093215861171        8.57074997743355        4.55142256273914
H           18.53383907598641        8.87273313354765        3.58260846167140
H           16.93474857237241        9.26711830584062        2.92812683106943
H           17.62963584867605        6.18459625123751        4.84532750120044
H           18.47534264823269        2.99119721107486        3.92821450449067
H           17.63791707849268        3.88064271808145        5.20923338306504
H           16.70954857858345        2.91848183965441        4.05009623192831
H           20.00725700701925        4.30848642594993        1.29159043076835
H           21.81590978734328        2.56879972439621        0.58215073379194
H           21.53315343903581       -2.69566644232190       -0.28274594771697
H           19.60434907552831       -4.42913995080748       -0.97662129700817
H           16.70636469119215       -2.88155642803802       -4.06380449654631
H           17.61575133815231       -3.90591596497823       -5.18438750121835
H           18.44962961367230       -3.10913335287162       -3.84142793797276
H           17.43163328857880       -6.20610235734058       -4.85597550188338
H           17.86938804318327       -8.70948635025385       -4.25594815758313
H           16.97572618432139       -9.34782083358390       -2.86521056488197
H           16.09878399027404       -8.67338819478155       -4.24990875400046
H           16.56843822395109       -7.88769826186209       -1.02343119776267
H           15.57937992202320       -5.06838334014993        0.57940027143539
H           17.32392382490065       -5.04422701362858        0.88991582504880
H           16.44278325003530       -6.57922468686670        0.90042391421805
H           14.33978467437560       -4.01574304803309       -1.98332411374132
H           12.60364618696889       -2.18836580469277       -1.25519564703213
Co          27.82978720318147       -0.00573896940289       -0.00832391054813
C           31.19747747259048       -0.07869042481723       -0.05083034990589
C           30.51521626031423       -1.20225444093686       -0.44150338080598
C           31.16893732217776       -2.42621046353869       -0.84921194992823
C           30.20187801284804       -3.29614708017180       -1.19684900696416
C           28.92983257172136       -2.62547709385719       -1.01239742744866
N           29.13940209341116       -1.33631372245526       -0.54075843225301