74
 energy: -133.157559386762 gnorm: 0.000473988213 xtb: 6.5.1 (b24c23e)
Co           9.09286270846873       -0.04628623701274        0.00662990495024
C            5.69227097059866       -0.14427816690144        0.06965175765294
C            6.35242515120839       -0.92763920387478       -0.85171885305713
C            5.68490677805843       -1.77972778307566       -1.79101472804166
C            6.65077320267265       -2.43470541629016       -2.47545520249577
C            7.90469946817115       -1.98869221715931       -1.94414332636211
N            7.71405875140238       -1.03979806176382       -0.97260741362284
C            9.11969066875642       -2.52541681399178       -2.30952793779958
C           10.31963170720138       -2.12990952365164       -1.76188749412060
C           11.57479894394724       -2.72700602792449       -2.10107123382184
C           12.52495549584363       -2.03852281827774       -1.42597747134766
N           10.49560607702629       -1.09518845278832       -0.87328121487693
C           11.84802835016303       -1.01929777364354       -0.68474660454934
C           12.51591147506676       -0.02398932295611        0.02978884738282
C           11.82838772329160        0.98813861578381        0.70083787130967
C           12.48341751997866        2.04373581171149        1.40967651111941
C           11.51210664821921        2.78451044531560        1.99295960200508
C           10.26730535537216        2.16913500748906        1.64803622135786
N           10.47040295066395        1.08347543203398        0.82790469585270
C            9.05561000451232        2.57596566750368        2.15948596151520
C            7.86050112731320        1.95672274759160        1.86486818517479
C            6.60494154983657        2.34439679692878        2.43610638113262
C            5.66024867438003        1.56452922767533        1.86170517009561
C            6.34103060403229        0.71050175215388        0.93363576169140
N            7.69342312930269        0.93866009432491        0.96216917087616
H            4.61005336489649       -0.18788673892821        0.10284710749885
H            4.61364160036836       -1.85225780485462       -1.89269194825238
H            6.54824856706394       -3.16646964229757       -3.26109712457831
H            9.13042240497368       -3.31540081330308       -3.05133127619567
H           11.69206880376250       -3.56217774838957       -2.77300913833909
H           13.59302907016345       -2.18302259236020       -1.43159640545436
H           13.55174485449430        2.18024444859940        1.45164280491096
H           11.60877866535649        3.65926019547173        2.61603039384799
H            9.04411049178460        3.41586618813574        2.84426372477108
H            6.48659264730197        3.11859329984110        3.17762226108604
H            4.59420423532955        1.55871097437368        2.02512941125597
Co          19.97339171588862        0.02978669118022        0.03602163982825
C           23.37398513519416        0.05988196337134        0.14859754723376
C           22.71383035644190        1.25933084707294       -0.00599769284317
C           23.38134609760899        2.52168757368758       -0.12761252983484
C           22.41547697585184        3.46674601755075       -0.19329990347382
C           21.16155109898346        2.77930490052903       -0.10030835872716
N           21.35219708188967        1.42364068828201       -0.01997870017836
C           19.94655733034828        3.42221415085024       -0.00950704711027
C           18.74661437063093        2.76115351793969        0.12954566436895
C           17.49144598503640        3.43109983144850        0.28034821013653
C           16.54128691855649        2.46754090423355        0.31657255457805
N           18.57063547154824        1.39778805560419        0.09076624612902
C           17.21821207720764        1.21479420412194        0.17921318357476
C           16.55034378148518       -0.00230804902317        0.03822920314753
C           17.23788197684809       -1.20257528517256       -0.14631508169341
C           16.58285035876536       -2.46043855138398       -0.33211905790382
C           17.55415928278108       -3.40091576479543       -0.39898186825625
C           18.79895940945304       -2.71358031354735       -0.24014279041504
N           18.59586486212864       -1.35859789843153       -0.11648216261416
C           20.01065321779830       -3.35866665768834       -0.13548143788889
C           21.20576011244238       -2.70231480480834        0.06316723037920
C           22.46132097108391       -3.37345326993102        0.22494434019398
C           23.40601125799251       -2.41002985171321        0.32468708422106
C           22.72522585695873       -1.15379463515124        0.21268203859195
N           21.37283243676787       -1.34179062176033        0.08028133024892
H           24.45620271134175        0.06980978695944        0.20249358346884
H           24.45261124244604        2.64375800535160       -0.15403299280871
H           22.51799969256559        4.53670403025668       -0.28219296708233
H           19.93582528554343        4.50574884890490       -0.02679767074533
H           17.37417850655988        4.50105900470270        0.34515924041234
H           15.47321402917304        2.57822600310753        0.40963873238924
H           15.51452227114500       -2.58966481017791       -0.39291395930958
H           17.45748544704642       -4.46727996218513       -0.52654278309850
H           20.02215292312114       -4.44076421236799       -0.19396010477234
H           22.57967269092259       -4.44511443867158        0.25265226969197
H           24.47205619167457       -2.51567596713563        0.44950760332655
C           13.92489307297789       -0.02315537914063        0.04745162050633
C           15.14136305476859       -0.01492709749167        0.05087241374086
