232
 energy: -416.056651387863 gnorm: 2.020647955408 xtb: 6.5.1 (b24c23e)
Co          32.58724600000000        0.01266600000000       -0.01295500000000
C           29.22121100000000       -0.10148500000000       -0.04489200000000
C           29.88415000000000       -1.25991100000000        0.01266200000000
C           29.23251400000000       -2.56284100000000        0.07147300000000
C           30.17237200000000       -3.48321300000000        0.17839900000000
C           31.47853400000000       -2.81043900000000        0.19235200000000
N           31.30237500000000       -1.39752500000000        0.08241600000000
C           32.66743000000000       -3.42837100000000        0.34589300000000
C           32.70320500000000       -4.89956300000000        0.49623700000000
C           32.90847800000000       -5.47602300000000        1.75677600000000
C           32.93714800000000       -6.86732500000000        1.87777400000000
N           32.76448600000000       -7.65115400000000        0.78004900000000
C           32.56254500000000       -7.11620200000000       -0.45370700000000
C           32.52920600000000       -5.72953300000000       -0.61947400000000
C           33.96167100000000       -2.69762000000000        0.38578300000000
C           35.25168800000000       -3.33531300000000        0.67524700000000
C           36.18631599999999       -2.41107200000000        0.59146800000000
N           34.10352800000000       -1.43345900000000        0.12663400000000
C           35.50269100000000       -1.17334200000000        0.23849200000000
C           36.09907700000000        0.00382800000000       -0.01377400000000
C           35.34121300000000        1.21969300000000       -0.38707400000000
C           35.88450700000000        2.29314600000000       -0.94693600000000
C           34.84183500000000        3.29271900000000       -1.06503200000000
C           33.73018000000000        2.76594700000000       -0.56600300000000
N           33.95493099999999        1.42889200000000       -0.11553700000000
C           32.44507400000000        3.49920200000000       -0.42909400000000
C           32.46792100000000        4.98184200000000       -0.47628900000000
C           31.80620800000000        5.67577500000000       -1.49983500000000
C           31.85041900000000        7.07168200000000       -1.52262300000000
N           32.53705300000000        7.74886700000000       -0.56387200000000
C           33.19625500000000        7.10098400000000        0.43266300000000
C           33.17735400000000        5.70565000000000        0.49311900000000
C           31.27818300000000        2.85042200000000       -0.25177300000000
C           29.96597600000000        3.46671800000000       -0.06191000000000
C           29.10373500000000        2.47318700000000        0.03189700000000
C           29.85612700000000        1.22524100000000       -0.08348000000000
N           31.12449000000000        1.43240900000000       -0.24896500000000
H           28.13806200000000       -0.12946700000000       -0.04508700000000
H           28.16812900000000       -2.75737800000000        0.04632400000000
H           29.98383600000000       -4.54619500000000        0.25599400000000
H           33.04487900000000       -4.85461200000000        2.63321900000000
H           33.09596200000000       -7.32447000000000        2.84523400000000
H           32.42737300000000       -7.76776400000000       -1.30663400000000
H           32.36777100000000       -5.30654200000000       -1.60320600000000
H           35.42978200000000       -4.37603500000000        0.90998500000000
H           37.24407399999999       -2.57419700000000        0.74550600000000
H           36.91768600000000        2.41825100000000       -1.24059400000000
H           34.95982000000000        4.29183200000000       -1.46280700000000
H           31.26556500000000        5.14110200000000       -2.27010600000000
H           31.33975900000000        7.61714700000000       -2.30494700000000
H           33.73451200000000        7.66923600000000        1.17980300000000
H           33.70284800000000        5.19454900000000        1.29035500000000
H           29.72145099999999        4.51905800000000       -0.00108300000000
H           28.03661600000000        2.57769800000000        0.17814200000000
Co          81.97363000000000       -0.00439100000000       -0.01042100000000
C           85.33966500000000        0.09554400000000       -0.07416600000000
C           84.67672600000000        1.22066300000000       -0.35589400000000
C           85.32836200000000        2.48441000000000       -0.67843100000000
C           84.38850400000000        3.39611200000000       -0.84370800000000
C           83.08234100000000        2.75645600000000       -0.63475900000000
N           83.25850099999998        1.37261300000000       -0.32916100000000
C           81.89344599999998        3.39233500000000       -0.66750400000000
C           81.85767099999998        4.84368800000000       -0.95138200000000
C           81.65239800000001        5.76172900000000        0.08710900000000
C           81.62372800000000        7.12811100000000       -0.20162000000000
N           81.79639000000000        7.55893300000000       -1.47981400000000
C           81.99833099999998        6.68839400000000       -2.50474700000000
C           82.03167000000001        5.31342900000000       -2.26020000000000
C           80.59920500000000        2.70474800000000       -0.41688300000000
C           79.30918800000001        3.39905200000000       -0.32532200000000
C           78.37455999999999        2.49037700000000       -0.13677200000000
N           80.45734799999998        1.41985000000000       -0.29730100000000
C           79.05818499999998        1.20349000000000       -0.11464900000000
C           78.46179900000000        0.00382800000000       -0.01377400000000
C           79.21966300000000       -1.26804800000000       -0.01745300000000
C           78.67636899999999       -2.45790400000000       -0.24104200000000
C           79.71904100000000       -3.44863300000000       -0.06342500000000
C           80.83069600000000       -2.79953100000000        0.26089700000000
N           80.60594500000001       -1.38926500000000        0.30317500000000
C           82.11580200000000       -3.46130700000000        0.60507500000000
C           82.09295500000000       -4.89362400000000        0.99097400000000
C           82.75466700000000       -5.85516200000000        0.21339300000000
C           82.71045700000001       -7.19739600000000        0.59742800000000
N           82.02382299999998       -7.56658700000000        1.71164700000000
C           81.36462100000000       -6.65696200000000        2.47677200000000
C           81.38352200000000       -5.30432400000000        2.12894300000000
C           83.28269299999998       -2.78899900000000        0.58611300000000
C           84.59490000000000       -3.32347300000000        0.94695400000000
C           85.45714099999999       -2.34558600000000        0.74785400000000
C           84.70474900000001       -1.18509100000000        0.27463900000000
N           83.43638600000000       -1.43142300000000        0.17653300000000
H           86.42281400000000        0.12226100000000       -0.08248800000000
H           86.39274700000000        2.66323200000000       -0.75905200000000
H           84.57703999999998        4.43573600000000       -1.07851100000000
H           81.51599600000000        5.42197400000000        1.10635900000000
H           81.46491399999999        7.84678300000000        0.59114100000000
H           82.13350300000000        7.06383400000000       -3.51026200000000
H           82.19310499999999        4.62270400000000       -3.07845900000000
H           79.13109400000000        4.46306500000000       -0.40329900000000
H           77.31680200000000        2.69124000000000       -0.03681500000000
H           77.64319000000000       -2.66298100000000       -0.48564200000000
H           79.60105600000000       -4.52023500000000       -0.15354000000000
H           83.29531100000000       -5.56753000000000       -0.67905400000000
H           83.22111700000001       -7.94674800000000        0.00748400000000
H           80.82636400000000       -6.98344700000000        3.35684800000000
H           80.85802800000000       -4.58351700000000        2.74314600000000
H           84.83942399999999       -4.31267100000000        1.31110500000000
H           86.52425999999998       -2.40306400000000        0.91816700000000
C           42.34866700000000        0.00458200000000       -0.00518800000000
C           41.13972799999999       -0.00887300000000       -0.01363500000000
C           39.71819900000000       -0.00005400000000       -0.02561800000000
C           38.50652900000000        0.00738500000000       -0.01475500000000
C           43.76527099999999       -0.00209300000000       -0.00465500000000
C           44.98596700000000        0.00738500000000       -0.01475500000000
C           57.88415500000000        0.00458200000000       -0.00518800000000
C           56.67521499999999       -0.00887300000000       -0.01363500000000
C           55.25368600000000       -0.00005400000000       -0.02561800000000
C           54.04201699999999        0.00738500000000       -0.01475500000000
C           59.30075899999999       -0.00209300000000       -0.00465500000000
C           60.52145500000000        0.00738500000000       -0.01475500000000
C           73.41964199999998        0.00458200000000       -0.00518800000000
C           72.21070300000000       -0.00887300000000       -0.01363500000000
C           70.78917400000000       -0.00005400000000       -0.02561800000000
C           69.57750500000000        0.00738500000000       -0.01475500000000
C           74.83624700000000       -0.00209300000000       -0.00465500000000
C           76.05694299999999        0.00738500000000       -0.01475500000000
Co          49.43628400000000        0.02940700000000       -0.05331400000000
C           46.06864100000000       -0.00515400000000        0.01653900000000
C           46.72396199999999       -0.80344700000000        0.87925500000000
C           46.08308500000000       -1.62506000000000        1.90801200000000
C           47.01939800000000       -2.30941300000000        2.53460900000000
C           48.31664799999999       -1.96981100000000        1.94106200000000
N           48.13887200000000       -1.00850100000000        0.89763100000000
C           49.50104000000000       -2.49752600000000        2.31773200000000
C           49.53710500000000       -3.53392800000000        3.37580000000000
C           49.00952500000000       -4.81163800000000        3.13911600000000
C           49.06908300000000       -5.77620600000000        4.14768600000000
N           49.63963300000000       -5.47686600000000        5.34508900000000
C           50.16377400000000       -4.24794700000000        5.59794900000000
C           50.12415299999999       -3.25378200000000        4.61746800000000
C           50.79767699999999       -2.08345500000000        1.72338000000000
C           52.06580000000000       -2.78662700000000        1.95604200000000
C           53.01783400000000       -2.11765200000000        1.33765500000000
N           50.96552500000000       -1.02943600000000        0.98694000000000
C           52.36324700000000       -0.98286900000000        0.69974500000000
C           52.97821000000000       -0.00515400000000        0.01653900000000
C           52.22714900000000        1.09510900000000       -0.62310400000000
C           52.75964399999999        2.25253300000000       -0.99357700000000
C           51.72753500000000        2.99557100000000       -1.69187800000000
C           50.63652199999999        2.23827500000000       -1.70362300000000
N           50.86197899999999        1.00272400000000       -1.02727500000000
C           49.38380900000000        2.57920100000000       -2.42002100000000
C           49.44677500000000        3.56829000000000       -3.52432000000000
C           50.25376100000000        3.32312200000000       -4.64457900000000
C           50.31822500000000        4.27298000000000       -5.66676300000000
N           49.60796999999999        5.42834200000000       -5.57037400000000
C           48.82416199999999        5.69545500000000       -4.49202200000000
C           48.73175100000000        4.77312200000000       -3.44710900000000
C           48.21249800000000        1.99576200000000       -2.09982700000000
C           46.93758000000000        2.19654600000000       -2.78115800000000
C           46.04985500000000        1.48809700000000       -2.11349700000000
C           46.74674100000000        0.82454100000000       -1.00614000000000
N           48.01082200000000        1.11428100000000       -0.99475800000000
H           45.02840999999999       -1.68073600000000        2.14202600000000
H           46.83279599999999       -2.99364900000000        3.35195900000000
H           48.55969700000000       -5.05604000000000        2.18469800000000
H           48.66325700000000       -6.76442300000000        3.97744800000000
H           50.61244700000000       -4.04249000000000        6.56048100000000
H           50.54432099999999       -2.27673300000000        4.82247100000000
H           52.21522099999999       -3.69131400000000        2.53059900000000
H           54.06669100000000       -2.38268900000000        1.32581100000000
H           53.78141600000000        2.57324900000000       -0.84012600000000
H           51.84191700000000        3.96802300000000       -2.15306700000000
H           50.82296000000000        2.40519300000000       -4.72596400000000
H           50.93456400000000        4.09175500000000       -6.53711800000000
H           48.27464200000000        6.62606400000000       -4.44394800000000
H           48.11411100000000        4.99598100000000       -2.58573100000000
H           46.73392300000000        2.79140800000000       -3.66176600000000
H           45.00012300000000        1.41680800000000       -2.36443800000000
Co          64.97177100000000        0.02940700000000       -0.05331400000000
C           61.60412800000000       -0.00515400000000        0.01653900000000
C           62.25944900000000       -0.80344700000000        0.87925500000000
C           61.61857200000000       -1.62506000000000        1.90801200000000
C           62.55488600000000       -2.30941300000000        2.53460900000000
C           63.85213599999999       -1.96981100000000        1.94106200000000
N           63.67435900000000       -1.00850100000000        0.89763100000000
C           65.03652800000000       -2.49752600000000        2.31773200000000
C           65.07259300000000       -3.53392800000000        3.37580000000000
C           64.54501200000000       -4.81163800000000        3.13911600000000
C           64.60457000000000       -5.77620600000000        4.14768600000000
N           65.17512100000000       -5.47686600000000        5.34508900000000
C           65.69926200000000       -4.24794700000000        5.59794900000000
C           65.65964099999999       -3.25378200000000        4.61746800000000
C           66.33316400000000       -2.08345500000000        1.72338000000000
C           67.60128800000000       -2.78662700000000        1.95604200000000
C           68.55332199999999       -2.11765200000000        1.33765500000000
N           66.50101300000000       -1.02943600000000        0.98694000000000
C           67.89873500000000       -0.98286900000000        0.69974500000000
C           68.51369699999999       -0.00515400000000        0.01653900000000
C           67.76263699999998        1.09510900000000       -0.62310400000000
C           68.29513100000000        2.25253300000000       -0.99357700000000
C           67.26302300000000        2.99557100000000       -1.69187800000000
C           66.17200900000000        2.23827500000000       -1.70362300000000
N           66.39746599999999        1.00272400000000       -1.02727500000000
C           64.91929600000000        2.57920100000000       -2.42002100000000
C           64.98226300000000        3.56829000000000       -3.52432000000000
C           65.78924900000000        3.32312200000000       -4.64457900000000
C           65.85371200000000        4.27298000000000       -5.66676300000000
N           65.14345700000000        5.42834200000000       -5.57037400000000
C           64.35965000000000        5.69545500000000       -4.49202200000000
C           64.26723800000001        4.77312200000000       -3.44710900000000
C           63.74798600000000        1.99576200000000       -2.09982700000000
C           62.47306800000000        2.19654600000000       -2.78115800000000
C           61.58534300000000        1.48809700000000       -2.11349700000000
C           62.28222900000000        0.82454100000000       -1.00614000000000
N           63.54631000000000        1.11428100000000       -0.99475800000000
H           60.56389799999999       -1.68073600000000        2.14202600000000
H           62.36828400000000       -2.99364900000000        3.35195900000000
H           64.09518500000000       -5.05604000000000        2.18469800000000
H           64.19874500000000       -6.76442300000000        3.97744800000000
H           66.14793500000000       -4.04249000000000        6.56048100000000
H           66.07980900000000       -2.27673300000000        4.82247100000000
H           67.75070800000000       -3.69131400000000        2.53059900000000
H           69.60217899999999       -2.38268900000000        1.32581100000000
H           69.31690300000000        2.57324900000000       -0.84012600000000
H           67.37740500000000        3.96802300000000       -2.15306700000000
H           66.35844800000000        2.40519300000000       -4.72596400000000
H           66.47005200000000        4.09175500000000       -6.53711800000000
H           63.81012900000000        6.62606400000000       -4.44394800000000
H           63.64959900000000        4.99598100000000       -2.58573100000000
H           62.26941100000000        2.79140800000000       -3.66176600000000
H           60.53561100000000        1.41680800000000       -2.36443800000000
232
 energy: -416.695361788225 gnorm: 0.580537107438 xtb: 6.5.1 (b24c23e)
Co          32.59070678706542        0.01182107086335       -0.01366313600537
C           29.22206995241486       -0.08993046315440       -0.04509690035809
C           29.89036163246190       -1.26080886221882        0.01282540078148
C           29.23187405513002       -2.55819252228360        0.07097371456818
C           30.17869339218399       -3.48458656625465        0.17869058409877
C           31.47749417218657       -2.80390101404337        0.19135189863922
N           31.29523234592349       -1.40347400797084        0.08278369136988
C           32.67793776479742       -3.42486536063385        0.34660827288228
C           32.70485067111153       -4.90022340987040        0.49649133544172
C           32.90869526068401       -5.47786186094749        1.75449274579234
C           32.93552176418428       -6.86594342425428        1.86812983236981
N           32.76449095830918       -7.65005240207211        0.77992321137571
C           32.56389871227493       -7.11271357086079       -0.44451778116254
C           32.52925066969761       -5.73060260814437       -0.61666167407613
C           33.95589541630808       -2.70738167791854        0.38697059826067
C           35.24345218755745       -3.34133333179106        0.67487154634972
C           36.18695918856682       -2.40614928533242        0.59075635016756
N           34.10605060399942       -1.42610161747401        0.12741281197282
C           35.50898023230568       -1.17067237723670        0.23842960427153
C           36.10133281766581        0.01217753796508       -0.01747093362582
C           35.34054739469264        1.20729315101889       -0.37920264555318
C           35.88546560311881        2.30727849279644       -0.95178270588050
C           34.85604075124390        3.29327933016404       -1.06731230993924
C           33.72020731566970        2.75804383158155       -0.55863373755578
N           33.95413561619466        1.42665606923457       -0.11977173047123
C           32.45342397194540        3.49419732450954       -0.42927433765918
C           32.47082643150237        4.98047989345805       -0.47750862656941
C           31.80726466270014        5.67671358709537       -1.49712769798967
C           31.85577097631128        7.06912084134884       -1.51456555611660
N           32.53699552862412        7.74778871144405       -0.56397564432684
C           33.19056332495615        7.09815739215943        0.42497974953910
C           33.17637045209732        5.70664069386757        0.49079348169321
C           31.27756068611848        2.84808206029728       -0.25130007072604
C           29.97158733705383        3.46721469675036       -0.06267184435463
C           29.09864200450146        2.46555646210889        0.03190644868935
C           29.84521738449400        1.21772108570839       -0.08293116869256
N           31.13024189253391        1.43515988472344       -0.24601791735477
H           28.13835070031178       -0.12749979119939       -0.04495182543109
H           28.16831142476206       -2.75407186289478        0.04597633486747
H           29.98785894348538       -4.54629605477749        0.25604098146731
H           33.04472449451723       -4.85480728849353        2.63242350056151
H           33.09533290126083       -7.32582701224377        2.84161082512815
H           32.42804152529357       -7.76828704533004       -1.30279948777256
H           32.36802223110366       -5.30650241392859       -1.60235966165506
H           35.42649265644668       -4.37755752726223        0.90994045105157
H           37.24390739801544       -2.57029363603044        0.74470298380401
H           36.91782798109441        2.41992598242696       -1.24122468034933
H           34.96158208368526        4.29155469380435       -1.46338778378972
H           31.26603339482588        5.14108725006345       -2.26953909512633
H           31.34199048748369        7.61806027644857       -2.30183331365827
H           33.73234401824951        7.67001475640146        1.17657089177642
H           33.70242860201400        5.19454389566331        1.28966089604551
H           29.72520957556664        4.51872218810608       -0.00161268672924
H           28.03556953928839        2.57485693818458        0.17815959931615
Co          81.97015491316898       -0.00378922256834       -0.01135332874798
C           85.33880419363915        0.08442485999700       -0.07100171556318
C           84.67050810024962        1.22156939189889       -0.35600299406533
C           85.32900239793632        2.47982084527301       -0.67755816400865
C           84.38218599650010        3.39751098616660       -0.84382880268647
C           83.08338478959624        2.74989318588040       -0.63381326395841
N           83.26566004006682        1.37843163977561       -0.33053573068371
C           81.88292142608957        3.38918430789545       -0.66579063295384
C           81.85602097309787        4.84439685001566       -0.95133202819258
C           81.65218095341334        5.76282381821116        0.08439034841864
C           81.62535406823916        7.12398699936436       -0.21044690302783
N           81.79638758818498        7.55783883025022       -1.47961280129147
C           81.99697675577114        6.68772957567010       -2.49494037881772
C           82.03162566944994        5.31526887937087       -2.25782026711150
C           80.60499363187618        2.71444397185708       -0.41858070998896
C           79.31741824353728        3.40470562580853       -0.32743557771747
C           78.37391702115592        2.48548451381654       -0.13601116308271
N           80.45484336507454        1.41301356722937       -0.29444377310875
C           79.05188979825438        1.20095073155842       -0.11394318788458
C           78.45973275927456       -0.00514518352996       -0.01485492437806
C           79.22027453099419       -1.25388879360386       -0.01353778138979
C           78.67540278892191       -2.47287529640299       -0.24158547482865
C           79.70480152790263       -3.44982346741510       -0.06544398040745
C           80.84066333938060       -2.78980365664488        0.26564565779470
N           80.60673478333405       -1.38835193075639        0.29852035389783
C           82.10744716276815       -3.45656312097257        0.60344120739586
C           82.09004624462565       -4.89267540935912        0.98940818815292
C           82.75361064275201       -5.85527228714732        0.21625554176414
C           82.70510489347915       -7.19260343773969        0.60439331617574
N           82.02388111709810       -7.56558331075868        1.71123418896044
C           81.37031312292491       -6.65649240316759        2.46859868790775
C           81.38450555139420       -5.30594753466567        2.12700557298086
C           83.28331447855598       -2.78661535714596        0.58588457109193
C           84.58929012320409       -3.32416870328428        0.94637003115693
C           85.46223365841058       -2.33828369014203        0.74564443958137
C           84.71566001010704       -1.17773169610602        0.27297456536127
N           83.43062891379860       -1.43319434310471        0.18015702832495
H           86.42252463081813        0.12041786761405       -0.08178556022327
H           86.39256457674719        2.65996807608597       -0.75842323421198
H           84.57301656485255        4.43584636888075       -1.07849535868655
H           81.51615018632566        5.42192938806731        1.10554140864169
H           81.46554280669312        7.84702750113233        0.58727954103655
H           82.13283412168961        7.06544900884471       -3.50674485260681
H           82.19285325933768        4.62291193647058       -3.07763801327666
H           79.13438031335650        4.46450674399703       -0.40378552099941
H           77.31696547443771        2.68726735341325       -0.03645087355639
H           77.64304668349126       -2.66477923895401       -0.48575961221093
H           79.59929002469846       -4.52013472411720       -0.15417611788948
H           83.29484221704166       -5.56735113211517       -0.67851603774315
H           83.21888530598061       -7.94671629845947        0.01072869038829
H           80.82853190416651       -6.98513178733008        3.35398176556721
H           80.85844719164247       -4.58371378018199        2.74248069810114
H           84.83566521087467       -4.31250360949311        1.31050034147624
H           86.52530613602310       -2.40034098002827        0.91735758809299
C           42.34916195365567        0.00427529821836       -0.00536272559399
C           41.12554506969190       -0.00870321395278       -0.01384188045080
C           39.71713733960890       -0.00006675749987       -0.02518067471185
C           38.49024883679135        0.00776144948059       -0.01500274317588
C           43.71402812944292       -0.00149061762948       -0.00464256422868
C           44.89801660012329        0.01192724215881       -0.01931303541106
C           57.89212208571839        0.00429855155493       -0.00531573133928
C           56.66838434294448       -0.00862656366715       -0.01369586731651
C           55.31320555669431        0.00055822611287       -0.02747777833651
C           54.13295934778080        0.01375842155696       -0.02185676245799
C           59.24832079367249       -0.00157087487514       -0.00460414280335
C           60.43471105356319        0.01186738713760       -0.01942943428484
C           73.43431261670214        0.00439480942884       -0.00531663017933
C           72.21108037581320       -0.00853180720804       -0.01367293442330
C           70.84724399465787        0.00064989605057       -0.02751482926983
C           69.66971954973634        0.01370100584347       -0.02185217779006
C           74.84015058020604       -0.00191564101963       -0.00470520499452
C           76.07015951755581        0.00659935143200       -0.01454399935512
Co          49.44104646263938        0.02693283725291       -0.05177184964106
C           46.14877806783369       -0.00069659920289        0.00898060347426
C           46.75438315465885       -0.81347821081891        0.89047167598541
C           46.08323980100570       -1.62025488286555        1.90268564011454
C           47.02674859321267       -2.31149949557790        2.53573689009324
C           48.31551422589997       -1.96661974791743        1.93803348992882
N           48.13682285025880       -1.01175995673579        0.90618182656130
C           49.51137469772313       -2.49747750476156        2.31554802204654
C           49.53892354217272       -3.53475729119985        3.37545943254865
C           49.01013188725227       -4.81065678835719        3.14182789499941
C           49.07336635877851       -5.76822211344522        4.15175693232175
N           49.63960150945649       -5.47607412856023        5.34426922079270
C           50.15913331044772       -4.25230931349023        5.59031944364372
C           50.12357271482130       -3.25651759771481        4.61674340432033
C           50.79064164479410       -2.09388064251236        1.73345734044416
C           52.05580302311178       -2.79133865110511        1.96225162151208
C           53.01593917959659       -2.11176212407225        1.33388253820710
N           50.96280524538358       -1.03001122770274        0.98214688192275
C           52.33303980925388       -0.99639313843238        0.70927794131641
C           52.88595484524109        0.00182315533707        0.01451405549278
C           52.20003489076322        1.09251669393219       -0.62593474443104
C           52.75877128401561        2.26420273989567       -1.00068739072769
C           51.74065505733815        2.99866244028603       -1.69123322184111
C           50.62648634343410        2.22927312747526       -1.70513381826637