187
 energy: -367.362386477960 gnorm: 2.924045039715 xtb: 6.5.1 (b24c23e)
Fe          31.84054200000000        0.04040800000000       -0.01243000000000
C           28.50379600000000       -0.08459000000000       -0.09012600000000
C           29.16699300000000       -1.23592300000000       -0.23284500000000
C           28.51628600000000       -2.53445500000000       -0.35887800000000
C           29.45677500000000       -3.44756200000000       -0.51330900000000
C           30.76219300000000       -2.77293000000000       -0.50448000000000
N           30.58518700000000       -1.36816400000000       -0.31712300000000
C           31.95466100000000       -3.38298900000000       -0.66709300000000
C           32.00204500000000       -4.84488200000000       -0.89634800000000
C           32.51734500000000       -5.69432100000000        0.09175200000000
C           32.57610600000000       -7.07340400000000       -0.12569100000000
C           32.12331800000000       -7.62556600000000       -1.33843100000000
N           32.17918300000000       -9.04575600000000       -1.56507200000000
O           31.73473299999999       -9.58304100000000       -2.75196900000000
O           32.61881900000000       -9.81399500000000       -0.68395900000000
C           31.61407500000000       -6.76701900000000       -2.32876600000000
C           31.55604000000000       -5.38782500000000       -2.11003400000000
C           33.24767400000000       -2.64979800000000       -0.63798000000000
C           34.53425500000000       -3.24889000000000       -1.01454000000000
C           35.46859800000000       -2.33437400000000       -0.85031900000000
N           33.38842400000000       -1.41585500000000       -0.26037300000000
C           34.78561500000000       -1.14048100000000       -0.36668700000000
C           35.37903400000000        0.01154300000000       -0.01434000000000
C           34.61574000000000        1.18648100000000        0.46335100000000
C           35.14817000000000        2.19935500000000        1.13535500000000
C           34.10458000000000        3.18837000000000        1.32348500000000
C           33.00409600000000        2.71591300000000        0.74933300000000
N           33.23700000000000        1.42699600000000        0.17843200000000
C           31.72215700000000        3.46108300000000        0.65528200000000
C           31.73965200000000        4.92878000000000        0.86712800000000
C           31.07750900000000        5.49728200000000        1.96538700000000
C           31.11460100000000        6.87863600000000        2.17388300000000
C           31.81896100000000        7.71523400000000        1.29044300000000
N           31.85373100000000        9.13772400000000        1.50711500000000
O           31.24862700000000        9.69143400000000        2.61259700000000
O           32.43745400000000        9.89088900000000        0.69990300000000
C           32.48952300000000        7.13875300000000        0.19565500000000
C           32.45256800000000        5.75686400000000       -0.01120900000000
C           30.56003600000000        2.83496200000000        0.38808600000000
C           29.24987300000000        3.46787900000000        0.24504100000000
C           28.38841900000000        2.48833500000000        0.05187200000000
C           29.13983100000000        1.23420000000000        0.05651800000000
N           30.40634600000000        1.42395300000000        0.25084400000000
H           27.42031400000000       -0.11277000000000       -0.08427900000000
H           27.45214200000000       -2.73233100000000       -0.32973500000000
H           29.26890400000000       -4.50754900000000       -0.62504200000000
H           32.87130200000000       -5.28752100000000        1.03125700000000
H           32.97667200000000       -7.70736400000000        0.65440200000000
H           31.26163000000000       -7.16069600000000       -3.27351200000000
H           31.16474200000000       -4.74193100000000       -2.88637100000000
H           34.70712000000000       -4.25697200000000       -1.36846700000000
H           36.52419100000000       -2.47364000000000       -1.04329600000000
H           36.17477200000000        2.29060700000000        1.46277600000000
H           34.21473500000000        4.14487700000000        1.81864000000000
H           30.53647800000000        4.86877000000000        2.66249400000000
H           30.59265900000000        7.29167100000000        3.02755800000000
H           33.04779200000000        7.75502600000000       -0.49665500000000
H           32.97945500000000        5.33107800000000       -0.85668200000000
H           29.00650300000000        4.52144300000000        0.28537600000000
H           27.32189300000000        2.60660700000000       -0.08831200000000
Fe          59.67316900000000       -0.01593200000000       -0.02339300000000
C           63.00991500000000        0.12907800000000       -0.04855100000000
C           62.34671800000000        1.24992600000000        0.25084500000000
C           62.99742499999999        2.50097500000000        0.62090300000000
C           62.05693600000000        3.40536900000000        0.82011700000000
C           60.75151800000000        2.77664600000000        0.57534200000000
N           60.92852500000000        1.40411800000000        0.22230100000000
C           59.55904999999999        3.40317000000000        0.65334000000000
C           59.51166600000000        4.84436600000000        0.98896200000000
C           58.99636599999999        5.26133500000000        2.22347600000000
C           58.93760500000000        6.62133400000000        2.53899600000000
C           59.39039300000000        7.58793800000000        1.62177400000000
N           59.33452799999999        8.98949400000000        1.94418200000000
O           59.77897800000000        9.93261800000000        1.04533800000000
O           58.89489199999999        9.37130300000000        3.04906800000000
C           59.89963600000000        7.16336500000000        0.38177200000000
C           59.95767200000000        5.80278000000000        0.06740500000000
C           58.26603699999999        2.71255600000000        0.40541300000000
C           56.97945600000000        3.40913300000000        0.28096100000000
C           56.04511300000000        2.49976300000000        0.09029500000000
N           58.12528700000000        1.42705200000000        0.29279200000000
C           56.72809600000000        1.21163200000000        0.09098100000000
C           56.13467700000000        0.01154300000000       -0.01434000000000
C           56.89797100000000       -1.25678800000000       -0.01205400000000
C           56.36554100000000       -2.44773800000000        0.23113600000000
C           57.40913100000000       -3.43513700000000        0.03469900000000
C           58.50961500000000       -2.78186700000000       -0.32041100000000
N           58.27671100000000       -1.37292300000000       -0.36636900000000
C           59.79155400000000       -3.43740500000000       -0.68700800000000
C           59.77405899999999       -4.87745400000000       -1.04094400000000
C           60.43620200000000       -5.81628100000000       -0.23597800000000
C           60.39911000000000       -7.17503100000000       -0.56064400000000
C           59.69474999999999       -7.61933900000000       -1.69331900000000
N           59.65998000000000       -9.01928900000000       -2.02583000000000
O           60.26508400000000       -9.94711200000000       -1.20862100000000
O           59.07625700000000       -9.41483200000000       -3.05655500000000
C           59.02418800000000       -6.67441600000000       -2.49207700000000
C           59.06114299999999       -5.31578300000000       -2.16569600000000
C           60.95367499999999       -2.75677800000000       -0.69994100000000
C           62.26383799999999       -3.28988200000000       -1.06986700000000
C           63.12529200000000       -2.30937300000000       -0.88165400000000
C           62.37388000000000       -1.14848100000000       -0.40709800000000
N           61.10736500000000       -1.39725300000000       -0.29809900000000
H           64.09339700000000        0.15301000000000       -0.03256500000000
H           64.06156900000001        2.67348700000000        0.72211500000000
H           62.24480699999999        4.42991600000000        1.11398700000000
H           58.64240899999999        4.53193800000000        2.94190200000000
H           58.53703900000000        6.91653900000000        3.49988400000000
H           60.25208100000000        7.88256100000000       -0.34643400000000
H           60.34896900000000        5.49510300000000       -0.89447500000000
H           56.80659100000000        4.47637500000000        0.33084600000000
H           54.98952000000000        2.70122600000000       -0.03638400000000
H           55.33893900000000       -2.65510200000000        0.50045300000000
H           57.29897600000000       -4.50752100000000        0.13507800000000
H           60.97723300000000       -5.49501100000000        0.64593600000000
H           60.92105200000000       -7.87802400000000        0.07587700000000
H           58.46591899999999       -6.98613900000000       -3.36495400000000
H           58.53425600000000       -4.60404400000000       -2.78983200000000
H           62.50720800000000       -4.28170300000000       -1.42751800000000
H           64.19181800000000       -2.36645300000000       -1.05595800000000
C           38.55759100000000        0.02397900000000       -0.01189800000000
C           37.30532099999999        0.00479800000000       -0.01624700000000
C           39.87125999999999        0.02321300000000       -0.00996600000000
C           41.37439300000000        0.00479800000000       -0.01624700000000
C           51.48159400000000        0.02397900000000       -0.01189800000000
C           50.22932400000000        0.00479800000000       -0.01624700000000
C           52.79526200000000        0.02321300000000       -0.00996600000000
C           54.29839599999999        0.00479800000000       -0.01624700000000
Fe          45.67016100000000        0.05544300000000       -0.03146700000000
C           42.30296600000000       -0.02412700000000        0.03136900000000
C           42.95908399999999       -1.19566300000000        0.12007200000000
C           42.31798899999999       -2.49864900000000        0.30806400000000
C           43.25518300000000       -3.42610100000000        0.30065800000000
C           44.55311500000000       -2.77126200000000        0.10923600000000
N           44.37531600000000       -1.35703100000000        0.00007500000000
C           45.73793899999999       -3.41350500000000        0.03928100000000
C           45.76949000000000       -4.89107800000000        0.11321600000000
C           46.24797600000000       -5.52761600000000        1.26626300000000
C           46.28754400000000       -6.92309700000000        1.33576300000000
C           45.85266500000000       -7.70400200000000        0.24837300000000
N           45.89206599999999       -9.14139900000000        0.31543900000000
O           45.51749499999999       -9.90153300000000       -0.76873900000000
O           46.24756000000000       -9.72207200000000        1.36315000000000
C           45.37900700000000       -7.05797200000000       -0.90856000000000
C           45.33958100000000       -5.66260900000000       -0.97505000000000
C           47.03749000000000       -2.71002900000000       -0.10252200000000
C           48.31004099999999       -3.39254100000000       -0.36872700000000
C           49.26243099999999       -2.48206000000000       -0.37460600000000
N           47.20312100000000       -1.43234400000000        0.04589300000000
C           48.60419900000000       -1.20836600000000       -0.11350200000000
C           49.21908400000000       -0.02412700000000        0.03136900000000
C           48.46921300000000        1.22592400000000        0.27782200000000
C           49.00521999999999        2.33915200000000        0.76126800000000
C           47.97267700000000        3.35766600000000        0.73915500000000
C           46.87713300000000        2.79787100000000        0.23920600000000
N           47.10052500000000        1.42404400000000       -0.07459400000000
C           45.61992500000000        3.52818600000000       -0.05423700000000
C           45.67710499999999        5.00322100000000       -0.20452000000000
C           46.45978600000000        5.57660300000000       -1.21641600000000
C           46.53125099999999        6.96579700000000       -1.35253100000000
C           45.82431600000000        7.80650400000000       -0.47489600000000
N           45.89623700000000        9.23673700000000       -0.62058300000000
O           46.63064700000000        9.79975100000000       -1.63974800000000
O           45.28682499999999        9.98927800000000        0.16851400000000
C           45.04840200000000        7.22690200000000        0.54546800000000
C           44.97872099999999        5.83771300000000        0.68097900000000
C           44.44756799999999        2.88054800000000       -0.19890000000000
C           43.16921499999999        3.48935600000000       -0.55262900000000
C           42.28049300000000        2.51675100000000       -0.52602200000000
C           42.98022399999999        1.27918800000000       -0.16330000000000
N           44.24707399999999        1.48414000000000        0.02584600000000
H           41.26256700000000       -2.69993500000000        0.43417700000000
H           43.06952300000000       -4.48496300000000        0.42538500000000
H           46.58679600000000       -4.94272300000000        2.11223000000000
H           46.66162500000000       -7.39112000000000        2.23846100000000
H           45.03919699999999       -7.63091400000000       -1.76221900000000
H           44.97621600000000       -5.18206400000000       -1.87462200000000
H           48.46189099999999       -4.45180000000000       -0.53054700000000
H           50.31443099999999       -2.67394500000000       -0.53913300000000
H           50.02880000000000        2.47838500000000        1.08250400000000
H           48.08908899999999        4.39117300000000        1.03858100000000
H           47.01163800000000        4.94625500000000       -1.90295800000000
H           47.14054200000000        7.38181500000000       -2.14416000000000
H           44.49639100000000        7.84738500000000        1.23979000000000
H           44.38253799999999        5.41101800000000        1.47809600000000
H           42.96404999999999        4.52277400000000       -0.80045800000000
H           41.22829600000000        2.63440300000000       -0.74754900000000
187
 energy: -368.207163336942 gnorm: 0.718084812177 xtb: 6.5.1 (b24c23e)
Fe          31.84502033484634        0.03851356164130       -0.01330365111170
C           28.50458298603721       -0.07563518502565       -0.08928328288283
C           29.17154584807034       -1.23744433651782       -0.23317277409409
C           28.51520886299166       -2.53082901007265       -0.35831298006553
C           29.46157480380852       -3.44895780886692       -0.51373037589120
C           30.76031407257971       -2.76786088048060       -0.50375828996770
N           30.57931686355863       -1.37280111523370       -0.31655003473589
C           31.96278842449972       -3.38074389648678       -0.66748411950475
C           32.00335419339554       -4.84526881912285       -0.89696845069541
C           32.51722089602931       -5.69695667795288        0.08971189795160
C           32.57562026672734       -7.07345697778948       -0.12678751562199
C           32.12272818395986       -7.62746116378683       -1.34048809201784
N           32.17622214402213       -9.05785981307793       -1.57384285604020
O           31.74278535728005       -9.56947852292712       -2.72980360542443
O           32.61429181916181       -9.80483460359188       -0.69311570787168
C           31.61417106581141       -6.76651071160576       -2.32817706544781
C           31.55631141421400       -5.39060252298138       -2.10877595752028
C           33.24323432195148       -2.65784118895176       -0.63907492391071
C           34.52799517123565       -3.25383143906465       -1.01478849686218
C           35.46931894905240       -2.33066764084912       -0.84921708560461
N           33.39165258878649       -1.41000528662674       -0.26153774979131
C           34.78889742356264       -1.14039327214260       -0.36682113504258
C           35.39323601621766        0.01691445427962       -0.01103053674198
C           34.61500137458989        1.17809914899194        0.45568210592374
C           35.14883717593913        2.20997785068559        1.14001143413802
C           34.11538144363224        3.18889801174654        1.32595959664488
C           32.99618106203830        2.71116307475404        0.74271225930696
N           33.23693618023324        1.42571428626717        0.18303281304144
C           31.72834930797785        3.45759726382382        0.65535648998232
C           31.74147567238705        4.92818179220134        0.86791060377236
C           31.07810592945399        5.49971268842209        1.96409011402425
C           31.11482239913741        6.87804363131006        2.17330301292729
C           31.81800581939844        7.71714152980210        1.29227540246000
N           31.85030877841936        9.14990134108917        1.51567685827399
O           31.25944916662851        9.67759644090621        2.59182406005681
O           32.43128489105162        9.88187057886919        0.70823742774834
C           32.48874935969922        7.13866267245148        0.19662391271950
C           32.45211391745399        5.75935604697584       -0.00928571015128
C           30.55886212108200        2.83351152383301        0.38794437933555
C           29.25412556598276        3.46887971380928        0.24571749206149
C           28.38430768294280        2.48275096129277        0.05115296824175
C           29.13075995605989        1.22846379902369        0.05555836599292
N           30.41021006542983        1.42718773422024        0.24975364176691
H           27.42057506834521       -0.11157319731532       -0.08434055457171
H           27.45228888324196       -2.73022423497196       -0.32945663818428
H           29.27145459215352       -4.50762179509314       -0.62518780781233
H           32.87107365423049       -5.28781626396041        1.03064337223447
H           32.97650640177316       -7.70819096007245        0.65395677282314
H           31.26185481582567       -7.16158728631023       -3.27333161437874
H           31.16501440322736       -4.74226843516071       -2.88587649200809
H           34.70504823615230       -4.25780407675304       -1.36842122950011
H           36.52391238196393       -2.47125177046664       -1.04250618180132
H           36.17471514503431        2.29148592160577        1.46337823958032
H           34.21570776828388        4.14448813942525        1.81908429955639
H           30.53685100226864        4.86910344945453        2.66203636063188
H           30.59293814201318        7.29251679524273        3.02741520602533
H           33.04752965442115        7.75581687549901       -0.49628074764807
H           32.97910173362344        5.33138438152012       -0.85613755713347
H           29.00887548821109        4.52127226637521        0.28566533493758
H           27.32135495585165        2.60479946004111       -0.08853395656197
Fe          59.66872203357050       -0.01385401351205       -0.02351875883747
C           63.00911183779921        0.12048167146540       -0.05112042117623
C           62.34216454595262        1.25148163601080        0.25112233227159
C           62.99852463146536        2.49741990964762        0.62007315293037
C           62.05215409916165        3.40681847067521        0.82024441212605
C           60.75349063749989        2.77152535293501        0.57409369315439
N           60.93444591989757        1.40834871962645        0.22463431430993
C           59.55070709895934        3.40120198414998        0.65211658595203
C           59.51035241173577        4.84496787568223        0.98852360218476
C           58.99649840976897        5.26453415850253        2.22257082051319
C           58.93809547899532        6.62179956490855        2.53799601263809
C           59.39098239610711        7.59045721635299        1.62057402790750
N           59.33748237006216        9.00402454177635        1.94057866402045
O           59.77092872721741        9.91172117764171        1.06082023026802
O           58.89942445406714        9.36624060129321        3.03714710792742
C           59.89953715150577        7.16267644018760        0.38213014116696
C           59.95739808762963        5.80487681217325        0.06960979271251
C           58.27059599545063        2.72063085290501        0.40746033368919
C           56.98580493440060        3.41387232856529        0.28260682489560
C           56.04444039680852        2.49591067578857        0.08991273646002
N           58.12173685851365        1.42180555414402        0.28944450085763
C           56.72510229701933        1.21223746675740        0.09084083431268
C           56.11701962048679        0.00494112744863       -0.01336914746113
C           56.89873762387752       -1.24643236967461       -0.01599286845758
C           56.36492204839787       -2.45942627997340        0.23148694540722
C           57.39826888575787       -3.43655192814329        0.03678478709235
C           58.51757914686074       -2.77494408077286       -0.32476962280041
N           58.27664724623182       -1.37350460692216       -0.36160402546078
C           59.78530472856040       -3.43418442723866       -0.68561893682495
C           59.77223478882049       -4.87720365688540       -1.03999196712559
C           60.43560222435045       -5.81804219483316       -0.23808906851370
C           60.39888444344577       -7.17426904178431       -0.56096353174223
C           59.69570367353780       -7.62178329243673       -1.69233233336708
N           59.66338978061798       -9.03381456390478       -2.02245509363217
O           60.25426562555725       -9.92648128998647       -1.22270458908449
O           59.08244063355540       -9.40958965190246       -3.04544391287686
C           59.02496628859328       -6.67470092153507       -2.49114263183317
C           59.06160170958096       -5.31880509414546       -2.16484612046792
C           60.95487379721070       -2.75535826713052       -0.69953348544989
C           62.25956554643169       -3.29106231427215       -1.06961184650935
C           63.12940573639334       -2.30390981122933       -0.88022094074206
C           62.38293992898704       -1.14284110731015       -0.40584252854593
N           61.10346997109456       -1.39981823737927       -0.30036047049044
H           64.09313405879809        0.15192552776127       -0.03306873976020
H           64.06142638420245        2.67143141771636        0.72158124691025
H           62.24225426019269        4.43003745760087        1.11387736165311
H           58.64263648501569        4.53244017467749        2.94144271694091
H           58.53720225940229        6.91747156242750        3.49977923555067
H           60.25185560569035        7.88331980892672       -0.34593306459560
H           60.34869490280064        5.49523095838844       -0.89389134520609
H           56.80865785404760        4.47713204226602        0.33120274026383
H           54.98978477053563        2.69866483069268       -0.03655013141541
H           55.33897531457212       -2.65612066100056        0.50066834840300
H           57.29799488204889       -4.50732199825161        0.13563347955556
H           60.97685891309127       -5.49514864166705        0.64538819338061
H           60.92077242937962       -7.87875487481357        0.07542764159590
H           58.46617896189290       -6.98701213889193       -3.36490126204713
H           58.53460868152329       -4.60453138895656       -2.78944164613103
H           62.50483331061487       -4.28165120554925       -1.42718379817196
H           64.19235570226189       -2.36469152614829       -1.05548438486242
C           38.54897057352585        0.02413224293076       -0.01225235756172
C           37.28716176219580        0.00616677445000       -0.01581314139665
C           39.86795775984741        0.02339902703021       -0.00997860115463
C           41.17620116884054        0.01466247870593       -0.02304427289521
C           51.52952821863000        0.02553109322217       -0.01267673020012
C           50.33707519082904        0.01399643932024       -0.02032923643867
C           52.84191224622732        0.02239707251322       -0.01042052958515
C           54.28097778599036        0.00416437955972       -0.01610040036618
Fe          45.67392146482953        0.05322482001628       -0.03074179693024
C           42.43298081299179       -0.02006138382154        0.03557129044588
C           42.99563102273796       -1.21680027416740        0.12263101184814
C           42.31769484482134       -2.49165846180566        0.30743718510836
C           43.26169390798549       -3.42874312837077        0.30027162817852
C           44.55070791812846       -2.76873869675117        0.10914849219566
N           44.37250407222057       -1.36443610158067        0.00238916024078
C           45.74633684730635       -3.41189009093826        0.03818508478352
C           45.77060896830324       -4.89185827087939        0.11283082633529
C           46.24775175801636       -5.53058322744198        1.26482832862595
C           46.28705150100027       -6.92339906783698        1.33463858212173
C           45.85225854293029       -7.70616542677556        0.24666517757931
N           45.88920109298451       -9.15520560536710        0.30913834998906
O           45.52431456185105       -9.88383520657845       -0.74920267422649
O           46.24401318650818       -9.71469011082790        1.35189527767711
C           45.37928177947559       -7.05751818611805       -0.90796953193051
C           45.33984616020705       -5.66511491892203       -0.97331663425035
C           47.03265065512639       -2.72202048018407       -0.10240085320123
C           48.30190571276625       -3.39853013901299       -0.36780866568313
C           49.26200788187712       -2.47565135464502       -0.37366615197153
N           47.20305326115372       -1.42977760265191        0.04341326819003
C           48.57717138831712       -1.22528349145025       -0.11495254743647
C           49.11851029907197       -0.01980755976479        0.03624512813603
C           48.44539393046216        1.22724552572146        0.27534580244125
C           49.00497786194489        2.34983590264488        0.76357749004395
C           47.98348254700023        3.35925352472850        0.74150604204476
C           46.86899833468014        2.79330266132942        0.23351966611567
N           47.09724646064959        1.42708201224193       -0.07030884643177
C           45.62629941991842        3.52523866384729       -0.05331070522268
C           45.67873517595536        5.00277762273877       -0.20363247922557
C           46.45936058360341        5.57912348460376       -1.21525967662567
C           46.53073870774107        6.96519587208312       -1.35209432346266
C           45.82554276939067        7.80840031855362       -0.47658806034605
N           45.90116594831004        9.24926583744796       -0.62818833323085
O           46.61715220240990        9.78562083011598       -1.62072969964097
O           45.29322677066274        9.98014353082179        0.16033360276222
C           45.04913648532224        7.22682593476294        0.54447676348505
C           44.97948053803385        5.83994147518507        0.67907986954853
C           44.44628499661305        2.88094969700776       -0.19892394664082
C           43.17413292742004        3.49080714859466       -0.55194266462460
C           42.27658991263767        2.50950320062366       -0.52504731670090
C           42.99366129322511        1.28761576229005       -0.16493625089110
N           44.25577679300889        1.49036525389577        0.02321483741956
H           41.26251377131567       -2.69633725661468        0.43386056544775
H           43.07193821405384       -4.48512186713146        0.42511870520375
H           46.58662411151705       -4.94308098750048        2.11170938851148
H           46.66137596062935       -7.39189614744287        2.23798938259467
H           45.03943966317334       -7.63174183337882       -1.76178474548967
H           44.97641937173659       -5.18229861905401       -1.87411720486932
H           48.45986543687852       -4.45269943721674       -0.53040208637319
H           50.31394203816380       -2.67077537401063       -0.53874224778767
H           50.02850874928802        2.47875184727791        1.08289119794862
H           48.09021501698347        4.39101915277203        1.03918757826220
H           47.01133373409740        4.94656746901487       -1.90253531662221
H           47.14035372740883        7.38268481731373       -2.14401913723581
H           44.49672883402626        7.84811156203323        1.23941201789746
H           44.38293341694007        5.41126976616795        1.47765512762385
H           42.96624598436994        4.52250187323310       -0.79997314508219
H           41.22753776176416        2.63162939829652       -0.74706290609786
187
 energy: -368.467756298996 gnorm: 0.387283593990 xtb: 6.5.1 (b24c23e)
Fe          31.85709002452096        0.03117934214332       -0.01612053498249
C           28.50656969820357       -0.06099992469049       -0.08817612947472
C           29.17741211777905       -1.23580300480805       -0.23269343004001
C           28.51755412955659       -2.52317266582102       -0.35716788694754
C           29.47244697182506       -3.44780151454058       -0.51416537959456
C           30.76166729689013       -2.75991003682723       -0.50257418943427
N           30.56894351729079       -1.38036227597939       -0.31379456144907