      -----------------------------------------------------------      
     |                   =====================                   |     
     |                           x T B                           |     
     |                   =====================                   |     
     |                         S. Grimme                         |     
     |          Mulliken Center for Theoretical Chemistry        |     
     |                    University of Bonn                     |     
      -----------------------------------------------------------      

   * xtb version 6.5.1 (b24c23e) compiled by 'conda@728c89f4b128' on 2022-07-12

   xtb is free software: you can redistribute it and/or modify it under
   the terms of the GNU Lesser General Public License as published by
   the Free Software Foundation, either version 3 of the License, or
   (at your option) any later version.
   
   xtb is distributed in the hope that it will be useful,
   but WITHOUT ANY WARRANTY; without even the implied warranty of
   MERCHANTABILITY or FITNESS FOR A PARTICULAR PURPOSE.  See the
   GNU Lesser General Public License for more details.
   
   Cite this work as:
   * C. Bannwarth, E. Caldeweyher, S. Ehlert, A. Hansen, P. Pracht,
     J. Seibert, S. Spicher, S. Grimme, WIREs Comput. Mol. Sci., 2020, 11,
     e01493. DOI: 10.1002/wcms.1493
   
   for GFN2-xTB:
   * C. Bannwarth, S. Ehlert and S. Grimme., J. Chem. Theory Comput., 2019,
     15, 1652-1671. DOI: 10.1021/acs.jctc.8b01176
   for GFN1-xTB:
   * S. Grimme, C. Bannwarth, P. Shushkov, J. Chem. Theory Comput., 2017,
     13, 1989-2009. DOI: 10.1021/acs.jctc.7b00118
   for GFN0-xTB:
   * P. Pracht, E. Caldeweyher, S. Ehlert, S. Grimme, ChemRxiv, 2019, preprint.
     DOI: 10.26434/chemrxiv.8326202.v1
   for GFN-FF:
   * S. Spicher and S. Grimme, Angew. Chem. Int. Ed., 2020, 59, 15665-15673.
     DOI: 10.1002/anie.202004239
   
   for ALPB and GBSA implicit solvation:
   * S. Ehlert, M. Stahn, S. Spicher, S. Grimme, J. Chem. Theory Comput.,
     2021, 17, 4250-4261. DOI: 10.1021/acs.jctc.1c00471
   
   for DFT-D4:
   * E. Caldeweyher, C. Bannwarth and S. Grimme, J. Chem. Phys., 2017,
     147, 034112. DOI: 10.1063/1.4993215
   * E. Caldeweyher, S. Ehlert, A. Hansen, H. Neugebauer, S. Spicher,
     C. Bannwarth and S. Grimme, J. Chem. Phys., 2019, 150, 154122.
     DOI: 10.1063/1.5090222
   * E. Caldeweyher, J.-M. Mewes, S. Ehlert and S. Grimme, Phys. Chem. Chem. Phys.
     2020, 22, 8499-8512. DOI: 10.1039/D0CP00502A
   
   for sTDA-xTB:
   * S. Grimme and C. Bannwarth, J. Chem. Phys., 2016, 145, 054103.
     DOI: 10.1063/1.4959605
   
   in the mass-spec context:
   * V. Asgeirsson, C. Bauer and S. Grimme, Chem. Sci., 2017, 8, 4879.
     DOI: 10.1039/c7sc00601b
   * J. Koopman and S. Grimme, ACS Omega 2019, 4, 12, 15120-15133.
     DOI: 10.1021/acsomega.9b02011
   
   for metadynamics refer to:
   * S. Grimme, J. Chem. Theory Comput., 2019, 155, 2847-2862
     DOI: 10.1021/acs.jctc.9b00143
   
   for SPH calculations refer to:
   * S. Spicher and S. Grimme, J. Chem. Theory Comput., 2021, 17, 1701-1714
     DOI: 10.1021/acs.jctc.0c01306
   
   with help from (in alphabetical order)
   P. Atkinson, C. Bannwarth, F. Bohle, G. Brandenburg, E. Caldeweyher
   M. Checinski, S. Dohm, S. Ehlert, S. Ehrlich, I. Gerasimov, C. Hölzer
   A. Katbashev, J. Koopman, C. Lavigne, S. Lehtola, F. März, M. Müller,
   F. Musil, H. Neugebauer, J. Pisarek, C. Plett, P. Pracht, F. Pultar,
   J. Seibert, P. Shushkov, S. Spicher, M. Stahn, M. Steiner, T. Strunk,
   J. Stückrath, T. Rose, and J. Unsleber
   
 * started run on 2022/07/27 at 13:49:19.719     

           -------------------------------------------------
          |                Calculation Setup                |
           -------------------------------------------------

          program call               : xtb DHP_C2_3.xyz --gfn 1 --opt -T 48
          hostname                   : cx3-14-14.cx3.hpc.ic.ac.uk
          coordinate file            : DHP_C2_3.xyz
          omp threads                :                     1

   ID    Z sym.   atoms
    1    6 C      1-5, 7-10, 12-16, 18-23, 25-28, 30-35, 60-64, 66-69, 71-75,
                  77-82, 84-87, 89-94, 119-127, 129-132, 134-138, 140-145,
                  147-150, 152-157
    2    7 N      6, 11, 17, 24, 29, 36, 65, 70, 76, 83, 88, 95, 128, 133,
                  139, 146, 151, 158
    3    1 H      37-59, 96-118, 159-180

molecular fragmentation (1/2 indicates fragments):
111111111111111111111111111111111111111111111111111111111112222222222222
222222222222222222222222222222222222222222222222222222222222222222222222
222222222222222222222222222222222222
# atoms in fragment 1/2:    59   121
 fragment masses (1/2) :      467.54      982.12
CMA distance (Bohr)    :  32.304
constraining FC (au)   :  0.0500
########################################################################
[WARNING] Please study the warnings concerning your input carefully
-1- prog_main_parseArguments: Unknown option '-T' provided
########################################################################

           -------------------------------------------------
          |                 G F N 1 - x T B                 |
           -------------------------------------------------

        Reference                      10.1021/acs.jctc.7b00118
      * Hamiltonian:
        H0-scaling (s, p, d)           1.850000    2.250000    2.000000
        zeta-weighting                 0.000000
      * Dispersion:
        s8                             2.400000
        a1                             0.630000
        a2                             5.000000
        s9                             0.000000
      * Repulsion:
        kExp                           1.500000
        rExp                           1.000000
      * Coulomb:
        alpha                          2.000000
        third order                    atomic
        anisotropic                    false
      * Halogen bond correction:
        rad-scale                      1.300000
        damping                        0.440000


          ...................................................
          :                      SETUP                      :
          :.................................................:
          :  # basis functions                 584          :
          :  # atomic orbitals                 584          :
          :  # shells                          360          :
          :  # electrons                       534          :
          :  # halogen bonds                     0          :
          :  max. iterations                   250          :
          :  Hamiltonian                  GFN1-xTB          :
          :  restarted?                      false          :
          :  GBSA solvation                  false          :
          :  PC potential                    false          :
          :  electronic temp.          300.0000000     K    :
          :  accuracy                    1.0000000          :
          :  -> integral cutoff          0.2500000E+02      :
          :  -> integral neglect         0.1000000E-07      :
          :  -> SCF convergence          0.1000000E-05 Eh   :
          :  -> wf. convergence          0.2000000E-04 e    :
          :  Broyden damping             0.4000000          :
          ...................................................

 iter      E             dE          RMSdq      gap      omega  full diag
   1   -296.1309476 -0.296131E+03  0.100E+01    0.40       0.0  T
   2   -296.4696127 -0.338665E+00  0.600E+00    0.46       1.0  T
   3   -295.8260838  0.643529E+00  0.155E+00    0.56       1.0  T
   4   -296.1630653 -0.336982E+00  0.874E-01    0.52       1.0  T
   5   -296.4251983 -0.262133E+00  0.480E-01    0.40       1.0  T
   6   -296.4977809 -0.725826E-01  0.255E-01    0.46       1.0  T
   7   -296.5102777 -0.124968E-01  0.198E-01    0.48       1.0  T
   8   -296.5293677 -0.190901E-01  0.569E-02    0.46       1.0  T
   9   -296.5296155 -0.247771E-03  0.507E-02    0.45       1.0  T
  10   -296.5307015 -0.108594E-02  0.104E-02    0.45       1.0  T
  11   -296.5307327 -0.312082E-04  0.464E-03    0.45       1.6  T
  12   -296.5307386 -0.592478E-05  0.200E-03    0.45       3.7  T
  13   -296.5307391 -0.514157E-06  0.115E-03    0.45       6.5  T
  14   -296.5307393 -0.183744E-06  0.588E-04    0.45      12.7  T
  15   -296.5307394 -0.120403E-06  0.208E-04    0.45      35.8  T
  16   -296.5307394 -0.166485E-07  0.860E-05    0.45      86.6  T
  17   -296.5307394 -0.222201E-08  0.226E-05    0.45     330.0  T

   *** convergence criteria satisfied after 17 iterations ***

         #    Occupation            Energy/Eh            Energy/eV
      -------------------------------------------------------------
         1        2.0000           -0.7900318             -21.4979
       ...           ...                  ...                  ...
       261        2.0000           -0.3686176             -10.0306
       262        2.0000           -0.3685762             -10.0295
       263        2.0000           -0.3673041              -9.9949
       264        2.0000           -0.3672301              -9.9928
       265        2.0000           -0.3666561              -9.9772
       266        2.0000           -0.3659072              -9.9568
       267        1.9995           -0.3605715              -9.8117 (HOMO)
       268        0.0003           -0.3440907              -9.3632 (LUMO)
       269        0.0002           -0.3439288              -9.3588
       270        0.0000           -0.3408972              -9.2763
       271                         -0.3077716              -8.3749
       272                         -0.3053706              -8.3096
       ...                                ...                  ...
       584                          1.8784349              51.1148
      -------------------------------------------------------------
                  HL-Gap            0.0164809 Eh            0.4485 eV
             Fermi-level           -0.3526270 Eh           -9.5955 eV

 SCC (total)                   0 d,  0 h,  0 min,  2.392 sec
 SCC setup                      ...        0 min,  0.010 sec (  0.409%)
 Dispersion                     ...        0 min,  0.007 sec (  0.279%)
 classical contributions        ...        0 min,  0.003 sec (  0.106%)
 integral evaluation            ...        0 min,  0.182 sec (  7.610%)
 iterations                     ...        0 min,  1.697 sec ( 70.950%)
 molecular gradient             ...        0 min,  0.474 sec ( 19.807%)
 printout                       ...        0 min,  0.020 sec (  0.839%)

         :::::::::::::::::::::::::::::::::::::::::::::::::::::
         ::                     SUMMARY                     ::
         :::::::::::::::::::::::::::::::::::::::::::::::::::::
         :: total energy            -291.848498096479 Eh    ::
         :: gradient norm              0.964555657345 Eh/a0 ::
         :: HOMO-LUMO gap              0.448467760940 eV    ::
         ::.................................................::
         :: SCC energy              -296.530739428393 Eh    ::
         :: -> electrostatic           0.255193923770 Eh    ::
         :: repulsion energy           4.829577180751 Eh    ::
         :: dispersion energy         -0.147335848837 Eh    ::
         :: halogen bond corr.         0.000000000000 Eh    ::
         :: add. restraining           0.000000000000 Eh    ::
         :: total charge              -0.000000000293 e     ::
         :::::::::::::::::::::::::::::::::::::::::::::::::::::

      ----------------------------------------------------------- 
     |                   =====================                   |
     |                        A N C O P T                        |
     |                   =====================                   |
     |               Approximate Normal Coordinate               |
     |                Rational Function Optimizer                |
      ----------------------------------------------------------- 

          ...................................................
          :                      SETUP                      :
          :.................................................:
          :   optimization level            normal          :
          :   max. optcycles                   540          :
          :   ANC micro-cycles                  20          :
          :   degrees of freedom               534          :
          :.................................................:
          :   RF solver                   davidson          :
          :   write xtbopt.log                true          :
          :   linear?                        false          :
          :   energy convergence         0.5000000E-05 Eh   :
          :   grad. convergence          0.1000000E-02 Eh/α :
          :   maximium RF displ.         1.0000000          :
          :   Hlow (freq-cutoff)         0.1000000E-01      :
          :   Hmax (freq-cutoff)         5.0000000          :
          :   S6 in model hess.         20.0000000          :
          ...................................................

generating ANC from model Hessian ...
Using Lindh-Hessian (1995)
 Shifting diagonal of input Hessian by    1.0000229449222480E-002
 Lowest  eigenvalues of input Hessian
    0.010000    0.000000    0.000000    0.000000    0.000000    0.000000
    0.000000    0.010002    0.010005    0.010010    0.010013    0.010018
    0.010061    0.010090    0.010103    0.010207    0.010230    0.010236
 Highest eigenvalues
    2.124055    2.128312    2.139322    2.139323    3.144731    3.165390


........................................................................
.............................. CYCLE    1 ..............................
........................................................................
   1   -296.5307394 -0.296531E+03  0.980E-06    0.45       0.0  T
   2   -296.5307394  0.369312E-09  0.293E-05    0.45     254.3  T
   3   -296.5307394 -0.406317E-09  0.290E-06    0.45    2569.7  T
     SCC iter.                  ...        0 min,  0.317 sec
     gradient                   ...        0 min,  0.474 sec
 * total energy  :  -291.8484981 Eh     change       -0.2136744E-09 Eh
   gradient norm :     0.9645558 Eh/α   predicted     0.0000000E+00 (-100.00%)
   displ. norm   :     0.5263906 α      lambda       -0.4285565E+00
   maximum displ.:     0.1959878 α      in ANC's #428, #534, #533, ...

........................................................................
.............................. CYCLE    2 ..............................
........................................................................
   1   -296.5423759 -0.296542E+03  0.122E-01    0.71       0.0  T
   2   -296.5446635 -0.228764E-02  0.101E-01    0.67       1.0  T
   3   -296.5461269 -0.146341E-02  0.348E-02    0.69       1.0  T
   4   -296.5453983  0.728571E-03  0.495E-02    0.70       1.0  T
   5   -296.5461072 -0.708862E-03  0.205E-02    0.70       1.0  T
   6   -296.5462236 -0.116374E-03  0.501E-03    0.70       1.5  T
   7   -296.5462337 -0.100698E-04  0.198E-03    0.70       3.8  T
   8   -296.5462346 -0.982862E-06  0.134E-03    0.70       5.6  T
   9   -296.5462355 -0.867003E-06  0.384E-04    0.70      19.4  T
  10   -296.5462355 -0.447766E-07  0.207E-04    0.70      36.1  T
  11   -296.5462356 -0.619798E-08  0.160E-04    0.70      46.4  T
  12   -296.5462356 -0.122600E-07  0.323E-05    0.70     230.7  T
     SCC iter.                  ...        0 min,  1.191 sec
     gradient                   ...        0 min,  0.468 sec
 * total energy  :  -292.1429917 Eh     change       -0.2944936E+00 Eh
   gradient norm :     0.4057749 Eh/α   predicted    -0.2736760E+00 (  -7.07%)
   displ. norm   :     0.5778018 α      lambda       -0.1847250E+00
   maximum displ.:     0.1635813 α      in ANC's #48, #428, #326, ...

........................................................................
.............................. CYCLE    3 ..............................
........................................................................
   1   -296.5524605 -0.296552E+03  0.970E-02    0.92       0.0  T
   2   -296.5540729 -0.161238E-02  0.840E-02    0.91       1.0  T
   3   -296.5551155 -0.104259E-02  0.307E-02    0.90       1.0  T
   4   -296.5549252  0.190251E-03  0.276E-02    0.89       1.0  T
   5   -296.5551155 -0.190251E-03  0.815E-03    0.89       1.0  T
   6   -296.5551378 -0.222866E-04  0.321E-03    0.89       2.3  T
   7   -296.5551423 -0.457940E-05  0.924E-04    0.89       8.1  T
   8   -296.5551427 -0.380951E-06  0.364E-04    0.89      20.5  T
   9   -296.5551428 -0.469493E-07  0.121E-04    0.89      61.6  T
  10   -296.5551428 -0.329032E-08  0.417E-05    0.89     178.9  T
     SCC iter.                  ...        0 min,  0.979 sec
     gradient                   ...        0 min,  0.480 sec
 * total energy  :  -292.2838786 Eh     change       -0.1408869E+00 Eh
   gradient norm :     0.1902011 Eh/α   predicted    -0.1231983E+00 ( -12.56%)
   displ. norm   :     0.6787191 α      lambda       -0.9593742E-01
   maximum displ.:     0.3060257 α      in ANC's #48, #245, #143, ...

........................................................................
.............................. CYCLE    4 ..............................
........................................................................
   1   -296.5867795 -0.296587E+03  0.804E-02    1.00       0.0  T
   2   -296.5876574 -0.877919E-03  0.820E-02    0.99       1.0  T
   3   -296.5885923 -0.934963E-03  0.328E-02    0.98       1.0  T
   4   -296.5882979  0.294493E-03  0.297E-02    0.96       1.0  T
   5   -296.5886080 -0.310139E-03  0.579E-03    0.97       1.3  T
   6   -296.5886200 -0.120096E-04  0.183E-03    0.97       4.1  T
   7   -296.5886215 -0.154073E-05  0.592E-04    0.97      12.6  T
   8   -296.5886217 -0.137400E-06  0.301E-04    0.97      24.8  T
   9   -296.5886217 -0.372531E-07  0.883E-05    0.97      84.4  T
  10   -296.5886217 -0.177187E-08  0.386E-05    0.97     192.9  T
     SCC iter.                  ...        0 min,  0.980 sec
     gradient                   ...        0 min,  0.462 sec
 * total energy  :  -292.3525577 Eh     change       -0.6867905E-01 Eh
   gradient norm :     0.0829085 Eh/α   predicted    -0.7006603E-01 (   2.02%)
   displ. norm   :     0.7420784 α      lambda       -0.4309735E-01
   maximum displ.:     0.5047567 α      in ANC's #48, #89, #123, ...

........................................................................
.............................. CYCLE    5 ..............................
........................................................................
   1   -296.6374867 -0.296637E+03  0.459E-02    0.98       0.0  T
   2   -296.6375926 -0.105940E-03  0.509E-02    0.98       1.0  T
   3   -296.6379853 -0.392691E-03  0.213E-02    0.99       1.0  T
   4   -296.6378223  0.162978E-03  0.200E-02    0.98       1.0  T
   5   -296.6379904 -0.168107E-03  0.322E-03    0.98       2.3  T
   6   -296.6379939 -0.351579E-05  0.991E-04    0.98       7.5  T
   7   -296.6379944 -0.492376E-06  0.312E-04    0.98      23.9  T
   8   -296.6379945 -0.452027E-07  0.141E-04    0.98      52.9  T
   9   -296.6379945 -0.674902E-08  0.662E-05    0.98     112.7  T
     SCC iter.                  ...        0 min,  0.884 sec
     gradient                   ...        0 min,  0.477 sec
 * total energy  :  -292.3853709 Eh     change       -0.3281328E-01 Eh
   gradient norm :     0.0612208 Eh/α   predicted    -0.3341513E-01 (   1.83%)
   displ. norm   :     0.7669071 α      lambda       -0.2760470E-01
   maximum displ.:     0.5990166 α      in ANC's #48, #89, #56, ...

........................................................................
.............................. CYCLE    6 ..............................
........................................................................
   1   -296.7056637 -0.296706E+03  0.225E-02    1.00       0.0  T
   2   -296.7057213 -0.576006E-04  0.153E-02    1.00       1.0  T
   3   -296.7057559 -0.346260E-04  0.688E-03    1.00       1.1  T
   4   -296.7057521  0.384595E-05  0.689E-03    1.00       1.1  T
   5   -296.7057689 -0.167854E-04  0.151E-03    1.00       4.9  T
   6   -296.7057693 -0.465091E-06  0.548E-04    1.00      13.6  T
   7   -296.7057695 -0.132163E-06  0.166E-04    1.00      44.9  T
   8   -296.7057695 -0.527069E-08  0.977E-05    1.00      76.3  T
     SCC iter.                  ...        0 min,  0.800 sec
     gradient                   ...        0 min,  0.479 sec
 * total energy  :  -292.4089926 Eh     change       -0.2362165E-01 Eh
   gradient norm :     0.0344939 Eh/α   predicted    -0.2192017E-01 (  -7.20%)
   displ. norm   :     0.8377189 α      lambda       -0.2211087E-01
   maximum displ.:     0.6885874 α      in ANC's #48, #12, #56, ...

........................................................................
.............................. CYCLE    7 ..............................
........................................................................
   1   -296.7736721 -0.296774E+03  0.198E-02    1.01       0.0  T
   2   -296.7737216 -0.495621E-04  0.118E-02    1.01       1.0  T
   3   -296.7737342 -0.125727E-04  0.612E-03    1.01       1.2  T
   4   -296.7737303  0.385181E-05  0.593E-03    1.01       1.3  T
   5   -296.7737439 -0.135345E-04  0.116E-03    1.01       6.4  T
   6   -296.7737443 -0.414729E-06  0.442E-04    1.01      16.8  T
   7   -296.7737444 -0.976714E-07  0.143E-04    1.01      52.0  T
   8   -296.7737444 -0.489996E-08  0.901E-05    1.01      82.7  T
     SCC iter.                  ...        0 min,  0.804 sec
     gradient                   ...        0 min,  0.483 sec
 * total energy  :  -292.4283323 Eh     change       -0.1933974E-01 Eh
   gradient norm :     0.0291352 Eh/α   predicted    -0.1881392E-01 (  -2.72%)
   displ. norm   :     0.8571013 α      lambda       -0.1769362E-01
   maximum displ.:     0.7152162 α      in ANC's #48, #12, #23, ...

........................................................................
.............................. CYCLE    8 ..............................
........................................................................
   1   -296.8329188 -0.296833E+03  0.157E-02    1.02       0.0  T
   2   -296.8329388 -0.199934E-04  0.941E-03    1.02       1.0  T
   3   -296.8329426 -0.385631E-05  0.522E-03    1.02       1.4  T
   4   -296.8329416  0.104846E-05  0.446E-03    1.02       1.7  T
   5   -296.8329494 -0.781931E-05  0.892E-04    1.02       8.4  T
   6   -296.8329497 -0.361358E-06  0.312E-04    1.02      23.9  T
   7   -296.8329498 -0.453005E-07  0.109E-04    1.02      68.3  T
   8   -296.8329498 -0.259263E-08  0.701E-05    1.02     106.4  T
     SCC iter.                  ...        0 min,  0.773 sec
     gradient                   ...        0 min,  0.474 sec
 * total energy  :  -292.4439510 Eh     change       -0.1561869E-01 Eh
   gradient norm :     0.0296490 Eh/α   predicted    -0.1534590E-01 (  -1.75%)
   displ. norm   :     0.8533268 α      lambda       -0.1450441E-01
   maximum displ.:     0.6982400 α      in ANC's #48, #12, #23, ...

........................................................................
.............................. CYCLE    9 ..............................
........................................................................
   1   -296.8864083 -0.296886E+03  0.146E-02    1.03       0.0  T
   2   -296.8864203 -0.119644E-04  0.832E-03    1.03       1.0  T
   3   -296.8864221 -0.179408E-05  0.493E-03    1.03       1.5  T
   4   -296.8864229 -0.847935E-06  0.217E-03    1.03       3.4  T
   5   -296.8864245 -0.157225E-05  0.700E-04    1.03      10.6  T
   6   -296.8864247 -0.249160E-06  0.300E-04    1.03      24.8  T
   7   -296.8864248 -0.559139E-07  0.102E-04    1.03      73.1  T
   8   -296.8864248 -0.261832E-08  0.619E-05    1.03     120.5  T
     SCC iter.                  ...        0 min,  0.793 sec
     gradient                   ...        0 min,  0.470 sec
 * total energy  :  -292.4564237 Eh     change       -0.1247273E-01 Eh
   gradient norm :     0.0294583 Eh/α   predicted    -0.1253303E-01 (   0.48%)
   displ. norm   :     0.8466155 α      lambda       -0.1193086E-01
   maximum displ.:     0.6700798 α      in ANC's #48, #12, #11, ...

........................................................................
.............................. CYCLE   10 ..............................
........................................................................
   1   -296.9300951 -0.296930E+03  0.143E-02    1.04       0.0  T
   2   -296.9301097 -0.146709E-04  0.873E-03    1.04       1.0  T
   3   -296.9301148 -0.505853E-05  0.469E-03    1.04       1.6  T
   4   -296.9301125  0.225667E-05  0.312E-03    1.04       2.4  T
   5   -296.9301169 -0.436726E-05  0.755E-04    1.04       9.9  T
   6   -296.9301171 -0.236971E-06  0.272E-04    1.04      27.4  T
   7   -296.9301172 -0.314241E-07  0.103E-04    1.04      72.2  T
   8   -296.9301172 -0.320824E-08  0.556E-05    1.04     134.0  T
     SCC iter.                  ...        0 min,  0.775 sec
     gradient                   ...        0 min,  0.482 sec
 * total energy  :  -292.4662388 Eh     change       -0.9815037E-02 Eh
   gradient norm :     0.0219388 Eh/α   predicted    -0.1024120E-01 (   4.34%)
   displ. norm   :     0.8142948 α      lambda       -0.8667341E-02
   maximum displ.:     0.6136169 α      in ANC's #48, #12, #23, ...

........................................................................
.............................. CYCLE   11 ..............................
........................................................................
   1   -296.9669753 -0.296967E+03  0.135E-02    1.05       0.0  T
   2   -296.9669845 -0.918562E-05  0.910E-03    1.05       1.0  T
   3   -296.9669897 -0.517370E-05  0.502E-03    1.05       1.5  T
   4   -296.9669872  0.246131E-05  0.346E-03    1.05       2.2  T
   5   -296.9669930 -0.576104E-05  0.840E-04    1.05       8.9  T
   6   -296.9669934 -0.418300E-06  0.350E-04    1.05      21.3  T
   7   -296.9669935 -0.672575E-07  0.136E-04    1.05      54.8  T
   8   -296.9669935 -0.720871E-08  0.660E-05    1.05     113.0  T
     SCC iter.                  ...        0 min,  0.788 sec
     gradient                   ...        0 min,  0.474 sec
 * total energy  :  -292.4733258 Eh     change       -0.7087048E-02 Eh
   gradient norm :     0.0149231 Eh/α   predicted    -0.7207241E-02 (   1.70%)
   displ. norm   :     0.7816653 α      lambda       -0.5946578E-02
   maximum displ.:     0.5188102 α      in ANC's #48, #12, #23, ...

........................................................................
.............................. CYCLE   12 ..............................
........................................................................
   1   -296.9993256 -0.296999E+03  0.134E-02    1.05       0.0  T
   2   -296.9993369 -0.113461E-04  0.104E-02    1.05       1.0  T
   3   -296.9993536 -0.166093E-04  0.467E-03    1.05       1.6  T
   4   -296.9993468  0.675595E-05  0.407E-03    1.05       1.8  T
   5   -296.9993547 -0.792685E-05  0.116E-03    1.05       6.4  T
   6   -296.9993556 -0.883851E-06  0.382E-04    1.05      19.5  T
   7   -296.9993557 -0.848682E-07  0.122E-04    1.05      61.2  T
   8   -296.9993557 -0.430293E-08  0.588E-05    1.05     126.8  T
     SCC iter.                  ...        0 min,  0.780 sec
     gradient                   ...        0 min,  0.493 sec
 * total energy  :  -292.4778829 Eh     change       -0.4557116E-02 Eh
   gradient norm :     0.0164134 Eh/α   predicted    -0.4789980E-02 (   5.11%)
   displ. norm   :     0.7405364 α      lambda       -0.4360648E-02
   maximum displ.:     0.4015969 α      in ANC's #48, #12, #11, ...

........................................................................
.............................. CYCLE   13 ..............................
........................................................................
   1   -297.0239869 -0.297024E+03  0.127E-02    1.06       0.0  T
   2   -297.0239932 -0.626423E-05  0.115E-02    1.06       1.0  T
   3   -297.0240220 -0.288672E-04  0.463E-03    1.06       1.6  T
   4   -297.0240132  0.879476E-05  0.460E-03    1.06       1.6  T
   5   -297.0240225 -0.926501E-05  0.137E-03    1.06       5.4  T
   6   -297.0240237 -0.119174E-05  0.351E-04    1.06      21.2  T
   7   -297.0240238 -0.699454E-07  0.122E-04    1.06      60.9  T
   8   -297.0240238 -0.691216E-08  0.527E-05    1.06     141.4  T
     SCC iter.                  ...        0 min,  0.786 sec
     gradient                   ...        0 min,  0.483 sec
 * total energy  :  -292.4809298 Eh     change       -0.3046833E-02 Eh
   gradient norm :     0.0179119 Eh/α   predicted    -0.3376006E-02 (  10.80%)
   displ. norm   :     0.6506653 α      lambda       -0.2804449E-02
   maximum displ.:     0.3325676 α      in ANC's #12, #48, #11, ...

........................................................................
.............................. CYCLE   14 ..............................
........................................................................
   1   -297.0406401 -0.297041E+03  0.753E-03    1.06       0.0  T
   2   -297.0406393  0.793765E-06  0.744E-03    1.06       1.0  T
   3   -297.0406541 -0.147961E-04  0.296E-03    1.06       2.5  T
   4   -297.0406512  0.294219E-05  0.271E-03    1.06       2.7  T
   5   -297.0406542 -0.304360E-05  0.701E-04    1.06      10.6  T
   6   -297.0406545 -0.283050E-06  0.239E-04    1.06      31.2  T
   7   -297.0406546 -0.413075E-07  0.722E-05    1.06     103.2  T
   8   -297.0406546 -0.332409E-08  0.215E-05    1.06     346.0  T
     SCC iter.                  ...        0 min,  0.805 sec
     gradient                   ...        0 min,  0.528 sec
 * total energy  :  -292.4831954 Eh     change       -0.2265606E-02 Eh
   gradient norm :     0.0150896 Eh/α   predicted    -0.1995880E-02 ( -11.91%)
   displ. norm   :     0.6901114 α      lambda       -0.2570730E-02
   maximum displ.:     0.3806522 α      in ANC's #12, #11, #23, ...

........................................................................
.............................. CYCLE   15 ..............................
........................................................................
   1   -297.0550981 -0.297055E+03  0.593E-03    1.07       0.0  T
   2   -297.0551024 -0.428004E-05  0.454E-03    1.07       1.6  T
   3   -297.0551074 -0.503684E-05  0.193E-03    1.07       3.9  T
   4   -297.0551071  0.358188E-06  0.152E-03    1.07       4.9  T
   5   -297.0551078 -0.711967E-06  0.536E-04    1.07      13.9  T
   6   -297.0551079 -0.101306E-06  0.198E-04    1.07      37.7  T
   7   -297.0551079 -0.268877E-07  0.642E-05    1.07     116.2  T
     SCC iter.                  ...        0 min,  0.693 sec
     gradient                   ...        0 min,  0.490 sec
 * total energy  :  -292.4853925 Eh     change       -0.2197154E-02 Eh
   gradient norm :     0.0123378 Eh/α   predicted    -0.1897534E-02 ( -13.64%)
   displ. norm   :     0.7632031 α      lambda       -0.2725443E-02
   maximum displ.:     0.4372449 α      in ANC's #12, #11, #23, ...

........................................................................
.............................. CYCLE   16 ..............................
........................................................................
   1   -297.0627847 -0.297063E+03  0.558E-03    1.08       0.0  T
   2   -297.0627839  0.807585E-06  0.525E-03    1.07       1.4  T
   3   -297.0627937 -0.979421E-05  0.186E-03    1.07       4.0  T
   4   -297.0627932  0.497398E-06  0.167E-03    1.07       4.5  T
   5   -297.0627941 -0.913196E-06  0.327E-04    1.08      22.8  T
   6   -297.0627941 -0.165881E-07  0.118E-04    1.07      63.0  T
   7   -297.0627941 -0.289418E-08  0.713E-05    1.07     104.6  T
     SCC iter.                  ...        0 min,  0.718 sec
     gradient                   ...        0 min,  0.488 sec
 * total energy  :  -292.4877751 Eh     change       -0.2382573E-02 Eh
   gradient norm :     0.0096026 Eh/α   predicted    -0.2156479E-02 (  -9.49%)
   displ. norm   :     0.8128571 α      lambda       -0.2637863E-02
   maximum displ.:     0.4653169 α      in ANC's #12, #11, #23, ...

........................................................................
.............................. CYCLE   17 ..............................
........................................................................
   1   -297.0621162 -0.297062E+03  0.547E-03    1.08       0.0  T
   2   -297.0621187 -0.250262E-05  0.352E-03    1.08       2.1  T
   3   -297.0621208 -0.206646E-05  0.186E-03    1.08       4.0  T
   4   -297.0621210 -0.209786E-06  0.136E-03    1.08       5.5  T
   5   -297.0621217 -0.677643E-06  0.407E-04    1.08      18.3  T
   6   -297.0621217 -0.591971E-07  0.217E-04    1.08      34.3  T
   7   -297.0621218 -0.274032E-07  0.793E-05    1.08      94.0  T
   8   -297.0621218 -0.203778E-08  0.426E-05    1.08     174.9  T
     SCC iter.                  ...        0 min,  0.789 sec
     gradient                   ...        0 min,  0.493 sec
 * total energy  :  -292.4900370 Eh     change       -0.2261923E-02 Eh
   gradient norm :     0.0101145 Eh/α   predicted    -0.2190400E-02 (  -3.16%)
   displ. norm   :     0.8220665 α      lambda       -0.2268373E-02
   maximum displ.:     0.4821981 α      in ANC's #12, #11, #23, ...

........................................................................
.............................. CYCLE   18 ..............................
........................................................................
   1   -297.0611762 -0.297061E+03  0.429E-03    1.09       0.0  T
   2   -297.0611779 -0.165645E-05  0.211E-03    1.09       3.5  T
   3   -297.0611782 -0.289693E-06  0.118E-03    1.09       6.3  T
   4   -297.0611781  0.208292E-07  0.655E-04    1.09      11.4  T
   5   -297.0611783 -0.129043E-06  0.226E-04    1.09      33.0  T
   6   -297.0611783 -0.174411E-07  0.101E-04    1.09      74.2  T
   7   -297.0611783 -0.359694E-08  0.441E-05    1.09     169.0  T
     SCC iter.                  ...        0 min,  0.690 sec
     gradient                   ...        0 min,  0.481 sec
 * total energy  :  -292.4920240 Eh     change       -0.1986955E-02 Eh
   gradient norm :     0.0110794 Eh/α   predicted    -0.1900668E-02 (  -4.34%)
   displ. norm   :     0.8192987 α      lambda       -0.1943378E-02
   maximum displ.:     0.4979860 α      in ANC's #12, #11, #23, ...

........................................................................
.............................. CYCLE   19 ..............................
........................................................................
   1   -297.0623074 -0.297062E+03  0.376E-03    1.09       0.0  T
   2   -297.0623086 -0.119657E-05  0.170E-03    1.09       4.4  T
   3   -297.0623087 -0.156275E-06  0.109E-03    1.09       6.8  T
   4   -297.0623087 -0.287872E-07  0.723E-04    1.09      10.3  T
   5   -297.0623090 -0.242938E-06  0.206E-04    1.09      36.1  T
   6   -297.0623090 -0.119834E-07  0.114E-04    1.09      65.3  T
   7   -297.0623090 -0.735969E-08  0.451E-05    1.09     165.4  T
     SCC iter.                  ...        0 min,  0.698 sec
     gradient                   ...        0 min,  0.481 sec
 * total energy  :  -292.4937819 Eh     change       -0.1757947E-02 Eh
   gradient norm :     0.0095245 Eh/α   predicted    -0.1623942E-02 (  -7.62%)
   displ. norm   :     0.8151994 α      lambda       -0.1743049E-02
   maximum displ.:     0.5023800 α      in ANC's #12, #11, #29, ...

........................................................................
.............................. CYCLE   20 ..............................
........................................................................
   1   -297.0632950 -0.297063E+03  0.377E-03    1.10       0.0  T
   2   -297.0632961 -0.105973E-05  0.196E-03    1.10       3.8  T
   3   -297.0632965 -0.414435E-06  0.126E-03    1.10       5.9  T
   4   -297.0632968 -0.310840E-06  0.769E-04    1.10       9.7  T
   5   -297.0632970 -0.213194E-06  0.165E-04    1.10      45.1  T
   6   -297.0632970 -0.517952E-08  0.711E-05    1.10     104.8  T
     SCC iter.                  ...        0 min,  0.584 sec
     gradient                   ...        0 min,  0.487 sec
 * total energy  :  -292.4953388 Eh     change       -0.1556881E-02 Eh
   gradient norm :     0.0064727 Eh/α   predicted    -0.1450696E-02 (  -6.82%)
   displ. norm   :     0.8029454 α      lambda       -0.1584397E-02
   maximum displ.:     0.5097769 α      in ANC's #12, #11, #29, ...
 * RMSD in coord.:     0.8383432 α      energy gain  -0.6468407E+00 Eh

generating ANC from model Hessian ...
Using Lindh-Hessian (1995)
 Shifting diagonal of input Hessian by    1.0000653092731990E-002
 Lowest  eigenvalues of input Hessian
    0.010000    0.000000    0.000000    0.000000    0.000000    0.000000
    0.000000    0.010006    0.010009    0.010009    0.010011    0.010026
    0.010092    0.010142    0.010144    0.010340    0.010369    0.010449
 Highest eigenvalues
    2.183529    2.186754    2.212582    2.212643    2.594089    2.594661


........................................................................
.............................. CYCLE   21 ..............................
........................................................................
   1   -297.0693948 -0.297069E+03  0.447E-03    1.10       0.0  T
   2   -297.0693962 -0.141530E-05  0.292E-03    1.10       2.6  T
   3   -297.0693979 -0.165516E-05  0.137E-03    1.10       5.4  T
   4   -297.0693979 -0.375931E-07  0.105E-03    1.10       7.1  T
   5   -297.0693984 -0.438605E-06  0.270E-04    1.10      27.6  T
   6   -297.0693984 -0.145801E-07  0.141E-04    1.10      52.8  T
   7   -297.0693984 -0.155268E-07  0.345E-05    1.10     215.8  T
     SCC iter.                  ...        0 min,  0.688 sec
     gradient                   ...        0 min,  0.483 sec
 * total energy  :  -292.4967138 Eh     change       -0.1374961E-02 Eh
   gradient norm :     0.0063930 Eh/α   predicted     0.0000000E+00 (-100.00%)
   displ. norm   :     0.1671770 α      lambda       -0.3802148E-03
   maximum displ.:     0.1341359 α      in ANC's #10, #31, #14, ...

........................................................................
.............................. CYCLE   22 ..............................
........................................................................
   1   -297.0709895 -0.297071E+03  0.186E-03    1.10       0.0  T
   2   -297.0709896 -0.129305E-06  0.128E-03    1.10       5.8  T
   3   -297.0709901 -0.422400E-06  0.617E-04    1.10      12.1  T
   4   -297.0709901 -0.710641E-07  0.419E-04    1.10      17.8  T
   5   -297.0709902 -0.469116E-07  0.149E-04    1.10      50.1  T
   6   -297.0709902 -0.884586E-08  0.567E-05    1.10     131.3  T
     SCC iter.                  ...        0 min,  0.572 sec
     gradient                   ...        0 min,  0.459 sec
 * total energy  :  -292.4970667 Eh     change       -0.3529654E-03 Eh
   gradient norm :     0.0036090 Eh/α   predicted    -0.1956252E-03 ( -44.58%)
   displ. norm   :     0.4083775 α      lambda       -0.7902022E-03
   maximum displ.:     0.2856047 α      in ANC's #10, #31, #14, ...

........................................................................
.............................. CYCLE   23 ..............................
........................................................................
   1   -297.0742146 -0.297074E+03  0.340E-03    1.10       0.0  T
   2   -297.0742152 -0.641062E-06  0.236E-03    1.10       3.2  T
   3   -297.0742170 -0.172710E-05  0.102E-03    1.10       7.3  T
   4   -297.0742172 -0.263876E-06  0.713E-04    1.10      10.5  T
   5   -297.0742174 -0.113243E-06  0.269E-04    1.10      27.7  T
   6   -297.0742174 -0.219534E-07  0.103E-04    1.10      72.5  T
   7   -297.0742174 -0.746832E-08  0.359E-05    1.10     207.4  T
     SCC iter.                  ...        0 min,  0.741 sec
     gradient                   ...        0 min,  0.510 sec
 * total energy  :  -292.4977725 Eh     change       -0.7057927E-03 Eh
   gradient norm :     0.0039094 Eh/α   predicted    -0.4610409E-03 ( -34.68%)
   displ. norm   :     0.5763004 α      lambda       -0.9245774E-03
   maximum displ.:     0.3905597 α      in ANC's #10, #31, #14, ...

........................................................................
.............................. CYCLE   24 ..............................
........................................................................
   1   -297.0770424 -0.297077E+03  0.327E-03    1.09       0.0  T
   2   -297.0770432 -0.887521E-06  0.229E-03    1.09       3.3  T
   3   -297.0770449 -0.165557E-05  0.952E-04    1.09       7.8  T
   4   -297.0770451 -0.191119E-06  0.690E-04    1.09      10.8  T
   5   -297.0770452 -0.107603E-06  0.234E-04    1.09      31.8  T
   6   -297.0770452 -0.139147E-07  0.686E-05    1.09     108.7  T
   7   -297.0770452 -0.175783E-08  0.318E-05    1.09     234.4  T
     SCC iter.                  ...        0 min,  0.773 sec
     gradient                   ...        0 min,  0.490 sec
 * total energy  :  -292.4986031 Eh     change       -0.8305343E-03 Eh
   gradient norm :     0.0070339 Eh/α   predicted    -0.6158269E-03 ( -25.85%)
   displ. norm   :     0.6188371 α      lambda       -0.8840672E-03
   maximum displ.:     0.4181108 α      in ANC's #10, #31, #14, ...

........................................................................
.............................. CYCLE   25 ..............................
........................................................................
   1   -297.0788340 -0.297079E+03  0.277E-03    1.09       0.0  T
   2   -297.0788350 -0.967884E-06  0.184E-03    1.09       4.0  T
   3   -297.0788358 -0.784837E-06  0.840E-04    1.09       8.9  T
   4   -297.0788358 -0.169271E-07  0.640E-04    1.09      11.6  T
   5   -297.0788359 -0.117151E-06  0.192E-04    1.09      38.8  T
   6   -297.0788359 -0.126279E-07  0.755E-05    1.09      98.7  T
     SCC iter.                  ...        0 min,  0.617 sec
     gradient                   ...        0 min,  0.486 sec
 * total energy  :  -292.4994110 Eh     change       -0.8079056E-03 Eh
   gradient norm :     0.0076652 Eh/α   predicted    -0.6113161E-03 ( -24.33%)
   displ. norm   :     0.6294032 α      lambda       -0.8536917E-03
   maximum displ.:     0.4277663 α      in ANC's #10, #31, #14, ...

........................................................................
.............................. CYCLE   26 ..............................
........................................................................
   1   -297.0800500 -0.297080E+03  0.275E-03    1.09       0.0  T
   2   -297.0800511 -0.113611E-05  0.170E-03    1.09       4.4  T
   3   -297.0800516 -0.459837E-06  0.789E-04    1.09       9.4  T
   4   -297.0800515  0.137689E-06  0.649E-04    1.09      11.5  T
   5   -297.0800516 -0.188370E-06  0.230E-04    1.09      32.5  T
   6   -297.0800517 -0.309268E-07  0.860E-05    1.09      86.6  T
   7   -297.0800517 -0.463945E-08  0.296E-05    1.09     252.2  T
     SCC iter.                  ...        0 min,  0.679 sec
     gradient                   ...        0 min,  0.488 sec
 * total energy  :  -292.5001922 Eh     change       -0.7811805E-03 Eh
   gradient norm :     0.0061166 Eh/α   predicted    -0.5959401E-03 ( -23.71%)
   displ. norm   :     0.6422023 α      lambda       -0.8282214E-03
   maximum displ.:     0.4415996 α      in ANC's #10, #31, #14, ...

........................................................................
.............................. CYCLE   27 ..............................
........................................................................
   1   -297.0810963 -0.297081E+03  0.290E-03    1.08       0.0  T
   2   -297.0810975 -0.125025E-05  0.177E-03    1.08       4.2  T
   3   -297.0810980 -0.501991E-06  0.784E-04    1.08       9.5  T
   4   -297.0810979  0.120133E-06  0.675E-04    1.08      11.0  T
   5   -297.0810981 -0.207634E-06  0.201E-04    1.08      37.2  T
   6   -297.0810982 -0.161145E-07  0.941E-05    1.08      79.2  T
   7   -297.0810982 -0.598305E-08  0.326E-05    1.08     228.9  T
     SCC iter.                  ...        0 min,  0.680 sec
     gradient                   ...        0 min,  0.525 sec
 * total energy  :  -292.5009425 Eh     change       -0.7503621E-03 Eh
   gradient norm :     0.0038620 Eh/α   predicted    -0.5849004E-03 ( -22.05%)
   displ. norm   :     0.6441096 α      lambda       -0.7615964E-03
   maximum displ.:     0.4488842 α      in ANC's #10, #31, #14, ...

........................................................................
.............................. CYCLE   28 ..............................
........................................................................
   1   -297.0813513 -0.297081E+03  0.271E-03    1.08       0.0  T
   2   -297.0813522 -0.926181E-06  0.166E-03    1.08       4.5  T
   3   -297.0813528 -0.563141E-06  0.768E-04    1.08       9.7  T
   4   -297.0813528 -0.275231E-07  0.593E-04    1.08      12.6  T
   5   -297.0813530 -0.132384E-06  0.162E-04    1.08      45.9  T
   6   -297.0813530 -0.527706E-08  0.866E-05    1.08      86.1  T
     SCC iter.                  ...        0 min,  0.613 sec
     gradient                   ...        0 min,  0.479 sec
 * total energy  :  -292.5016282 Eh     change       -0.6856800E-03 Eh
   gradient norm :     0.0033209 Eh/α   predicted    -0.5387895E-03 ( -21.42%)
   displ. norm   :     0.6236299 α      lambda       -0.6622733E-03
   maximum displ.:     0.4399772 α      in ANC's #10, #31, #14, ...

........................................................................
.............................. CYCLE   29 ..............................
........................................................................
   1   -297.0816067 -0.297082E+03  0.233E-03    1.08       0.0  T
   2   -297.0816072 -0.498461E-06  0.145E-03    1.08       5.2  T
   3   -297.0816077 -0.516520E-06  0.715E-04    1.08      10.4  T
   4   -297.0816078 -0.104962E-06  0.468E-04    1.08      15.9  T
   5   -297.0816079 -0.652905E-07  0.118E-04    1.08      63.0  T
   6   -297.0816079 -0.253880E-08  0.551E-05    1.08     135.2  T
     SCC iter.                  ...        0 min,  0.593 sec
     gradient                   ...        0 min,  0.485 sec
 * total energy  :  -292.5022246 Eh     change       -0.5964376E-03 Eh
   gradient norm :     0.0040066 Eh/α   predicted    -0.4599375E-03 ( -22.89%)
   displ. norm   :     0.5892312 α      lambda       -0.5662710E-03
   maximum displ.:     0.4203686 α      in ANC's #10, #31, #14, ...

........................................................................
.............................. CYCLE   30 ..............................
........................................................................
   1   -297.0820150 -0.297082E+03  0.198E-03    1.08       0.0  T
   2   -297.0820153 -0.287874E-06  0.120E-03    1.08       6.2  T
   3   -297.0820157 -0.376860E-06  0.649E-04    1.08      11.5  T
   4   -297.0820158 -0.112636E-06  0.378E-04    1.08      19.7  T
   5   -297.0820158 -0.334067E-07  0.918E-05    1.08      81.2  T
   6   -297.0820158 -0.216824E-08  0.418E-05    1.08     178.2  T
     SCC iter.                  ...        0 min,  0.585 sec
     gradient                   ...        0 min,  0.530 sec
 * total energy  :  -292.5027354 Eh     change       -0.5107506E-03 Eh
   gradient norm :     0.0041476 Eh/α   predicted    -0.3814384E-03 ( -25.32%)
   displ. norm   :     0.5546514 α      lambda       -0.4897564E-03
   maximum displ.:     0.3998794 α      in ANC's #10, #31, #14, ...

........................................................................
.............................. CYCLE   31 ..............................
........................................................................
   1   -297.0831007 -0.297083E+03  0.189E-03    1.08       0.0  T
   2   -297.0831010 -0.343210E-06  0.109E-03    1.08       6.8  T
   3   -297.0831013 -0.260650E-06  0.581E-04    1.08      12.8  T
   4   -297.0831013 -0.636380E-07  0.384E-04    1.08      19.4  T
   5   -297.0831014 -0.399365E-07  0.114E-04    1.08      65.3  T
   6   -297.0831014 -0.457914E-08  0.691E-05    1.08     107.8  T
     SCC iter.                  ...        0 min,  0.587 sec
     gradient                   ...        0 min,  0.484 sec
 * total energy  :  -292.5031775 Eh     change       -0.4421556E-03 Eh
   gradient norm :     0.0036354 Eh/α   predicted    -0.3202120E-03 ( -27.58%)
   displ. norm   :     0.5301012 α      lambda       -0.4354857E-03
   maximum displ.:     0.3856519 α      in ANC's #10, #31, #8, ...

........................................................................
.............................. CYCLE   32 ..............................
........................................................................
   1   -297.0846429 -0.297085E+03  0.205E-03    1.08       0.0  T
   2   -297.0846434 -0.545151E-06  0.116E-03    1.08       6.5  T
   3   -297.0846436 -0.215786E-06  0.543E-04    1.08      13.7  T
   4   -297.0846436  0.212638E-07  0.465E-04    1.08      16.0  T
   5   -297.0846437 -0.857942E-07  0.118E-04    1.08      63.3  T
   6   -297.0846437 -0.433050E-08  0.757E-05    1.08      98.5  T
     SCC iter.                  ...        0 min,  0.604 sec
     gradient                   ...        0 min,  0.484 sec
 * total energy  :  -292.5035711 Eh     change       -0.3935082E-03 Eh
   gradient norm :     0.0029287 Eh/α   predicted    -0.2789352E-03 ( -29.12%)
   displ. norm   :     0.5213955 α      lambda       -0.4028660E-03
   maximum displ.:     0.3815765 α      in ANC's #10, #31, #8, ...

........................................................................
.............................. CYCLE   33 ..............................
........................................................................
   1   -297.0865474 -0.297087E+03  0.241E-03    1.08       0.0  T
   2   -297.0865483 -0.834845E-06  0.134E-03    1.08       5.6  T
   3   -297.0865485 -0.240161E-06  0.590E-04    1.08      12.6  T
   4   -297.0865484  0.869898E-07  0.554E-04    1.08      13.5  T
   5   -297.0865485 -0.139849E-06  0.116E-04    1.08      64.3  T
   6   -297.0865485 -0.304033E-08  0.750E-05    1.08      99.3  T
     SCC iter.                  ...        0 min,  0.591 sec
     gradient                   ...        0 min,  0.486 sec
 * total energy  :  -292.5039355 Eh     change       -0.3644266E-03 Eh
   gradient norm :     0.0026502 Eh/α   predicted    -0.2561932E-03 ( -29.70%)
   displ. norm   :     0.5327897 α      lambda       -0.3909838E-03
   maximum displ.:     0.3903594 α      in ANC's #10, #8, #27, ...

........................................................................
.............................. CYCLE   34 ..............................
........................................................................
   1   -297.0885180 -0.297089E+03  0.293E-03    1.08       0.0  T
   2   -297.0885192 -0.128628E-05  0.162E-03    1.08       4.6  T
   3   -297.0885196 -0.326670E-06  0.704E-04    1.08      10.6  T
   4   -297.0885194  0.134916E-06  0.637E-04    1.08      11.7  T
   5   -297.0885196 -0.187974E-06  0.129E-04    1.08      57.9  T
   6   -297.0885196 -0.527456E-08  0.683E-05    1.08     109.1  T
     SCC iter.                  ...        0 min,  0.584 sec
     gradient                   ...        0 min,  0.493 sec
 * total energy  :  -292.5042891 Eh     change       -0.3536275E-03 Eh
   gradient norm :     0.0028870 Eh/α   predicted    -0.2509862E-03 ( -29.03%)
   displ. norm   :     0.5618455 α      lambda       -0.3946878E-03
   maximum displ.:     0.4102788 α      in ANC's #10, #8, #27, ...

........................................................................
.............................. CYCLE   35 ..............................
........................................................................
   1   -297.0903968 -0.297090E+03  0.362E-03    1.08       0.0  T
   2   -297.0903988 -0.202050E-05  0.198E-03    1.08       3.8  T
   3   -297.0903993 -0.464586E-06  0.847E-04    1.08       8.8  T
   4   -297.0903991  0.171111E-06  0.699E-04    1.08      10.7  T
   5   -297.0903993 -0.214676E-06  0.166E-04    1.08      44.9  T
   6   -297.0903993 -0.130486E-07  0.677E-05    1.08     110.2  T
     SCC iter.                  ...        0 min,  0.584 sec
     gradient                   ...        0 min,  0.491 sec
 * total energy  :  -292.5046445 Eh     change       -0.3554351E-03 Eh
   gradient norm :     0.0032578 Eh/α   predicted    -0.2596407E-03 ( -26.95%)
   displ. norm   :     0.6085512 α      lambda       -0.4048178E-03
   maximum displ.:     0.4414828 α      in ANC's #10, #8, #27, ...

........................................................................
.............................. CYCLE   36 ..............................
........................................................................
   1   -297.0916506 -0.297092E+03  0.443E-03    1.09       0.0  T
   2   -297.0916537 -0.307249E-05  0.240E-03    1.09       3.1  T
   3   -297.0916544 -0.658140E-06  0.101E-03    1.09       7.4  T
   4   -297.0916542  0.161464E-06  0.713E-04    1.09      10.5  T
   5   -297.0916544 -0.182849E-06  0.206E-04    1.09      36.2  T
   6   -297.0916544 -0.244343E-07  0.765E-05    1.09      97.5  T
   7   -297.0916544 -0.252061E-08  0.235E-05    1.09     317.0  T
     SCC iter.                  ...        0 min,  0.691 sec
     gradient                   ...        0 min,  0.483 sec
 * total energy  :  -292.5050042 Eh     change       -0.3596229E-03 Eh
   gradient norm :     0.0034828 Eh/α   predicted    -0.2773689E-03 ( -22.87%)
   displ. norm   :     0.6471966 α      lambda       -0.3972706E-03
   maximum displ.:     0.4667229 α      in ANC's #10, #8, #27, ...

........................................................................
.............................. CYCLE   37 ..............................
........................................................................
   1   -297.0924097 -0.297092E+03  0.501E-03    1.09       0.0  T
   2   -297.0924136 -0.396826E-05  0.271E-03    1.09       2.8  T
   3   -297.0924145 -0.856130E-06  0.112E-03    1.09       6.6  T
   4   -297.0924144  0.135619E-06  0.722E-04    1.09      10.3  T
   5   -297.0924145 -0.147144E-06  0.222E-04    1.09      33.5  T
   6   -297.0924145 -0.289022E-07  0.100E-04    1.09      74.4  T
   7   -297.0924145 -0.584004E-08  0.357E-05    1.09     209.0  T
     SCC iter.                  ...        0 min,  0.687 sec
     gradient                   ...        0 min,  0.490 sec
 * total energy  :  -292.5053481 Eh     change       -0.3438967E-03 Eh
   gradient norm :     0.0034404 Eh/α   predicted    -0.2818380E-03 ( -18.05%)
   displ. norm   :     0.6541521 α      lambda       -0.3522206E-03
   maximum displ.:     0.4692172 α      in ANC's #10, #8, #21, ...

........................................................................
.............................. CYCLE   38 ..............................
........................................................................
   1   -297.0927170 -0.297093E+03  0.502E-03    1.10       0.0  T
   2   -297.0927210 -0.393440E-05  0.274E-03    1.10       2.7  T
   3   -297.0927219 -0.935891E-06  0.113E-03    1.10       6.6  T
   4   -297.0927217  0.157576E-06  0.777E-04    1.10       9.6  T
   5   -297.0927219 -0.183893E-06  0.239E-04    1.10      31.2  T
   6   -297.0927220 -0.325155E-07  0.900E-05    1.10      82.8  T
   7   -297.0927220 -0.391259E-08  0.322E-05    1.10     231.2  T
     SCC iter.                  ...        0 min,  0.687 sec
     gradient                   ...        0 min,  0.496 sec
 * total energy  :  -292.5056411 Eh     change       -0.2930822E-03 Eh
   gradient norm :     0.0031221 Eh/α   predicted    -0.2514728E-03 ( -14.20%)
   displ. norm   :     0.6131357 α      lambda       -0.2679190E-03
   maximum displ.:     0.4380748 α      in ANC's #10, #8, #21, ...

........................................................................
.............................. CYCLE   39 ..............................
........................................................................
   1   -297.0930119 -0.297093E+03  0.436E-03    1.10       0.0  T
   2   -297.0930148 -0.289350E-05  0.242E-03    1.10       3.1  T
   3   -297.0930157 -0.832194E-06  0.101E-03    1.10       7.4  T
   4   -297.0930155  0.141105E-06  0.756E-04    1.10       9.9  T
   5   -297.0930157 -0.197718E-06  0.229E-04    1.10      32.5  T
   6   -297.0930157 -0.276160E-07  0.751E-05    1.10      99.2  T
   7   -297.0930157 -0.233416E-08  0.267E-05    1.10     279.1  T
     SCC iter.                  ...        0 min,  0.691 sec
     gradient                   ...        0 min,  0.486 sec
 * total energy  :  -292.5058527 Eh     change       -0.2115153E-03 Eh
   gradient norm :     0.0027026 Eh/α   predicted    -0.1843263E-03 ( -12.85%)
   displ. norm   :     0.5161235 α      lambda       -0.1677553E-03
   maximum displ.:     0.3682829 α      in ANC's #10, #8, #21, ...

........................................................................
.............................. CYCLE   40 ..............................
........................................................................
   1   -297.0934016 -0.297093E+03  0.324E-03    1.10       0.0  T
   2   -297.0934032 -0.155888E-05  0.185E-03    1.10       4.0  T
   3   -297.0934037 -0.562781E-06  0.783E-04    1.10       9.5  T
   4   -297.0934037  0.673124E-07  0.595E-04    1.10      12.5  T
   5   -297.0934038 -0.126598E-06  0.177E-04    1.10      42.2  T
   6   -297.0934038 -0.145455E-07  0.554E-05    1.10     134.5  T
     SCC iter.                  ...        0 min,  0.602 sec
     gradient                   ...        0 min,  0.490 sec
 * total energy  :  -292.5059793 Eh     change       -0.1266366E-03 Eh
   gradient norm :     0.0024512 Eh/α   predicted    -0.1062224E-03 ( -16.12%)
   displ. norm   :     0.3937253 α      lambda       -0.1002851E-03
   maximum displ.:     0.2807394 α      in ANC's #10, #8, #21, ...

........................................................................
.............................. CYCLE   41 ..............................
........................................................................
   1   -297.0944914 -0.297094E+03  0.226E-03    1.10       0.0  T
   2   -297.0944922 -0.749946E-06  0.123E-03    1.10       6.0  T
   3   -297.0944925 -0.288368E-06  0.522E-04    1.10      14.3  T
   4   -297.0944925  0.843130E-08  0.377E-04    1.10      19.7  T
   5   -297.0944925 -0.468747E-07  0.122E-04    1.10      61.0  T
   6   -297.0944925 -0.641455E-08  0.373E-05    1.10     199.6  T
     SCC iter.                  ...        0 min,  0.583 sec
     gradient                   ...        0 min,  0.498 sec
 * total energy  :  -292.5060558 Eh     change       -0.7646630E-04 Eh
   gradient norm :     0.0022632 Eh/α   predicted    -0.5791902E-04 ( -24.26%)
   displ. norm   :     0.3453614 α      lambda       -0.8592953E-04
   maximum displ.:     0.2422930 α      in ANC's #10, #8, #21, ...

........................................................................
.............................. CYCLE   42 ..............................
........................................................................
   1   -297.0951215 -0.297095E+03  0.186E-03    1.10       0.0  T
   2   -297.0951220 -0.538031E-06  0.103E-03    1.10       7.2  T
   3   -297.0951222 -0.159465E-06  0.455E-04    1.10      16.4  T
   4   -297.0951222  0.303182E-07  0.332E-04    1.10      22.5  T
   5   -297.0951222 -0.448156E-07  0.106E-04    1.10      70.3  T
   6   -297.0951222 -0.509561E-08  0.344E-05    1.10     216.7  T
     SCC iter.                  ...        0 min,  0.587 sec
     gradient                   ...        0 min,  0.495 sec
 * total energy  :  -292.5061241 Eh     change       -0.6830400E-04 Eh
   gradient norm :     0.0022291 Eh/α   predicted    -0.4808946E-04 ( -29.59%)
   displ. norm   :     0.3665648 α      lambda       -0.1121665E-03
   maximum displ.:     0.2381543 α      in ANC's #10, #8, #21, ...
 * RMSD in coord.:     0.7883688 α      energy gain  -0.1078525E-01 Eh

generating ANC from model Hessian ...
Using Lindh-Hessian (1995)
 Shifting diagonal of input Hessian by    9.9995275345155579E-003
 Lowest  eigenvalues of input Hessian
    0.000000    0.000000    0.000000    0.000000    0.000000    0.000000
    0.010000    0.010003    0.010003    0.010009    0.010014    0.010023
    0.010081    0.010136    0.010137    0.010331    0.010353    0.010443
 Highest eigenvalues
    2.191894    2.194132    2.213742    2.213778    2.620464    2.620821


........................................................................
.............................. CYCLE   43 ..............................
........................................................................
   1   -297.0975336 -0.297098E+03  0.294E-03    1.10       0.0  T
   2   -297.0975349 -0.124585E-05  0.144E-03    1.10       5.2  T
   3   -297.0975351 -0.232848E-06  0.665E-04    1.10      11.2  T
   4   -297.0975351  0.564407E-07  0.411E-04    1.10      18.1  T
   5   -297.0975351 -0.603114E-07  0.148E-04    1.10      50.5  T
   6   -297.0975351 -0.126517E-07  0.584E-05    1.10     127.7  T
     SCC iter.                  ...        0 min,  0.607 sec
     gradient                   ...        0 min,  0.490 sec
 * total energy  :  -292.5062081 Eh     change       -0.8399194E-04 Eh
   gradient norm :     0.0024322 Eh/α   predicted     0.0000000E+00 (-100.00%)
   displ. norm   :     0.0412509 α      lambda       -0.3524336E-04
   maximum displ.:     0.0180621 α      in ANC's #30, #41, #23, ...

........................................................................
.............................. CYCLE   44 ..............................
........................................................................
   1   -297.0961994 -0.297096E+03  0.640E-04    1.10       0.0  T
   2   -297.0961994 -0.509039E-08  0.460E-04    1.10      16.2  T
   3   -297.0961994 -0.513789E-07  0.256E-04    1.10      29.2  T
   4   -297.0961994 -0.161180E-07  0.133E-04    1.10      55.9  T
   5   -297.0961994 -0.443163E-08  0.370E-05    1.10     201.7  T
     SCC iter.                  ...        0 min,  0.497 sec
     gradient                   ...        0 min,  0.499 sec
 * total energy  :  -292.5062384 Eh     change       -0.3037572E-04 Eh
   gradient norm :     0.0013324 Eh/α   predicted    -0.1769512E-04 ( -41.75%)
   displ. norm   :     0.2535576 α      lambda       -0.1007285E-03
   maximum displ.:     0.1155431 α      in ANC's #30, #41, #23, ...

........................................................................
.............................. CYCLE   45 ..............................
........................................................................
   1   -297.0924342 -0.297092E+03  0.297E-03    1.10       0.0  T
   2   -297.0924344 -0.175682E-06  0.248E-03    1.10       3.0  T
   3   -297.0924367 -0.225915E-05  0.108E-03    1.10       6.9  T
   4   -297.0924367 -0.759907E-07  0.699E-04    1.10      10.7  T
   5   -297.0924369 -0.118902E-06  0.180E-04    1.10      41.5  T
   6   -297.0924369 -0.909250E-08  0.823E-05    1.10      90.5  T
     SCC iter.                  ...        0 min,  0.589 sec
     gradient                   ...        0 min,  0.499 sec
 * total energy  :  -292.5063072 Eh     change       -0.6878839E-04 Eh
   gradient norm :     0.0039915 Eh/α   predicted    -0.5180562E-04 ( -24.69%)
   displ. norm   :     0.0407029 α      lambda       -0.2678060E-04
   maximum displ.:     0.0196225 α      in ANC's #30, #27, #23, ...

........................................................................
.............................. CYCLE   46 ..............................
........................................................................
   1   -297.0941171 -0.297094E+03  0.119E-03    1.10       0.0  T
   2   -297.0941173 -0.160488E-06  0.536E-04    1.10      13.9  T
   3   -297.0941173 -0.294240E-07  0.271E-04    1.10      27.5  T
   4   -297.0941173  0.152234E-07  0.206E-04    1.10      36.1  T
   5   -297.0941173 -0.230099E-07  0.458E-05    1.10     162.6  T
   6   -297.0941173 -0.811667E-09  0.232E-05    1.10     321.0  T
     SCC iter.                  ...        0 min,  0.597 sec
     gradient                   ...        0 min,  0.494 sec
 * total energy  :  -292.5063306 Eh     change       -0.2339353E-04 Eh
   gradient norm :     0.0027035 Eh/α   predicted    -0.1341272E-04 ( -42.66%)
   displ. norm   :     0.1653713 α      lambda       -0.7147041E-04
   maximum displ.:     0.0781570 α      in ANC's #30, #27, #23, ...

........................................................................
.............................. CYCLE   47 ..............................
........................................................................
   1   -297.0978071 -0.297098E+03  0.370E-03    1.10       0.0  T
   2   -297.0978089 -0.179976E-05  0.170E-03    1.10       4.4  T
   3   -297.0978092 -0.335642E-06  0.790E-04    1.10       9.4  T
   4   -297.0978091  0.114878E-06  0.614E-04    1.10      12.1  T
   5   -297.0978093 -0.185345E-06  0.122E-04    1.10      60.9  T
   6   -297.0978093 -0.445141E-08  0.592E-05    1.10     125.8  T
     SCC iter.                  ...        0 min,  0.609 sec
     gradient                   ...        0 min,  0.498 sec
 * total energy  :  -292.5063740 Eh     change       -0.4340595E-04 Eh
   gradient norm :     0.0014702 Eh/α   predicted    -0.3671249E-04 ( -15.42%)
   displ. norm   :     0.1404142 α      lambda       -0.1694605E-04
   maximum displ.:     0.0647347 α      in ANC's #30, #27, #23, ...

........................................................................
.............................. CYCLE   48 ..............................
........................................................................
   1   -297.0980547 -0.297098E+03  0.189E-03    1.10       0.0  T
   2   -297.0980553 -0.570793E-06  0.928E-04    1.10       8.0  T
   3   -297.0980554 -0.977005E-07  0.395E-04    1.10      18.9  T
   4   -297.0980554  0.372742E-07  0.324E-04    1.10      23.0  T
   5   -297.0980554 -0.486099E-07  0.788E-05    1.10      94.6  T
   6   -297.0980554 -0.223247E-08  0.431E-05    1.10     172.8  T
     SCC iter.                  ...        0 min,  0.598 sec
     gradient                   ...        0 min,  0.503 sec
 * total energy  :  -292.5063926 Eh     change       -0.1857964E-04 Eh
   gradient norm :     0.0020339 Eh/α   predicted    -0.8547854E-05 ( -53.99%)
   displ. norm   :     0.1186179 α      lambda       -0.2388744E-04
   maximum displ.:     0.0499441 α      in ANC's #30, #27, #9, ...

........................................................................
.............................. CYCLE   49 ..............................
........................................................................
   1   -297.0968521 -0.297097E+03  0.109E-03    1.10       0.0  T
   2   -297.0968523 -0.183658E-06  0.581E-04    1.10      12.8  T
   3   -297.0968523 -0.354650E-07  0.276E-04    1.10      27.0  T
   4   -297.0968523  0.183751E-07  0.211E-04    1.10      35.3  T
   5   -297.0968523 -0.219508E-07  0.591E-05    1.10     126.1  T
   6   -297.0968523 -0.165369E-08  0.236E-05    1.10     315.4  T
     SCC iter.                  ...        0 min,  0.596 sec
     gradient                   ...        0 min,  0.501 sec
 * total energy  :  -292.5064118 Eh     change       -0.1922444E-04 Eh
   gradient norm :     0.0013602 Eh/α   predicted    -0.1211224E-04 ( -37.00%)
   displ. norm   :     0.2822611 α      lambda       -0.2999361E-04
   maximum displ.:     0.1087025 α      in ANC's #30, #27, #9, ...

........................................................................
.............................. CYCLE   50 ..............................
........................................................................
   1   -297.0934952 -0.297093E+03  0.252E-03    1.09       0.0  T
   2   -297.0934960 -0.846114E-06  0.132E-03    1.09       5.6  T
   3   -297.0934962 -0.202735E-06  0.640E-04    1.09      11.7  T
   4   -297.0934961  0.860628E-07  0.487E-04    1.09      15.3  T
   5   -297.0934963 -0.115802E-06  0.131E-04    1.09      56.8  T
   6   -297.0934963 -0.814919E-08  0.476E-05    1.09     156.6  T
     SCC iter.                  ...        0 min,  0.597 sec
     gradient                   ...        0 min,  0.488 sec
 * total energy  :  -292.5064320 Eh     change       -0.2015340E-04 Eh
   gradient norm :     0.0014110 Eh/α   predicted    -0.1552921E-04 ( -22.94%)
   displ. norm   :     0.0387731 α      lambda       -0.8647984E-05
   maximum displ.:     0.0183025 α      in ANC's #41, #23, #30, ...

........................................................................
.............................. CYCLE   51 ..............................
........................................................................
   1   -297.0944948 -0.297094E+03  0.596E-04    1.09       0.0  T
   2   -297.0944948 -0.535818E-07  0.357E-04    1.09      20.8  T
   3   -297.0944948 -0.102808E-07  0.189E-04    1.09      39.5  T
   4   -297.0944948  0.120047E-07  0.148E-04    1.09      50.3  T
     SCC iter.                  ...        0 min,  0.405 sec
     gradient                   ...        0 min,  0.483 sec
 * total energy  :  -292.5064429 Eh     change       -0.1089093E-04 Eh
   gradient norm :     0.0010742 Eh/α   predicted    -0.4327051E-05 ( -60.27%)
   displ. norm   :     0.1632590 α      lambda       -0.2532435E-04
   maximum displ.:     0.0513447 α      in ANC's #41, #9, #20, ...

........................................................................
.............................. CYCLE   52 ..............................
........................................................................
   1   -297.0953695 -0.297095E+03  0.212E-03    1.09       0.0  T
   2   -297.0953701 -0.626338E-06  0.111E-03    1.09       6.7  T
   3   -297.0953703 -0.186211E-06  0.541E-04    1.09      13.8  T
   4   -297.0953703  0.489399E-08  0.383E-04    1.09      19.5  T
   5   -297.0953704 -0.558160E-07  0.873E-05    1.09      85.4  T
   6   -297.0953704 -0.211224E-08  0.375E-05    1.09     199.0  T
     SCC iter.                  ...        0 min,  0.599 sec
     gradient                   ...        0 min,  0.487 sec
 * total energy  :  -292.5064664 Eh     change       -0.2350902E-04 Eh
   gradient norm :     0.0008701 Eh/α   predicted    -0.1281246E-04 ( -45.50%)
   displ. norm   :     0.1291220 α      lambda       -0.7425749E-05
   maximum displ.:     0.0453892 α      in ANC's #9, #2, #20, ...

........................................................................
.............................. CYCLE   53 ..............................
........................................................................
   1   -297.0954394 -0.297095E+03  0.103E-03    1.09       0.0  T
   2   -297.0954396 -0.141289E-06  0.578E-04    1.09      12.9  T
   3   -297.0954396 -0.594848E-07  0.252E-04    1.09      29.6  T
   4   -297.0954396  0.146321E-08  0.195E-04    1.09      38.2  T
   5   -297.0954396 -0.140977E-07  0.427E-05    1.09     174.6  T
     SCC iter.                  ...        0 min,  0.492 sec
     gradient                   ...        0 min,  0.493 sec
 * total energy  :  -292.5064753 Eh     change       -0.8873654E-05 Eh
   gradient norm :     0.0007317 Eh/α   predicted    -0.3741096E-05 ( -57.84%)
   displ. norm   :     0.1816988 α      lambda       -0.1049364E-04
   maximum displ.:     0.0668513 α      in ANC's #9, #2, #20, ...

........................................................................
.............................. CYCLE   54 ..............................
........................................................................
   1   -297.0954134 -0.297095E+03  0.125E-03    1.09       0.0  T
   2   -297.0954136 -0.196840E-06  0.680E-04    1.09      11.0  T
   3   -297.0954137 -0.858741E-07  0.301E-04    1.09      24.8  T
   4   -297.0954137 -0.218967E-08  0.233E-04    1.09      32.0  T
   5   -297.0954137 -0.192290E-07  0.571E-05    1.09     130.4  T
   6   -297.0954137 -0.108275E-08  0.227E-05    1.09     327.7  T
     SCC iter.                  ...        0 min,  0.583 sec
     gradient                   ...        0 min,  0.499 sec
 * total energy  :  -292.5064878 Eh     change       -0.1256377E-04 Eh
   gradient norm :     0.0006180 Eh/α   predicted    -0.5324597E-05 ( -57.62%)
   displ. norm   :     0.2377208 α      lambda       -0.1309249E-04
   maximum displ.:     0.0903567 α      in ANC's #9, #2, #20, ...

........................................................................
.............................. CYCLE   55 ..............................
........................................................................
   1   -297.0951444 -0.297095E+03  0.141E-03    1.09       0.0  T
   2   -297.0951447 -0.270656E-06  0.708E-04    1.09      10.5  T
   3   -297.0951448 -0.724208E-07  0.300E-04    1.09      24.9  T
   4   -297.0951448  0.113604E-07  0.234E-04    1.09      31.9  T
   5   -297.0951448 -0.189843E-07  0.759E-05    1.09      98.2  T
   6   -297.0951448 -0.317743E-08  0.257E-05    1.09     289.9  T
     SCC iter.                  ...        0 min,  0.592 sec
     gradient                   ...        0 min,  0.488 sec
 * total energy  :  -292.5065028 Eh     change       -0.1495883E-04 Eh
   gradient norm :     0.0009247 Eh/α   predicted    -0.6712407E-05 ( -55.13%)
   displ. norm   :     0.2354899 α      lambda       -0.1230565E-04
   maximum displ.:     0.0926936 α      in ANC's #9, #2, #17, ...

........................................................................
.............................. CYCLE   56 ..............................
........................................................................
   1   -297.0949501 -0.297095E+03  0.115E-03    1.09       0.0  T
   2   -297.0949503 -0.172516E-06  0.577E-04    1.09      12.9  T
   3   -297.0949504 -0.485975E-07  0.238E-04    1.09      31.4  T
   4   -297.0949503  0.581127E-08  0.177E-04    1.09      42.0  T
   5   -297.0949504 -0.103188E-07  0.547E-05    1.09     136.4  T
     SCC iter.                  ...        0 min,  0.508 sec
     gradient                   ...        0 min,  0.489 sec
 * total energy  :  -292.5065163 Eh     change       -0.1348840E-04 Eh
   gradient norm :     0.0010415 Eh/α   predicted    -0.6307945E-05 ( -53.23%)
   displ. norm   :     0.1966247 α      lambda       -0.9881351E-05
   maximum displ.:     0.0810812 α      in ANC's #2, #9, #17, ...

........................................................................
.............................. CYCLE   57 ..............................
........................................................................
   1   -297.0947933 -0.297095E+03  0.827E-04    1.09       0.0  T
   2   -297.0947933 -0.540460E-07  0.487E-04    1.09      15.3  T
   3   -297.0947934 -0.695661E-07  0.207E-04    1.09      35.9  T
   4   -297.0947934 -0.137460E-07  0.137E-04    1.09      54.3  T
   5   -297.0947934 -0.450910E-08  0.381E-05    1.09     195.5  T
     SCC iter.                  ...        0 min,  0.505 sec
     gradient                   ...        0 min,  0.497 sec
 * total energy  :  -292.5065269 Eh     change       -0.1063350E-04 Eh
   gradient norm :     0.0007896 Eh/α   predicted    -0.5026991E-05 ( -52.72%)
   displ. norm   :     0.1482140 α      lambda       -0.7611366E-05
   maximum displ.:     0.0650308 α      in ANC's #2, #9, #17, ...

........................................................................
.............................. CYCLE   58 ..............................
........................................................................
   1   -297.0947855 -0.297095E+03  0.569E-04    1.09       0.0  T
   2   -297.0947855  0.207802E-08  0.467E-04    1.09      15.9  T
   3   -297.0947856 -0.105114E-06  0.150E-04    1.09      49.8  T
   4   -297.0947856 -0.609583E-08  0.103E-04    1.09      72.3  T
     SCC iter.                  ...        0 min,  0.400 sec
     gradient                   ...        0 min,  0.501 sec
 * total energy  :  -292.5065353 Eh     change       -0.8419840E-05 Eh
   gradient norm :     0.0005548 Eh/α   predicted    -0.3843537E-05 ( -54.35%)
   displ. norm   :     0.1308317 α      lambda       -0.6954097E-05
   maximum displ.:     0.0603328 α      in ANC's #2, #9, #17, ...

........................................................................
.............................. CYCLE   59 ..............................
........................................................................
   1   -297.0946327 -0.297095E+03  0.496E-04    1.09       0.0  T
   2   -297.0946327  0.262565E-08  0.397E-04    1.09      18.8  T
   3   -297.0946327 -0.746281E-07  0.155E-04    1.09      47.9  T
   4   -297.0946327 -0.682184E-08  0.923E-05    1.09      80.8  T
     SCC iter.                  ...        0 min,  0.396 sec
     gradient                   ...        0 min,  0.503 sec
 * total energy  :  -292.5065434 Eh     change       -0.8059492E-05 Eh
   gradient norm :     0.0006736 Eh/α   predicted    -0.3507041E-05 ( -56.49%)
   displ. norm   :     0.1364918 α      lambda       -0.7901665E-05
   maximum displ.:     0.0649244 α      in ANC's #2, #9, #25, ...

........................................................................
.............................. CYCLE   60 ..............................
........................................................................
   1   -297.0945897 -0.297095E+03  0.622E-04    1.09       0.0  T
   2   -297.0945897 -0.314625E-07  0.393E-04    1.09      19.0  T
   3   -297.0945898 -0.402377E-07  0.204E-04    1.09      36.5  T
   4   -297.0945898 -0.939599E-08  0.129E-04    1.09      58.0  T
   5   -297.0945898 -0.391043E-08  0.481E-05    1.09     154.9  T
     SCC iter.                  ...        0 min,  0.494 sec
     gradient                   ...        0 min,  0.504 sec
 * total energy  :  -292.5065524 Eh     change       -0.8980112E-05 Eh
   gradient norm :     0.0008658 Eh/α   predicted    -0.3987293E-05 ( -55.60%)
   displ. norm   :     0.1441317 α      lambda       -0.7790818E-05
   maximum displ.:     0.0707743 α      in ANC's #2, #9, #5, ...

........................................................................
.............................. CYCLE   61 ..............................
........................................................................
   1   -297.0944665 -0.297094E+03  0.731E-04    1.09       0.0  T
   2   -297.0944666 -0.809592E-07  0.372E-04    1.09      20.0  T
   3   -297.0944666 -0.170223E-07  0.162E-04    1.09      46.1  T
   4   -297.0944666  0.338105E-08  0.105E-04    1.09      70.9  T
     SCC iter.                  ...        0 min,  0.393 sec
     gradient                   ...        0 min,  0.501 sec
 * total energy  :  -292.5065608 Eh     change       -0.8490340E-05 Eh
   gradient norm :     0.0008272 Eh/α   predicted    -0.3934987E-05 ( -53.65%)
   displ. norm   :     0.1200190 α      lambda       -0.5968285E-05
   maximum displ.:     0.0617549 α      in ANC's #2, #9, #5, ...

........................................................................
.............................. CYCLE   62 ..............................
........................................................................
   1   -297.0946054 -0.297095E+03  0.626E-04    1.09       0.0  T
   2   -297.0946055 -0.555794E-07  0.362E-04    1.09      20.6  T
   3   -297.0946055 -0.202793E-07  0.157E-04    1.09      47.5  T
   4   -297.0946055  0.355362E-08  0.130E-04    1.09      57.2  T
[...]
   113   1 H    1.019 --    87 C    0.976
   114   1 H    0.964 --    88 N    0.928
   115   1 H    1.001 --    89 C    0.971
   116   1 H    1.003 --    90 C    0.974
   117   1 H    1.007 --    92 C    0.974
   118   1 H    0.999 --    93 C    0.976
   119   6 C    3.925 --   120 C    2.603    19 C    1.140
   120   6 C    3.927 --   119 C    2.603   123 C    1.141
   121   6 C    3.926 --   122 C    2.604   141 C    1.140
   122   6 C    3.925 --   121 C    2.604    78 C    1.139
   123   6 C    3.929 --   157 C    1.279   124 C    1.269   120 C    1.141
   124   6 C    3.899 --   123 C    1.269   125 C    1.245   128 N    1.182
   125   6 C    3.958 --   126 C    1.585   124 C    1.245   159 H    0.975
   126   6 C    3.959 --   125 C    1.585   127 C    1.240   160 H    0.975
   127   6 C    3.897 --   129 C    1.307   126 C    1.240   128 N    1.167
   128   7 N    3.472 --   124 C    1.182   127 C    1.167   161 H    0.874
   129   6 C    3.933 --   136 C    1.330   127 C    1.307   130 C    1.024
   130   6 C    3.988 --   131 C    1.766   135 C    1.100   129 C    1.024
   131   6 C    3.969 --   130 C    1.766   132 C    1.013   162 H    0.972
   132   6 C    3.961 --   131 C    1.013   164 H    0.975   163 H    0.967
                           133 N    0.949
   133   7 N    3.249 --   134 C    1.161   132 C    0.949   165 H    0.928
                           135 C    0.127
   134   6 C    3.958 --   135 C    1.691   133 N    1.161   166 H    0.971
   135   6 C    3.968 --   134 C    1.691   130 C    1.100   167 H    0.973
                           133 N    0.127
   136   6 C    3.920 --   129 C    1.330   139 N    1.297   137 C    1.124
   137   6 C    3.969 --   138 C    1.712   136 C    1.124   168 H    0.973
   138   6 C    3.966 --   137 C    1.712   140 C    1.127   169 H    0.974
   139   7 N    3.017 --   140 C    1.328   136 C    1.297
   140   6 C    3.922 --   139 N    1.328   141 C    1.279   138 C    1.127
   141   6 C    3.929 --   140 C    1.279   142 C    1.270   121 C    1.140
   142   6 C    3.899 --   141 C    1.270   143 C    1.245   146 N    1.182
   143   6 C    3.958 --   144 C    1.585   142 C    1.245   170 H    0.975
   144   6 C    3.959 --   143 C    1.585   145 C    1.241   171 H    0.975
   145   6 C    3.896 --   147 C    1.307   144 C    1.241   146 N    1.167
   146   7 N    3.472 --   142 C    1.182   145 C    1.167   172 H    0.874
   147   6 C    3.933 --   154 C    1.330   145 C    1.307   148 C    1.024
   148   6 C    3.988 --   149 C    1.767   153 C    1.100   147 C    1.024
   149   6 C    3.970 --   148 C    1.767   150 C    1.013   173 H    0.972
   150   6 C    3.961 --   149 C    1.013   175 H    0.975   174 H    0.967
                           151 N    0.949
   151   7 N    3.249 --   152 C    1.161   150 C    0.949   176 H    0.928
                           153 C    0.127
   152   6 C    3.958 --   153 C    1.691   151 N    1.161   177 H    0.971
   153   6 C    3.968 --   152 C    1.691   148 C    1.100   178 H    0.973
                           151 N    0.127
   154   6 C    3.920 --   147 C    1.330   158 N    1.296   155 C    1.124
   155   6 C    3.969 --   156 C    1.712   154 C    1.124   179 H    0.973
   156   6 C    3.967 --   155 C    1.712   157 C    1.127   180 H    0.974
   157   6 C    3.922 --   158 N    1.328   123 C    1.279   156 C    1.127
   158   7 N    3.017 --   157 C    1.328   154 C    1.296
   159   1 H    1.002 --   125 C    0.975
   160   1 H    1.007 --   126 C    0.975
   161   1 H    0.988 --   128 N    0.874
   162   1 H    1.003 --   131 C    0.972
   163   1 H    1.009 --   132 C    0.967
   164   1 H    1.018 --   132 C    0.975
   165   1 H    0.964 --   133 N    0.928
   166   1 H    1.002 --   134 C    0.971
   167   1 H    1.004 --   135 C    0.973
   168   1 H    1.006 --   137 C    0.973
   169   1 H    1.003 --   138 C    0.974
   170   1 H    1.002 --   143 C    0.975
   171   1 H    1.007 --   144 C    0.975
   172   1 H    0.988 --   146 N    0.874
   173   1 H    1.003 --   149 C    0.972
   174   1 H    1.009 --   150 C    0.967
   175   1 H    1.018 --   150 C    0.975
   176   1 H    0.964 --   151 N    0.928
   177   1 H    1.002 --   152 C    0.971
   178   1 H    1.004 --   153 C    0.973
   179   1 H    1.006 --   155 C    0.973
   180   1 H    1.003 --   156 C    0.974
 ---------------------------------------------------------------------------

Topologies differ in total number of bonds
Writing topology from bond orders to xtbtopo.mol

 dipole moment from electron density (au)
     X       Y       Z   
   0.0048   0.0169  -0.0986  total (Debye):    0.255

           -------------------------------------------------
          |                Geometry Summary                 |
           -------------------------------------------------

      molecular mass/u    :     1449.6698034
   center of mass at/Å    :       42.2780557      -0.0012383       0.0012116
  moments of inertia/u·Å² :        0.2658016E+05   0.1255406E+06   0.1349948E+06
rotational constants/cm⁻¹ :        0.6342185E-03   0.1342803E-03   0.1248762E-03

 * 176 selected distances

     #   Z          #   Z                                           value/Å
     1   6 C        2   6 C                                       1.3886065
     2   6 C        3   6 C                                       1.4235940
     3   6 C        4   6 C                                       1.3663242
     4   6 C        5   6 C                                       1.4245001
     2   6 C        6   7 N                                       1.3662739
     5   6 C        6   7 N                                       1.3670478
     5   6 C        7   6 C                                       1.3983147
     8   6 C        9   6 C                                       1.3416498
    10   6 C       11   7 N                                       1.4651882
    11   7 N       12   6 C                                       1.3707339
    12   6 C       13   6 C                                       1.3446962
     7   6 C       14   6 C                                       1.3985957
    14   6 C       15   6 C                                       1.4522457
    15   6 C       16   6 C                                       1.3487926
    14   6 C       17   7 N                                       1.3590665
    16   6 C       18   6 C                                       1.4508441
    17   7 N       18   6 C                                       1.3513257
    18   6 C       19   6 C                                       1.4042710
    19   6 C       20   6 C                                       1.4037535
    20   6 C       21   6 C                                       1.4211927
    21   6 C       22   6 C                                       1.3669338
    22   6 C       23   6 C                                       1.4227725
    20   6 C       24   7 N                                       1.3641182
    23   6 C       24   7 N                                       1.3694727
    23   6 C       25   6 C                                       1.3994292
    26   6 C       27   6 C                                       1.3416594
    28   6 C       29   7 N                                       1.4655149
    29   7 N       30   6 C                                       1.3713670
    30   6 C       31   6 C                                       1.3445927
    25   6 C       32   6 C                                       1.3988827
    33   6 C       34   6 C                                       1.3485532
     1   6 C       35   6 C                                       1.3894546
    34   6 C       35   6 C                                       1.4521757
    32   6 C       36   7 N                                       1.3549077
    35   6 C       36   7 N                                       1.3549130
     1   6 C       37   1 H                                       1.0855402
     3   6 C       38   1 H                                       1.0785080
     4   6 C       39   1 H                                       1.0779741
     6   7 N       40   1 H                                       1.0145558
     9   6 C       41   1 H                                       1.0838667
    10   6 C       42   1 H                                       1.1063919
    10   6 C       43   1 H                                       1.0984839
    11   7 N       44   1 H                                       1.0096893 (min)
    12   6 C       45   1 H                                       1.0853598
    13   6 C       46   1 H                                       1.0806858
    15   6 C       47   1 H                                       1.0780472
    16   6 C       48   1 H                                       1.0783864
    21   6 C       49   1 H                                       1.0781721
    22   6 C       50   1 H                                       1.0778702
    24   7 N       51   1 H                                       1.0147374
    27   6 C       52   1 H                                       1.0837331
    28   6 C       53   1 H                                       1.1062651
    28   6 C       54   1 H                                       1.0983126
    29   7 N       55   1 H                                       1.0098918
    30   6 C       56   1 H                                       1.0854029
    31   6 C       57   1 H                                       1.0808309
    33   6 C       58   1 H                                       1.0781772
    34   6 C       59   1 H                                       1.0789865
    60   6 C       61   6 C                                       1.3885873
    61   6 C       62   6 C                                       1.4236019
    62   6 C       63   6 C                                       1.3663098
    63   6 C       64   6 C                                       1.4245534
    61   6 C       65   7 N                                       1.3662794
    64   6 C       65   7 N                                       1.3670703
    64   6 C       66   6 C                                       1.3982859
    67   6 C       68   6 C                                       1.3416654
    69   6 C       70   7 N                                       1.4651463
    70   7 N       71   6 C                                       1.3707855
    71   6 C       72   6 C                                       1.3446299
    66   6 C       73   6 C                                       1.3987522
    73   6 C       74   6 C                                       1.4522763
    74   6 C       75   6 C                                       1.3488436
    73   6 C       76   7 N                                       1.3588549
    75   6 C       77   6 C                                       1.4507987
    76   7 N       77   6 C                                       1.3514859
    77   6 C       78   6 C                                       1.4041409
    78   6 C       79   6 C                                       1.4036976
    79   6 C       80   6 C                                       1.4211532
    80   6 C       81   6 C                                       1.3669899
    81   6 C       82   6 C                                       1.4227803
    79   6 C       83   7 N                                       1.3641935
    82   6 C       83   7 N                                       1.3693176
    82   6 C       84   6 C                                       1.3995172
    85   6 C       86   6 C                                       1.3416595
    87   6 C       88   7 N                                       1.4655158 (max)
    88   7 N       89   6 C                                       1.3713996
    89   6 C       90   6 C                                       1.3445333
    84   6 C       91   6 C                                       1.3988676
    92   6 C       93   6 C                                       1.3485774
    60   6 C       94   6 C                                       1.3895071
    93   6 C       94   6 C                                       1.4521572
    91   6 C       95   7 N                                       1.3549341
    94   6 C       95   7 N                                       1.3548767
    60   6 C       96   1 H                                       1.0855268
    62   6 C       97   1 H                                       1.0785070
    63   6 C       98   1 H                                       1.0779639
    65   7 N       99   1 H                                       1.0145334
    68   6 C      100   1 H                                       1.0838500
    69   6 C      101   1 H                                       1.1064380
    69   6 C      102   1 H                                       1.0984401
    70   7 N      103   1 H                                       1.0096923
    71   6 C      104   1 H                                       1.0853545
    72   6 C      105   1 H                                       1.0806855
    74   6 C      106   1 H                                       1.0780621
    75   6 C      107   1 H                                       1.0783993
    80   6 C      108   1 H                                       1.0781801
    81   6 C      109   1 H                                       1.0778789
    83   7 N      110   1 H                                       1.0147134
    86   6 C      111   1 H                                       1.0837139
    87   6 C      112   1 H                                       1.1062939
    87   6 C      113   1 H                                       1.0982694
    88   7 N      114   1 H                                       1.0099023
    89   6 C      115   1 H                                       1.0854083
    90   6 C      116   1 H                                       1.0808572
    92   6 C      117   1 H                                       1.0781744
    93   6 C      118   1 H                                       1.0789874
   119   6 C      120   6 C                                       1.2143376
   121   6 C      122   6 C                                       1.2142965
   123   6 C      124   6 C                                       1.4034553
   124   6 C      125   6 C                                       1.4205859
   125   6 C      126   6 C                                       1.3672081
   126   6 C      127   6 C                                       1.4227290
   124   6 C      128   7 N                                       1.3642120
   127   6 C      128   7 N                                       1.3691004
   127   6 C      129   6 C                                       1.3984519
   130   6 C      131   6 C                                       1.3415213
   132   6 C      133   7 N                                       1.4652703
   133   7 N      134   6 C                                       1.3707623
   134   6 C      135   6 C                                       1.3446789
   129   6 C      136   6 C                                       1.3971266
   136   6 C      137   6 C                                       1.4525699
   137   6 C      138   6 C                                       1.3488738
   136   6 C      139   7 N                                       1.3589286
   138   6 C      140   6 C                                       1.4504200
   139   7 N      140   6 C                                       1.3512574
   140   6 C      141   6 C                                       1.4040544
   141   6 C      142   6 C                                       1.4034193
   142   6 C      143   6 C                                       1.4205823
   143   6 C      144   6 C                                       1.3672058
   144   6 C      145   6 C                                       1.4226967
   142   6 C      146   7 N                                       1.3642701
   145   6 C      146   7 N                                       1.3690641
   145   6 C      147   6 C                                       1.3984575
   148   6 C      149   6 C                                       1.3414695
   150   6 C      151   7 N                                       1.4652417
   151   7 N      152   6 C                                       1.3708130
   152   6 C      153   6 C                                       1.3446944
   147   6 C      154   6 C                                       1.3969734
   154   6 C      155   6 C                                       1.4525383
   155   6 C      156   6 C                                       1.3488654
   123   6 C      157   6 C                                       1.4042088
   156   6 C      157   6 C                                       1.4504570
   154   6 C      158   7 N                                       1.3590450
   157   6 C      158   7 N                                       1.3511190
   125   6 C      159   1 H                                       1.0781703
   126   6 C      160   1 H                                       1.0778235
   128   7 N      161   1 H                                       1.0144794
   131   6 C      162   1 H                                       1.0838936
   132   6 C      163   1 H                                       1.1063254
   132   6 C      164   1 H                                       1.0986209
   133   7 N      165   1 H                                       1.0097843
   134   6 C      166   1 H                                       1.0853640
   135   6 C      167   1 H                                       1.0806835
   137   6 C      168   1 H                                       1.0782184
   138   6 C      169   1 H                                       1.0784200
   143   6 C      170   1 H                                       1.0781676
   144   6 C      171   1 H                                       1.0778214
   146   7 N      172   1 H                                       1.0144886
   149   6 C      173   1 H                                       1.0838816
   150   6 C      174   1 H                                       1.1063543
   150   6 C      175   1 H                                       1.0985586
   151   7 N      176   1 H                                       1.0097897
   152   6 C      177   1 H                                       1.0853664
   153   6 C      178   1 H                                       1.0806893
   155   6 C      179   1 H                                       1.0782222
   156   6 C      180   1 H                                       1.0784210

 * 4 distinct bonds (by element types)

   Z      Z             #   av. dist./Å        max./Å        min./Å
   1 H    6 C          56     1.0853033     1.1064380     1.0778214
   6 C    6 C          72     1.3888277     1.4525699     1.2142965
   1 H    7 N          12     1.0121881     1.0147374     1.0096893
   6 C    7 N          36     1.3799687     1.4655158     1.3511190


optimized geometry written to: xtbopt.xyz


           -------------------------------------------------
          | TOTAL ENERGY             -292.506601592991 Eh   |
          | GRADIENT NORM               0.000380381973 Eh/α |
          | HOMO-LUMO GAP               1.085101113682 eV   |
           -------------------------------------------------

------------------------------------------------------------------------
 * finished run on 2022/07/27 at 13:50:56.026     
------------------------------------------------------------------------
 total:
 * wall-time:     0 d,  0 h,  1 min, 36.307 sec
 *  cpu-time:     0 d,  0 h,  1 min, 35.751 sec
 * ratio c/w:     0.994 speedup
 SCF:
 * wall-time:     0 d,  0 h,  0 min,  2.394 sec
 *  cpu-time:     0 d,  0 h,  0 min,  2.380 sec
 * ratio c/w:     0.994 speedup
 ANC optimizer:
 * wall-time:     0 d,  0 h,  1 min, 33.691 sec
 *  cpu-time:     0 d,  0 h,  1 min, 33.165 sec
 * ratio c/w:     0.994 speedup

