304
 energy: -542.117971623035 gnorm: 0.000877563672 xtb: 6.5.1 (b24c23e)
Ni          42.92051581933080        0.15333245770592       -0.12751828991453
C           39.54627542996957        0.43769136831644       -0.38394812906229
C           40.18812468147302        1.19802286246719        0.57129756285005
C           39.50157326298353        2.06872653501822        1.47665857760650
C           40.44319387308412        2.60571139578856        2.28677258967477
C           41.70687165551819        2.08212945373910        1.85900532261976
N           41.53857745660616        1.20876414213002        0.81349378418792
C           42.92190492410739        2.44481831221275        2.42161110988778
C           44.13788049861723        1.96881733535043        1.95544711318979
C           45.40278783442607        2.41719619537873        2.45310556552923
C           46.35546627197751        1.77899515453648        1.73297598170162
N           44.31517871216320        1.05743098331388        0.93891259980989
C           45.67053462925747        0.93324211469667        0.80703652331048
C           46.33432125976787        0.07370725130666       -0.07188084388398
C           45.65901307068751       -0.80557748729549       -0.92219286873110
C           46.33125742559509       -1.76253781507026       -1.74332807094198
C           45.36936940573739       -2.46270730260994       -2.38978383290710
C           44.11232067638642       -1.91486891530091       -1.97955642514341
C           42.89081515611506       -2.34494321802935       -2.47378070492468
C           42.87212112501373       -3.45231988597699       -3.46996309835022
C           43.34053058012368       -3.24361323724201       -4.77373610029851
O           43.79058571917687       -1.99112037954406       -5.04902711150865
C           44.29504511484873       -1.67658883596794       -6.33115945523549
C           43.31939721554159       -4.28191870983059       -5.70440607029184
C           42.83372495498138       -5.52442623955382       -5.32590527138593
C           42.36532285591436       -5.75410237083466       -4.04109438306768
C           42.38152708047203       -4.71455911701452       -3.11157483498546
O           41.94883086602833       -4.83997620909361       -1.82942732568955
C           41.45022848084140       -6.07614900785401       -1.35990585471686
C           41.68477664710947       -1.76536655255701       -2.10711776397112
C           40.42404578874682       -2.12428226771539       -2.68650538902365
C           39.49157437413047       -1.31907749604254       -2.12639567082394
C           40.18172981375411       -0.47926490350859       -1.19495328202016
N           41.52648071572811       -0.75241492452271       -1.19514410800291
N           44.30285033010123       -0.90304715311626       -1.06479762482070
C           42.92907560617262        3.41484843388796        3.55188848214710
C           43.27207223512047        2.98988131907180        4.84217736658352
O           43.56948204669104        1.67035063487860        4.97182691983870
C           43.95022015522048        1.14156463192082        6.22588373028207
C           43.28583534985045        3.89586541790350        5.90223896365468
C           42.96325766349330        5.22360960447389        5.66578733296300
C           42.62524100307711        5.66780268725397        4.39639368366575
C           42.60643985382192        4.76111542300585        3.33701796133461
O           42.29635366220088        5.10051740408983        2.05783555770155
C           41.97708485890764        6.43727845314275        1.72877906520858
H           38.47143651070634        0.54148131556499       -0.47858536469104
H           38.43425675252911        2.22456425430026        1.48292387471035
H           40.31049695440718        3.30151965258191        3.09919986221286
H           45.53179286425645        3.13642091602014        3.24541539737011
H           47.42782424677005        1.85719316984759        1.81277410214673
H           47.40187570471207       -1.87826982611509       -1.79666816379209
H           45.48781927994430       -3.27363294649147       -3.08962826445643
H           43.52928347470244       -1.80199913197875       -7.10629365097695
H           44.59524017425623       -0.62791022409513       -6.29030478264278
H           45.16809871936563       -2.29153838569178       -6.58124961465601
H           43.67584186781345       -4.13078973410114       -6.71452333977261
H           42.81947804610360       -6.33232818965805       -6.04924454602056
H           41.99286839172228       -6.73389097878768       -3.77367372253465
H           41.17669622192847       -5.91619509438806       -0.31534733486116
H           40.56149329748684       -6.39027918062325       -1.92070308896313
H           42.21144254171094       -6.86373438793018       -1.41636302050794
H           40.28804511952266       -2.89060727266671       -3.43244633604177
H           38.42872099950239       -1.28597417302501       -2.30728808337558
H           44.14809726091904        0.08091025182923        6.06057498461351
H           43.14859882439200        1.24710464672674        6.96695740655243
H           44.85994774831619        1.62283007127155        6.60497208282554
H           43.54503764333226        3.57728839708236        6.90301130050395
H           42.97639548399303        5.92874734017942        6.48962984734675
H           42.38101398309479        6.71009422799121        4.24079725685803
H           42.81224374978611        7.11447598109999        1.94502883735091
H           41.77688934082460        6.44625551102864        0.65574652118590
H           41.08375596863331        6.78094538507949        2.26435858524593
Ni          90.94039387922285        0.07454007776562       -0.15233203719843
C           94.31341399835779        0.39310124427040       -0.37917702324749
C           93.68348486078540       -0.45944951566883       -1.26190504902662
C           94.38088285523261       -1.23870824410294       -2.23936839037243
C           93.44331516615588       -1.94538367612082       -2.91241273996107
C           92.17188338753415       -1.57865759611068       -2.36187925005459
N           92.33173371425529       -0.68338675371151       -1.33355692630882
C           90.95763257155720       -2.03760373893085       -2.85172979015383
C           89.73720399796977       -1.63470554820453       -2.33067389418256
C           88.47562860540798       -2.01386721183603       -2.89018189793949
C           87.51861048545599       -1.43256635148998       -2.12852000569801
N           89.55366938138094       -0.81790401126670       -1.23768481132523
C           88.19753364041087       -0.70887873787028       -1.10050082192462
C           87.52879117635788       -0.04999973485350       -0.06539871502233
C           88.20098622592575        0.60488309487003        0.97042397703080
C           87.52819403287786        1.19986288588290        2.08169192559439
C           88.48563155041371        1.75048432752448        2.86523536309280
C           89.73929590669458        1.50645809301778        2.21945796780919
C           90.94985098404169        1.99242742081966        2.68771273436234
C           90.95591330726732        2.81383316810741        3.93038284757567
C           90.42544673147889        4.11060002940742        3.92378156654937
O           89.93224209107471        4.54319018844744        2.73375672997340
C           89.36318713915560        5.83176204348502        2.61935106425588
C           90.43206744248315        4.88010345177756        5.08670862057521
C           90.96494521632930        4.34760570261569        6.25096984532814
C           91.49436865450566        3.06630688406637        6.28107975009096
C           91.49264252831989        2.29826826475106        5.11694960263284
O           91.98287331232338        1.03277793933686        5.04514941914694
C           92.52269134092644        0.40851853524234        6.19236086484523
C           92.15246052763251        1.77454401648545        2.03139124484546
C           93.40002415570648        2.34211415387999        2.44970843446629
C           94.33851485199550        1.91558806328194        1.57270345072315
C           93.66455878098029        1.08000281703059        0.62563004326556
N           92.32223945897324        1.01304026543660        0.90264050802505
N           89.55340346264769        0.77896103496034        1.06478834134044
C           90.95806221102343       -2.97776601587329       -4.00661700680458
C           90.55386282592883       -4.30823843575661       -3.83258176809099
O           90.19192271323512       -4.65783265158809       -2.57044733772458
C           89.73628095751000       -5.96638218381650       -2.29211493922988
C           90.54844112321101       -5.19047060707471       -4.91255961404087
C           90.94051065488085       -4.73705243062567       -6.16290696604457
C           91.33983793697797       -3.42383605195280       -6.36002258621645
C           91.35028755420640       -2.54250913368075       -5.27939960007878
O           91.71612385032772       -1.23677395746431       -5.37411498091013
C           92.11693826585481       -0.69328811421374       -6.61542564465587
H           95.38818101562489        0.50741458240300       -0.46170023764855
H           95.45147392189109       -1.23718857428530       -2.37102375300766
H           93.58379260668954       -2.64705962545389       -3.71846150136048
H           88.35151576364206       -2.64017025760129       -3.75852414894705
H           86.44690380332860       -1.48568805168345       -2.23384747832555
H           86.46052032371516        1.18363708832094        2.23090577362652
H           88.36613269252825        2.28397751864044        3.79405214839992
H           90.09655397532711        6.61626525446478        2.84223228174366
H           89.03853443189787        5.92901437352345        1.58172976683797
H           88.49581991190982        5.94789764089111        3.28045003193596
H           90.02803955976037        5.88357649291020        5.09203183724842
H           90.96797097135828        4.94531514442873        7.15588253313896
H           91.90245558600796        2.67678539123799        7.20410163375628
H           92.83307067556431       -0.58946977699140        5.87741470352967
H           93.39501759206497        0.95319632011043        6.57367469781664
H           91.77492599841781        0.31829647406089        6.98965517086680
H           93.52411243794454        2.98630960224201        3.30519491372729
H           95.39579806556705        2.12848654831742        1.55554416882503
H           89.49037780948254       -5.98228705113378       -1.22877263673189
H           90.51299230102525       -6.71412430330158       -2.49333619732244
H           88.83870664277327       -6.21074425977900       -2.87307956469445
H           90.24274862789173       -6.22059769208588       -4.78768748103378
H           90.93404724730749       -5.42256513796641       -7.00321883684635
H           91.63753418170894       -3.09680312372587       -7.34725375783787
H           91.31208234265223       -0.75154741078442       -7.35816857462150
H           92.35405506210293        0.35515618384735       -6.42534888976544
H           93.00835995239225       -1.19860577288433       -7.00655571975619
C           51.53671253555338        0.03569821531105       -0.05072225752864
C           50.30915384075975        0.04553945818896       -0.06065568706651
C           48.96345415998495        0.05691565131699       -0.06811774260963
C           47.74031709011285        0.06443073475347       -0.07114021288824
C           52.88232592030283        0.02596675741184       -0.04195851454859
C           54.10554468037821        0.01651390443665       -0.03426522886434
C           67.55114468224075       -0.07875368794780       -0.02284305343348
C           66.32297255379625       -0.07470653673442       -0.02353955614762
C           64.97833545552417       -0.06680809923296       -0.02453123734309
C           63.75466951947089       -0.05645348381343       -0.02554121631651
C           68.89577046591870       -0.07983639923992       -0.01653769788903
C           70.11950550319538       -0.07716743635244       -0.01110900237115
C           83.55578422276311       -0.08672468467502       -0.01175248380217
C           82.32791972768092       -0.08857907548162        0.00557317515673
C           80.98303648702523       -0.08659234198174        0.01719941063094
C           79.75946954065039       -0.08192407675965        0.02440822881659
C           84.90070407720034       -0.07991745783628       -0.03020284271585
C           86.12403043841695       -0.07131488661725       -0.04700260357543
Ni          58.93106177144767       -0.00601788107839       -0.02950573794806
C           55.51092447955772        0.00921739627109       -0.03166328062777
C           56.18097297532194       -0.11424539804440        1.18847231076183
C           55.50477938787712       -0.26243417886313        2.43813843676801
C           56.46006568266804       -0.26052848814409        3.39850436684431
C           57.71611674212619       -0.10559729335522        2.73143166473289
N           57.53480092214070       -0.04704760296484        1.36816109382538
C           58.92856227851800        0.01535607930951        3.39374532160064
C           60.14202801003038        0.12392611032918        2.73174406941188
C           61.39816792805693        0.27900552809711        3.39857304279398
C           62.35498322673906        0.25887971262099        2.43993664503930
N           60.32524404903493        0.04538589911375        1.36939865732328
C           61.67942822031349        0.10001121425897        1.19137070904271
C           62.35054826202876       -0.03966867099243       -0.02699524910854
C           61.67818037527750       -0.15887220955538       -1.24682459064745
C           62.35220188732933       -0.31937313010384       -2.49605847121335
C           61.39707490407470       -0.30501421068971       -3.45652328699976
C           60.14344819908482       -0.13153802570035       -2.78964495555311
C           58.93307116875724        0.00257115696859       -3.45243072159059
C           58.93526705422763        0.01066664632606       -4.94162968175081
C           58.40462133676999       -1.07121421488213       -5.65651807560672
O           57.91560001227368       -2.09406012266016       -4.90761705115632
C           57.35562536305776       -3.23337302061906       -5.52873712623942
C           58.40872409410347       -1.06367393895761       -7.05101910945945
C           58.93840771397620        0.02731717771622       -7.72342626453189
C           59.46701102121786        1.10990323849265       -7.03680757754343
C           59.46823420295652        1.10072764189627       -5.64228243597120
O           59.95660561352213        2.11399242790706       -4.88026942581384
C           60.51605480810378        3.26157468617329       -5.48664464384589
C           57.72062551845288        0.12730738856527       -2.79132567802534
C           56.46652636535664        0.29382517741373       -3.45920811886785
C           55.50967744880322        0.29139692533749       -2.50045508805391
C           56.18326738941304        0.13117556456572       -1.25081646635819
N           57.53679296415579        0.05767940629442       -1.42888522778229
N           60.32574611326643       -0.07222500998297       -1.42629021744695
C           58.92744127585549        0.02709889538374        4.88283565565842
C           59.45814106232058       -1.05316571965012        5.60043180742582
O           59.94722706171765       -2.07803808611030        4.85450928077822
C           60.51146454236230       -3.21366694691548        5.47873071901420
C           59.45422841679749       -1.04232793981525        6.99492327468175
C           58.92520021982136        0.05031704563987        7.66502616777305
C           58.39774164232669        1.13189620452676        6.97592883317511
C           58.39636617001423        1.11951275241767        5.58146130096622
O           57.91038721189811        2.13262570061432        4.81750893979496
C           57.34595609382495        3.27886843991036        5.42156978495626
H           54.43601684574482       -0.35189683165621        2.54863611546145
H           56.33766044132853       -0.35078051359211        4.46552289460906
H           61.51989341419613        0.38294649545174        4.46439696560482
H           63.42427339904974        0.34068025030202        2.55120998955170
H           63.41956892192875       -0.42411227304682       -2.60646298113412
H           61.51794750859016       -0.39854196297219       -4.52344065680683
H           56.48606027861078       -2.96946523466844       -6.14279080468452
H           57.03638702476280       -3.89356635898144       -4.72021059640684
H           58.09324803301030       -3.75553648719189       -6.15013646791700
H           58.00512104210411       -1.89532479838301       -7.61285884770449
H           58.93938248070167        0.03396786154492       -8.80789581317775
H           59.87202893074501        1.94811441629476       -7.58777070410907
H           60.83331564957412        3.91222415234304       -4.66965817013023
H           59.77860475701277        3.79029677550619       -6.10266564812470
H           61.38683188720292        3.00627263159348       -6.10262611447032
H           56.34624377827240        0.39289780586177       -4.52568011743686
H           54.44152872796469        0.38615612668881       -2.61228128611429
H           59.77615773761148       -3.73624086454199        6.10249414933732
H           60.83211640401342       -3.87532317891763        4.67198677570554
H           61.38078205223089       -2.94495344682050        6.09107302115070
H           59.85752177152995       -1.87290254492979        7.55856337002195
H           58.92415629670474        0.05925574965952        8.74947535157390
H           57.99398726119171        1.97197716545365        7.52496488835248
H           58.08042733924356        3.81111305322551        6.03812545696472
H           56.47515182206124        3.02113780533985        6.03647327095047
H           57.02765804979210        3.92737971891635        4.60326819046253
Ni          74.93936675714659       -0.04410466495836        0.00759468380645
C           71.52346080435143       -0.06579610435792       -0.00639894640566
C           72.19249724162549       -0.20731742469871        1.21317526280399
C           71.51823066050218       -0.38944428202832        2.45927153689865
C           72.46987060243883       -0.35921344479240        3.42317700382762
C           73.72173938568224       -0.15498748980801        2.76170436401323
N           73.54272895497418       -0.10064869412401        1.39790153467380
C           74.92538805002681        0.02651197255286        3.42662596072272
C           76.13628970855692        0.16937401131736        2.76548842791178
C           77.38582814566746        0.38230763661637        3.42860914861184
C           78.34637771482689        0.34909938614427        2.47360512861164
N           76.32601550505943        0.05089713372855        1.40701158475676
C           77.67950719404161        0.12585400897563        1.23026828869331
C           78.35522595655105       -0.07019469715125        0.02205427338083
C           77.68571037890624       -0.24342211114612       -1.19316601929188
C           78.35937060813472       -0.45624363224693       -2.43472606567451
C           77.40809080936577       -0.44303424403196       -3.39938016773868
C           76.15704432842510       -0.21892776864351       -2.74296887376813
C           74.95421425824760       -0.04663975542500       -3.41218709375105
C           74.96528064813951       -0.03649273364644       -4.90082196750246
C           74.37992964587632       -1.08546661456562       -5.62251122255389
O           73.82877582992249       -2.08134064605377       -4.88050923479903
C           73.20749849170011       -3.18431229779816       -5.50898798610824
C           74.39589141928900       -1.07610460939882       -7.01690253501494
C           74.99231117107431       -0.01632274670058       -7.68320372217275
C           75.57591857861088        1.03345387971221       -6.99026193785360
C           75.56525485558521        1.02233300926906       -5.59585236110337
O           76.10350286124617        2.00620485497870       -4.82894649960838
C           76.74804532917916        3.11175608898657       -5.42880613980150
C           73.74344577921275        0.11121721647727       -2.75458514592407
C           72.49404195602524        0.31006122399985       -3.42235457318874
C           71.53308466399930        0.29462169813594       -2.46738825264343
C           72.19970676400258        0.09802580877708       -1.21936663731279
N           73.55312350956630        0.02038037556022       -1.39386943070196
N           76.33580154638774       -0.13579278131184       -1.38074798558060
C           74.91554933610223        0.06547063044130        4.91487813886367
C           75.49470449799198       -0.97316099847107        5.65620649493513
O           76.03858748844908       -1.98689700139293        4.93326287142052
C           76.65569906831152       -3.07992553158911        5.58280034816891
C           75.48010898300714       -0.93666084070697        7.05019225420511
C           74.89125143884128        0.13969224720492        7.69634237495691
C           74.31382899803221        1.17962251510716        6.98367799970802
C           74.32317041322551        1.14141275482099        5.58973802289112
O           73.79037984101910        2.11351101535483        4.80425354527267
C           73.16082839575974        3.23869563867159        5.38319225292781
H           70.45282747009443       -0.51605863722080        2.56595311845660
H           72.34701747256290       -0.45958741940245        4.48926371841269
H           77.50139389978439        0.52791155519697        4.49027210875669
H           79.41314183448603        0.45978309102333        2.58446664985636
H           79.42423350425271       -0.58945114950923       -2.53851845728548
H           77.53074532641703       -0.56730653819357       -4.46296114241695
H           72.35965826512762       -2.86822123660347       -6.12874422319399
H           72.84380377962236       -3.82637122771034       -4.70465238636284
H           73.91783607336515       -3.74753864554337       -6.12627825327837
H           73.95062729679412       -1.88292344159902       -7.58344818424191
H           75.00275820742793       -0.00847047710112       -8.76760664760883
H           76.03233210731915        1.84814511007703       -7.53629245651260
H           77.10077920450675        3.73909593130946       -4.60814443779961
H           76.05625205959011        3.69038403642616       -6.05285789194590
H           77.60568563152512        2.79600710441784       -6.03507073179618
H           72.37871982721620        0.43451320996013       -4.48670966320923
H           70.46631320660771        0.40216130822343       -2.58110552422719
H           75.94390531096624       -3.62710759632138        6.21270100000430
H           77.01475067765222       -3.73996465758742        4.79101719341207
H           77.50619135707872       -2.75541826941523        6.19448115851829
H           75.92056461494901       -1.73526594983078        7.63192279393960
H           74.88182574612068        0.16858058161217        8.78039640568767
H           73.86303607591104        2.00757765116824        7.51419896522825
H           73.86116640457332        3.82089563864013        5.99427073056600
H           72.30062149719545        2.94584524312309        5.99729473728493
H           72.81414430401311        3.85390568282070        4.55087998858231
