177
 energy: -316.241689346684 gnorm: 1.945148094083 xtb: 6.5.1 (b24c23e)
Fe          33.59588400000000        0.02805100000000       -0.02578700000000
C           30.26559900000000       -0.12267900000000       -0.17558400000000
C           30.93172200000000       -1.27974200000000       -0.14240600000000
C           30.28263099999999       -2.58502900000000       -0.13106800000000
C           31.22236600000000       -3.50534800000000       -0.02784300000000
C           32.52694200000000       -2.83020500000000        0.02487200000000
N           32.34915400000000       -1.41518300000000       -0.05085600000000
C           33.71563000000000       -3.45060700000000        0.17259000000000
C           33.75060400000000       -4.92568100000000        0.28559000000000
C           33.55798500000000       -5.72682200000000       -0.85044200000000
C           33.58374100000000       -7.12014500000000       -0.73973400000000
C           33.80649900000000       -7.72311000000000        0.50614600000000
O           33.83229500000000       -9.11017700000000        0.62878500000000
C           34.00380000000000       -6.92557100000000        1.63881400000000
C           33.97460700000000       -5.53195700000000        1.53110900000000
C           35.01105399999999       -2.72197600000000        0.23572600000000
C           36.30504400000000       -3.37746400000000        0.46275700000000
C           37.24016500000000       -2.45119900000000        0.41953100000000
N           35.15054900000000       -1.44357100000000        0.05317000000000
C           36.55303200000000       -1.19257300000000        0.15714100000000
C           37.14979599999999       -0.00164100000000       -0.02191800000000
C           36.39460900000000        1.24368600000000       -0.29894500000000
C           36.95112900000000        2.37071600000000       -0.72351400000000
C           35.90677400000000        3.37289200000000       -0.78653800000000
C           34.77863800000000        2.79456700000000       -0.39445000000000
N           34.99520100000000        1.41955200000000       -0.06898900000000
C           33.48098900000000        3.50593900000000       -0.26099800000000
C           33.49024600000000        4.98739600000000       -0.21083800000000
C           34.10524700000000        5.64945000000000        0.86369300000000
C           34.12302900000000        7.04610600000000        0.91325300000000
C           33.53588100000000        7.79275900000000       -0.11233000000000
O           33.55552100000000        9.18349100000000       -0.04596200000000
C           32.93483900000000        7.13579900000000       -1.19607400000000
C           32.91336600000000        5.73938800000000       -1.24608100000000
C           32.31238100000000        2.84286500000000       -0.17493600000000
C           30.98985000000000        3.44460700000000       -0.01338400000000
C           30.13029200000000        2.44478900000000       -0.00190900000000
C           30.89411399999999        1.20691800000000       -0.14231600000000
N           32.16746300000000        1.42593600000000       -0.24461400000000
H           29.18244000000000       -0.15513000000000       -0.20196200000000
H           29.21923700000000       -2.78128000000000       -0.18021200000000
H           31.03443800000000       -4.57018000000000        0.01982700000000
H           33.38488900000000       -5.27131500000000       -1.81797100000000
H           33.43020100000000       -7.72966200000000       -1.62126700000000
H           33.68643900000000       -9.71501600000000       -0.17168300000000
H           34.17782800000000       -7.38650600000000        2.60320800000000
H           34.12662700000000       -4.92536500000000        2.41563100000000
H           36.48554500000000       -4.43136000000000        0.62967100000000
H           38.30084600000000       -2.62554900000000        0.54511000000000
H           37.99414500000000        2.53155000000000       -0.95963300000000
H           36.03376800000000        4.40565600000000       -1.08258000000000
H           34.56139600000000        5.08326000000000        1.66569800000000
H           34.58877699999999        7.54872600000000        1.75240100000000
H           33.13216900000000        9.75290100000000       -0.77033800000000
H           32.48593100000000        7.70612500000000       -1.99901000000000
H           32.45040000000000        5.24320900000000       -2.09142600000000
H           30.73735500000000        4.49213700000000        0.08366000000000
H           29.05731600000000        2.53841100000000        0.10398600000000
Fe          55.56861700000000       -0.03158100000000       -0.02148700000000
C           58.89890200000000        0.09609900000000       -0.19136000000000
C           58.23278000000000        1.24595000000000       -0.32453500000000
C           58.88187100000000        2.53935900000000       -0.50059000000000
C           57.94213600000000        3.46496800000000       -0.53047400000000
C           56.63755999999999        2.80437200000000       -0.38143900000000
N           56.81534700000000        1.39312500000000       -0.25336400000000
C           55.44887200000000        3.43954900000000       -0.32426100000000
C           55.41389800000000        4.91557500000000       -0.42406600000000
C           55.60651600000000        5.54543600000000       -1.66328800000000
C           55.58076100000000        6.94022700000000       -1.75363100000000
C           55.35800299999999        7.71570600000000       -0.60715200000000
O           55.33220699999999        9.10601800000000       -0.68479000000000
C           55.16070200000000        7.08892700000000        0.62822400000000
C           55.18989500000000        5.69427900000000        0.72158100000000
C           54.15344800000000        2.72751500000000       -0.15723800000000
C           52.85945700000000        3.40879500000000       -0.02660200000000
C           51.92433599999999        2.48591100000000        0.06351500000000
N           54.01395299999999        1.43614400000000       -0.15448700000000
C           52.61147000000000        1.20266100000000       -0.01558000000000
C           52.01470600000000       -0.00164100000000       -0.02191800000000
C           52.76989300000000       -1.27383000000000       -0.11740600000000
C           52.21337299999999       -2.45011400000000       -0.37588300000000
C           53.25772800000000       -3.45096400000000       -0.29446700000000
C           54.38586400000000       -2.82236800000000        0.01058900000000
N           54.16930100000000       -1.41488300000000        0.13540300000000
C           55.68351299999999       -3.50723400000000        0.24472400000000
C           55.67425599999999       -4.96616600000000        0.50691700000000
C           55.05925500000000       -5.46720300000000        1.66531800000000
C           55.04147300000000       -6.84229800000000        1.91475000000000
C           55.62862100000000       -7.72837100000000        1.00690400000000
O           55.60898100000000       -9.09519300000000        1.27211900000000
C           56.22966200000000       -7.23369800000000       -0.15988600000000
C           56.25113600000000       -5.85890900000000       -0.40972400000000
C           56.85212100000000       -2.83867200000000        0.23476100000000
C           58.17465200000000       -3.41101000000000        0.48097700000000
C           59.03420900000000       -2.41988900000000        0.34888400000000
C           58.27038800000000       -1.21497000000000        0.03232700000000
N           56.99703800000000       -1.44639900000000       -0.03748900000000
H           59.98206200000000        0.12442800000000       -0.22212100000000
H           59.94526400000000        2.72652900000000       -0.57738100000000
H           58.13006400000000        4.52562200000000       -0.63607400000000
H           55.77961299999999        4.95582600000000       -2.55545400000000
H           55.73430100000000        7.41696000000000       -2.71349500000000
H           55.47806300000000        9.58975300000000       -1.56375600000000
H           54.98667399999999        7.68345900000000        1.51650800000000
H           55.03787500000000        5.22086900000000        1.68398300000000
H           52.67895700000000        4.47573500000000       -0.01262200000000
H           50.86365600000000        2.67647500000000        0.16277900000000
H           51.17035700000000       -2.64316200000000       -0.58648300000000
H           53.13073399999999       -4.51551800000000       -0.43927100000000
H           54.60310500000000       -4.79180300000000        2.37779200000000
H           54.57572499999999       -7.21932100000000        2.81732900000000
H           56.03233300000000       -9.76264100000000        0.63693300000000
H           56.67857099999999       -7.91332500000000       -0.87268700000000
H           56.71410199999999       -5.48914900000000       -1.31751300000000
H           58.42714699999999       -4.43377800000000        0.72731000000000
H           60.10718600000000       -2.49735000000000        0.46711600000000
C           38.87117000000000       -0.00164100000000       -0.02191800000000
C           40.09308800000000       -0.00164100000000       -0.02191800000000
C           49.07141400000000       -0.00164100000000       -0.02191800000000
C           50.29333200000000       -0.00164100000000       -0.02191800000000
Fe          44.56003400000000        0.02249800000000       -0.02776100000000
C           41.13843900000000        0.00345400000000        0.04614300000000
C           41.79537999999999        0.98383200000000        0.69376400000000
C           41.15596300000000        2.03805500000000        1.48424800000000
C           42.09570200000000        2.84445100000000        1.93743800000000
C           43.39253800000000        2.35479800000000        1.46278600000000
N           43.21246700000000        1.17359200000000        0.67788700000000
C           44.57716099999999        2.95029700000000        1.71043700000000
C           44.60793400000000        4.20863100000000        2.48505200000000
C           44.91023400000000        4.18447000000000        3.85816900000000
C           44.95274600000000        5.37765100000000        4.58727500000000
C           44.70133400000000        6.60064000000000        3.94877400000000
O           44.75036100000000        7.78226600000000        4.68576100000000
C           44.40263800000000        6.62608900000000        2.57546700000000
C           44.35589600000000        5.43421900000000        1.84594400000000
C           45.87589299999999        2.41010100000000        1.23899000000000
C           47.14591200000000        3.14065900000000        1.33332900000000
C           48.09942499999999        2.35162100000000        0.88092200000000
N           46.04357600000000        1.22040000000000        0.74977900000000
C           47.44402400000000        1.10807000000000        0.49545000000000
C           48.06013000000000        0.00345400000000        0.04614300000000
C           47.31074100000000       -1.21142700000000       -0.34182000000000
C           47.84987400000000       -2.41784800000000       -0.46702300000000
C           46.81634399999999       -3.29802500000000       -0.97761300000000
C           45.71712299999999       -2.56769600000000       -1.13287400000000
N           45.93891900000000       -1.21529000000000       -0.73630300000000
C           44.45889000000000       -3.06331500000000       -1.74313600000000
C           44.52173300000000       -4.26012000000000       -2.61742800000000
C           43.84461000000000       -5.44080200000000       -2.26331800000000
C           43.91074200000000       -6.56549300000000       -3.09253900000000
C           44.65430499999999       -6.52144700000000       -4.28067500000000
O           44.72322500000000       -7.63328400000000       -5.11700000000000
C           45.33536399999999       -5.35026500000000       -4.63124200000000
C           45.27434200000000       -4.22516300000000       -3.80202000000000
C           43.28364800000000       -2.43259800000000       -1.54942700000000
C           42.00679900000000       -2.78729300000000       -2.16416100000000
C           41.11853400000000       -1.94584400000000       -1.67585300000000
C           41.81626400000000       -1.04547500000000       -0.74991000000000
N           43.08231700000000       -1.32210900000000       -0.67381200000000
H           40.09976700000000        2.16363900000000        1.67954100000000
H           41.91364500000000        3.71484000000000        2.55562200000000
H           45.10942700000000        3.24391500000000        4.36150000000000
H           45.18306100000000        5.35265400000000        5.64769400000000
H           44.56281700000000        8.68370600000000        4.24957700000000
H           44.20923799999999        7.56762800000000        2.07301400000000
H           44.12859000000000        5.46447200000000        0.78522900000000
H           47.29475800000000        4.14618400000000        1.70663000000000
H           49.15021899999999        2.60400200000000        0.82379300000000
H           48.87670700000000       -2.69263500000000       -0.26305800000000
H           46.93433300000000       -4.34526300000000       -1.22492100000000
H           43.26842600000000       -5.48765200000000       -1.34647800000000
H           43.38322100000000       -7.46909200000000       -2.81152000000000
H           44.25605500000000       -8.50169400000000       -4.88124900000000
H           45.91264200000000       -5.31174000000000       -5.54654600000000
H           45.80491700000000       -3.32452600000000       -4.08714800000000
H           41.80297600000000       -3.56890300000000       -2.88554200000000
H           40.06794700000000       -1.93495700000000       -1.93603300000000
177
 energy: -316.767071707091 gnorm: 0.468069612646 xtb: 6.5.1 (b24c23e)
Fe          33.60294273348487        0.02409756536307       -0.02850717528435
C           30.26628317570677       -0.11102974804248       -0.17525394038960
C           30.93720631158202       -1.28083739814271       -0.14194227897218
C           30.28184303696337       -2.57997529430471       -0.13157683642858
C           31.22940402265519       -3.50676489243753       -0.02742928890929
C           32.52594450858569       -2.82389522857973        0.02414403977856
N           32.34134520494567       -1.42026971078998       -0.05015739659032
C           33.72614221686534       -3.44732832303980        0.17322587183874
C           33.75239235761061       -4.92738145467844        0.28581094961713
C           33.55801150655557       -5.72881923629358       -0.84720036704724
C           33.58386656165353       -7.11905277437297       -0.73850316446099
C           33.80578591575896       -7.72743033356626        0.50237716518562
O           33.83207110255685       -9.10925444229493        0.62743969908602
C           34.00328185214929       -6.92697210281472        1.63632096070151
C           33.97483362127336       -5.53579002253813        1.52807248891903
C           35.00503300206761       -2.73200464877542        0.23632387807262
C           36.29616081765258       -3.38412711203760        0.46239993860694
C           37.24031814781596       -2.44602231595610        0.41852756733330
N           35.15538394515703       -1.43741134651009        0.05608565710061
C           36.55529975430503       -1.19224463597036        0.15684125226386
C           37.16216623196355        0.00814631851460       -0.02423981513346
C           36.39143810949963        1.23265030296485       -0.29147961037711
C           36.95240109246128        2.38454226710077       -0.72650022202082
C           35.92018514902754        3.37425859774528       -0.78839870602387
C           34.76850438080784        2.78622933191604       -0.38793489010153
N           34.99521658823895        1.41867897284381       -0.07435271149400
C           33.48939705291284        3.50091454150252       -0.26091084025411
C           33.49355936496124        4.98720625901454       -0.21205163650468
C           34.10427735343239        5.65265074699217        0.86065426279951
C           34.12148225663212        7.04699427237977        0.91126876313752
C           33.53370749091034        7.79706228298332       -0.11593670338658
O           33.55480930168610        9.18235336614481       -0.04732083886061
C           32.93536413774589        7.13463321741950       -1.19483765522924
C           32.91418178781070        5.74109325967318       -1.24309197195327
C           32.31160220875901        2.84080480097731       -0.17472969044066
C           30.99565224175326        3.44524911843634       -0.01398543522108
C           30.12476470575665        2.43693271336002       -0.00252426870983
C           30.88251013312966        1.19967862209897       -0.14233590617192
N           32.17131061240269        1.42949848812393       -0.24118021525152
H           29.18276138128008       -0.15294122009768       -0.20182661957984
H           29.21939139299188       -2.77766193621885       -0.18054060224795
H           31.03893663206956       -4.57032749950110        0.01997466732394
H           33.38522761596809       -5.27143549257251       -1.81674335839602
H           33.43030986384504       -7.72972562592636       -1.62099967402376
H           33.68769411043971       -9.70160159669412       -0.16483688035772
H           34.17761911636200       -7.38698822871798        2.60245973143092
H           34.12634977956900       -4.92615161040431        2.41431167443184
H           36.48187213573479       -4.43309674386462        0.62963057693605
H           38.30027337915901       -2.62139617985940        0.54457011175749
H           37.99441675936276        2.53329774544735       -0.96041785797362
H           36.03565626248624        4.40563213109065       -1.08325888312551
H           34.56085961374916        5.08378042303711        1.66463734680596
H           34.58836478285678        7.54901259904017        1.75162579106629
H           33.13608356497653        9.73985665875958       -0.76390533364021
H           32.48606170449495        7.70619009798405       -1.99879577387427
H           32.45109264264465        5.24341244321030       -2.09028817238270
H           30.74149189199690        4.49192329816943        0.08325528127684
H           29.05605098743921        2.53528584791809        0.10382077880645
Fe          55.56153199470511       -0.02812548490456       -0.02474373370313
C           58.89819605453000        0.08462015991961       -0.18935903995125
C           58.22729141462281        1.24713102297498       -0.32426329427767
C           58.88268517857912        2.53429798191665       -0.50036956960165
C           57.93511019594412        3.46642832294843       -0.53026641330051
C           56.63866821860422        2.79783135237419       -0.38122847300796
N           56.82326942326818        1.39849915269595       -0.25343273041115
C           55.43808471094298        3.43636652912740       -0.32315551315113
C           55.41209546737915        4.91729827469354       -0.42407032086732
C           55.60649453514173        5.54787523713853       -1.66036683260749
C           55.58063995025108        6.93931513567667       -1.75225371766865
C           55.35870977770436        7.71945871029115       -0.61150602763912
O           55.33244706918860        9.10488972923958       -0.68597845963123
C           55.16121939682598        7.08996196031358        0.62555588591654
C           55.18966933261801        5.69764093688294        0.71803374188890
C           54.15969334217179        2.73771797302271       -0.15823604683804
C           52.86845589298886        3.41547983494385       -0.02787661296905
C           51.92479304941598        2.48072784030353        0.06314664879165
N           54.00897673219539        1.43030077162711       -0.15073085182973
C           52.60962070056115        1.20268324038661       -0.01510599905739
C           52.00283025149059       -0.01184743758507       -0.02316071203638
C           52.77317534834098       -1.26196498969639       -0.11231713322868
C           52.21225510640318       -2.46446755286863       -0.37686609966610
C           53.24418374635015       -3.45260489054663       -0.29611016525572
C           54.39605114316863       -2.81315555040741        0.01588607589934
N           54.16919710877097       -1.41483419672712        0.12993599100375
C           55.67499337650346       -3.50223492043249        0.24410332689647
C           55.67093478614340       -4.96615217359387        0.50567154997645
C           55.06021564291111       -5.47080641116301        1.66277375996893
C           55.04302348738066       -6.84345409290394        1.91291840662500
C           55.63078574076777       -7.73316015101208        1.00395472059288
O           55.60971195235374       -9.09423812232369        1.27060757328244
C           56.22913896980218       -7.23236627334541       -0.15883021442795
C           56.25033059443893       -5.86016965015840       -0.40652421173607
C           56.85293174804699       -2.83654760012635        0.23467125786198
C           58.16882596139779       -3.41172246879653        0.48047109108583
C           59.03974180497649       -2.41218014223149        0.34713921260849
C           58.28199895712064       -1.20782673219661        0.03126310237441
N           56.99314483937162       -1.44943769740086       -0.03350590969098
H           59.98173523676058        0.12228268697040       -0.22166868659345
H           59.94511697059468        2.72290490308677       -0.57718377391144
H           58.12555895500758        4.52578881059051       -0.63594719337487
H           55.77927179082324        4.95612150407453       -2.55425410858886
H           55.73418956824026        7.41705433653276       -2.71323449580575
H           55.47679394003933        9.57745877475256       -1.55505839128847
H           54.98688124389410        7.68382842753251        1.51570050935555
H           55.03815096688964        5.22145618842837        1.68256874603401
H           52.68260737447920        4.47748225004770       -0.01289919008063
H           50.86522045190106        2.67248581255421        0.16241491390326
H           51.17019617077228       -2.64511006999908       -0.58702045741770
H           53.12882916942024       -4.51559089062391       -0.43995490042851
H           54.60364017751709       -4.79247169604330        2.37681629196426
H           54.57613609336585       -7.21971166155794        2.81659989121737
H           56.02840873197162       -9.74881021740345        0.64142891933391
H           56.67843976263825       -7.91335680174085       -0.87246692460337
H           56.71340910638300       -5.48918753088545       -1.31636130928122
H           58.42300367610186       -4.43361902334911        0.72687755207872
H           60.10845079849632       -2.49427656707838        0.46650413213122
C           38.78810542309370       -0.00129729689897       -0.02213163834107
C           39.97231421711240       -0.00633592444084       -0.03061895429068
C           49.20831708402795       -0.01108421125502       -0.03380480540399
C           50.38552291880588       -0.00321866951040       -0.02359134937514
Fe          44.56000358178417        0.01907780572221       -0.02662009663625
C           41.23437692898383       -0.00316972007340        0.04256334434897
C           41.83048092247157        0.99677917348452        0.70316970207002
C           41.15658478107147        2.03176789740379        1.48000717419062
C           42.10321872692123        2.84685906667893        1.93828290247996
C           43.39185110457635        2.35186982615861        1.46098346339436
N           43.21317365979409        1.18137002606011        0.68561523723968
C           44.58725428392546        2.94967455362748        1.70838529237142
C           44.60989782437012        4.21123240213446        2.48626506264842
C           44.90977394340899        4.18952532332045        3.85683743556107
C           44.95200502441666        5.38034328636591        4.58524067215313
C           44.70036184682094        6.60610477588089        3.94724960737639
O           44.74975804982824        7.78226980307202        4.68334518371901
C           44.40296687599301        6.62457377597402        2.57667066768081
C           44.35653012525628        5.43472634572965        1.85005655330011
C           45.86839074155620        2.42362640571546        1.24674247372055
C           47.13566684039122        3.14712606359473        1.33841553479137
C           48.09643341622829        2.34461751836395        0.87878647082546
N           46.03902985806435        1.22273268856047        0.74662424380584
C           47.40815464556250        1.12444101554582        0.50241243578265
C           47.94301983101569       -0.00307348797397        0.04856187272152
C           47.27851104526339       -1.21116151650180       -0.34426965880020
C           47.84866716122112       -2.43059024646111       -0.47149573058891
C           46.82925434880196       -3.30094851190856       -0.97675162712783
C           45.70697328953416       -2.55896996584608       -1.13655329003322
N           45.93176489294646       -1.22084345497669       -0.73224918721463
C           44.46685931176460       -3.06031747087596       -1.74092180000028
C           44.52415620840563       -4.26104373213173       -2.61612333661174
C           43.84587191134263       -5.44041097514896       -2.26692625143250
C           43.91135608945847       -6.56355833248744       -3.09257402612561
C           44.65213842621516       -6.52685216316873       -4.28037180285479
O           44.72248352315902       -7.63280894132742       -5.11512966353173
C           45.33367812244656       -5.35212638354838       -4.62996403632631
C           45.27319817618280       -4.22976231161750       -3.80150074581048
C           43.28369046646382       -2.43280920338406       -1.54967673583145
C           42.01292474780294       -2.78879590763336       -2.16356802154956
C           41.11384837287650       -1.93859126694692       -1.66986890713922
C           41.82710492082541       -1.04861816021434       -0.75249411183903
N           43.09423862703598       -1.32682954397023       -0.68168762684844
H           40.09979224087449        2.15889899794061        1.67640545224713
H           41.91770163357245        3.71512594378668        2.55535661168747
H           45.10900509228608        3.24569309281306        4.36018145320076
H           45.18269558718652        5.35356518591214        5.64645040481194
H           44.56451447050254        8.66792115814212        4.25002082542454
H           44.20941899820222        7.56714852805325        2.07378416829350
H           44.12899239454393        5.46392022485718        0.78700874687574
H           47.29141448562822        4.14764450825218        1.70772582090334
H           49.14805642393500        2.59881688728275        0.82224044788898
H           48.87593668293109       -2.69345963731481       -0.26275833317313
H           46.93629826882093       -4.34565792294612       -1.22394717984075
H           43.26936522607971       -5.48721213872340       -1.34745957332811
H           43.38358430250861       -7.46874597007712       -2.81168285089726
H           44.26005988832937       -8.48730483581157       -4.87887779552033
H           45.91209310579893       -5.31237425609515       -5.54620200264387
H           45.80415960282229       -3.32581762937782       -4.08657638577818
H           41.80684364589311       -3.56885477506169       -2.88448579323122
H           40.06681485151964       -1.93145471587838       -1.93320946370979
177
 energy: -316.906241241085 gnorm: 0.268293985869 xtb: 6.5.1 (b24c23e)
Fe          33.61959622834264        0.01225989860058       -0.03998183870451
C           30.26798876198821       -0.09456340186076       -0.17409964064446
C           30.94370528484061       -1.27711239426150       -0.14065034163770
C           30.28719005275810       -2.56997990452779       -0.13228841715146
C           31.24437832688602       -3.50311324724111       -0.02720629567750
C           32.52996876644613       -2.81412102773386        0.02355975167121
N           32.33001792283759       -1.42692010886155       -0.04789344384104
C           33.74265056072717       -3.44077403159174        0.17393494187363
C           33.75906524650006       -4.92813403771203        0.28533449399153
C           33.55799808917793       -5.73135357478885       -0.84163922676695
C           33.58325534259193       -7.11874207628404       -0.73747433698754
C           33.80465404171991       -7.73168894041775        0.49726017065700
O           33.83335118002342       -9.10085618369493        0.63403528487956
C           34.00194633058315       -6.93157126923067        1.63020877407857
C           33.97710279265113       -5.54392207943575        1.52158504438460
C           34.99861662591875       -2.74208395862437        0.23836187723271
C           36.28126822755201       -3.39212681863318        0.46027441280377
C           37.23255797510583       -2.44104911637166        0.41559328976173
N           35.16495075683369       -1.42919506817820        0.06714652941490
C           36.55741073820692       -1.19000806879105        0.15611845469233
C           37.17504684016058        0.01950260778700       -0.03372013657355
C           36.39243805512638        1.22437937635914       -0.28041228242883
C           36.95448576888169        2.40335327430100       -0.72499187276409
C           35.93915156882596        3.37273572787662       -0.78466950066132
C           34.76496693932244        2.77158500509231       -0.37729437354933
N           34.99945061950963        1.41122093025265       -0.09159998357325
C           33.50771651567832        3.48737005598961       -0.25875761791894