554
 energy: -1031.790436836090 gnorm: 0.000798537284 xtb: 6.5.1 (b24c23e)
C          103.40296430850150       -0.04953157225452        0.00867547169635
C          104.00977157871012       -1.28774716915048       -0.15679204618781
C          103.35606910166265       -2.54470142570736       -0.29191273690333
C          104.31644728662573       -3.50481469800201       -0.44235606532236
C          105.58802108493097       -2.86350884616921       -0.41433046804306
N          105.35237086374649       -1.53099239272082       -0.23039804167128
C          106.85037063518300       -3.45788035560580       -0.52530381689947
C          108.06820100642919       -2.77760085968790       -0.44757477664541
C          109.36306764462158       -3.41004683296023       -0.62691687358947
C          110.28641605423611       -2.43721950579532       -0.48366736359687
N          108.22633457324059       -1.44460750822215       -0.22129740366423
C          109.55444582301830       -1.21170978551429       -0.22731544543078
C          110.19500296719139        0.02602138472371       -0.01536437882921
C          109.56201546109031        1.26518138698124        0.19864064244159
C          110.20918264831165        2.50597305667859        0.44041230439521
C          109.24439084750887        3.46323942175896        0.58901069663198
C          107.97685073228780        2.83641287009662        0.43267786426093
C          106.71546409695758        3.43547193597632        0.51878226868017
C          106.68523653560773        4.89885474104625        0.74860958600758
C          107.27031329990460        5.77388489744224       -0.17089975613287
C          107.23656822599762        7.13908177579834        0.04527961761673
C          106.62233330848956        7.65581359419584        1.18769338867157
C          106.61407436918742        9.12611636516250        1.37635456099582
O          105.99829526761167        9.51970870468043        2.50150400772409
O          107.10610500131543        9.91325892619922        0.60828484006909
C          106.03932959832994        6.78666463100309        2.11046876963357
C          106.06967193728026        5.42102874620266        1.88943011310721
C          105.49644451140881        2.75789228607489        0.40498048618899
C          104.19377039802821        3.40522074633888        0.43825953984696
C          103.27744428677303        2.42677025320886        0.29648388808293
C          104.01899480921972        1.18478742208165        0.16569881141198
N          105.35225475286215        1.42396920963711        0.22600268893637
N          108.22081696994042        1.50752583263887        0.20737228952542
C          106.87677310435777       -4.92382495896318       -0.74383610981029
C          106.28251902093092       -5.47993024164301       -1.87965873724807
C          106.30339622855995       -6.84809303837992       -2.08679285000973
C          106.91620039478229       -7.68531336530660       -1.15401692123663
C          106.96085408870339       -9.15697637657715       -1.32688936355423
O          106.36571812751357       -9.58378196013551       -2.45116352639156
O          107.47475323126103       -9.91833925284309       -0.54738043207315
C          107.50960177062699       -7.13432762866281       -0.01656870966285
C          107.49234514027633       -5.76669081562390        0.18551445487596
H          102.31767067099460       -0.05699393817891        0.01371396265105
H          102.28699046025001       -2.68340625855296       -0.26870870826269
H          104.16363012587055       -4.56597410782599       -0.55400855060516
H          106.07856362614665       -0.82654430801629       -0.15538388412870
H          109.52169186116915       -4.45325565586766       -0.84685534807851
H          111.35991309324116       -2.51339293128877       -0.54898275020652
H          111.27752019774803        2.63807865330208        0.49798575658662
H          109.39426308906111        4.50964917736548        0.79890364770766
H          107.73465380972637        5.37651753514371       -1.06635115066516
H          107.68290419388623        7.82367606761893       -0.66763743237566
H          106.03618207683823       10.48874414988481        2.54978897034652
H          105.56491020045746        7.18289670466469        3.00045532972780
H          105.62843009147142        4.74530387341558        2.61334494560660
H          104.02826836958054        4.46551130210518        0.54150371734975
H          102.20204751538257        2.50690402581141        0.27022910682303
H          107.49720855564870        0.80847801581839        0.07557125607411
H          105.81817512395999       -4.82894354866649       -2.61192712558884
H          105.84562802391889       -7.27069169621984       -2.97337882958263
H          106.43918981007030      -10.55122657825614       -2.48941384880204
H          107.98047981175850       -7.79451744834288        0.70351379168082
H          107.94217640776050       -5.34204932443829        1.07569393440211
C          240.41532988206316        0.07410016523163        0.03961933082655
C          239.80554823150939        1.25653909134394        0.43807492571049
C          240.45607246479753        2.44544744708709        0.87266962364337
C          239.49329977101780        3.37133281413053        1.16002971152314
C          238.22338752792919        2.78103087502146        0.89955361151925
N          238.46237335044162        1.50441944612989        0.47749547305959
C          236.95949622537916        3.36150256249724        1.05661012430748
C          235.74369767081274        2.71432437239122        0.82180623885201
C          234.44766042380738        3.36057702166582        0.92863894225832
C          233.52673838928632        2.42134208385883        0.62986918655942
N          235.58882426602199        1.41564405036577        0.44450654499230
C          234.26138112586173        1.20674512440806        0.33256273042437
C          233.62369139590368       -0.00369745133412       -0.00733233844777
C          234.25976161685756       -1.21273400870552       -0.34701455853291
C          233.61614032281267       -2.43834189927950       -0.66385725881358
C          234.58338491542455       -3.36070300150568       -0.95205407191844
C          235.84883303694480       -2.72243080396452       -0.82848370415380
C          237.11162868971917       -3.29277258361443       -1.02228479335213
C          237.14548037103438       -4.70777821249226       -1.46010054225310
C          236.55235495308912       -5.09105321000202       -2.66629485802155
C          236.59041573631472       -6.41137879267038       -3.07477863758827
C          237.21714226723279       -7.37535758542127       -2.28271600937588
C          237.23017455686323       -8.77792528098431       -2.76244377172374
O          237.85934619413692       -9.62356231708660       -1.93238857716945
O          236.73092514014863       -9.14845202954964       -3.79447880870034
C          237.80782226011939       -6.99894187066865       -1.07597175307918
C          237.77305258699317       -5.67603381406861       -0.67163367465901
C          238.32881118960367       -2.62838930183118       -0.83472199910326
C          239.63274192937308       -3.21860526946485       -1.09656436346170
C          240.54658564496592       -2.27422062592761       -0.79636347696903
C          239.80221058190003       -1.10479206706059       -0.36291043258880
N          238.46971361945288       -1.35132126233289       -0.40872915343283
N          235.60138128495072       -1.42912603130135       -0.45135237432396
C          236.92799125159021        4.77329065697751        1.50722447534095
C          237.52581321920192        5.77536969900224        0.73854009777086
C          237.49946413185526        7.09409205340767        1.15754653143868
C          236.87742072286429        7.43152129270860        2.35993503807934
C          236.82628367309891        8.82787405580931        2.85519819508252
O          237.42635812266360        9.70885968797279        2.04036370021092
O          236.30336556052762        9.16507274184829        3.88685113130788
C          236.28033407313887        6.43332101695490        3.13232940832871
C          236.30313867311418        5.11735829376547        2.70905757403584
H          241.50061265739740        0.08172830796730        0.04605810919436
H          241.52477368511597        2.56190143648508        0.95644841133114
H          239.64346545764582        4.37307312025893        1.52859538905527
H          237.73797031472117        0.83762475055876        0.23284745473142
H          234.28676994396571        4.39559796224894        1.18294656186622
H          232.45331560336726        2.51743752415947        0.59864080876493
H          232.54840288016092       -2.58692810776689       -0.66320639552358
H          234.43663194025356       -4.39500945583873       -1.21697032378461
H          236.07843934890698       -4.34218680179711       -3.29076249011114
H          236.13805372259907       -6.71392048264082       -4.01284851152461
H          237.82405584137649      -10.51463919131700       -2.31650009525260
H          238.29183994290267       -7.74430761068947       -0.45604753612620
H          238.22038357687362       -5.38638399537131        0.27247593154149
H          239.80068587261360       -4.21503092872790       -1.47231020480726
H          241.62193901799625       -2.33018528816987       -0.86011071969736
H          236.32297369602543       -0.73884226965101       -0.27117818120363
H          237.99712976062801        5.51621617461052       -0.20289786090665
H          237.96002870891238        7.86601486370675        0.55241033466441
H          237.34823137188945       10.59340273697369        2.43317007892027
H          235.80218974122295        6.70622076717338        4.06667538586439
H          235.85033717831024        4.34203415847115        3.31646861034880
C          111.60092204164597        0.03871911342769       -0.01386523116382
C          112.82549215473335        0.05266109828125       -0.00927784985501
C          114.16822404800251        0.06399193335053       -0.00339751096671
C          115.39894169702747        0.07325147046608        0.00382132138005
C          116.73683125555644        0.08262806761884        0.01261693851383
C          117.96762514394116        0.09001657796442        0.02219481456268
C          119.31010520317240        0.09718525781155        0.03176903059538
C          120.53493578215175        0.10111187876162        0.04319872236635
C          130.21170976344294        0.09810181857488        0.07683607192178
C          131.43703063912724        0.09290407613477        0.07842600045235
C          132.77886046722620        0.08898913528672        0.07809222872980
C          134.01024854344888        0.08457462163919        0.07734715072142
C          135.34738867268999        0.07948954109773        0.07502871836234
C          136.57878156220292        0.07660050622018        0.07469872288596
C          137.92059875063606        0.07571268297057        0.07472451436174
C          139.14593860092788        0.07077593130126        0.07373361083371
C          148.82585896590356        0.06098450365798        0.05960411403352
C          150.05125285303697        0.05764443960299        0.05922422620563
C          151.39312395012388        0.05671775355036        0.05732061130304
C          152.62458775042452        0.05674247858499        0.05918402247671
C          153.96177400126751        0.05679909204546        0.05726903202626
C          155.19321609157163        0.05651218666099        0.05635292721636
C          156.53508054004141        0.05756533711530        0.05982718825399
C          157.76049650978661        0.05752057002426        0.06163857977065
C          167.44234908411019        0.06020174455886        0.05932438819279
C          168.66775856975346        0.05760279701017        0.05946274375889
C          170.00965546674388        0.05787731584235        0.05873846748217
C          171.24111593061758        0.05725838900228        0.05843110722908
C          172.57833239686906        0.05638952498577        0.05877052537468
C          173.80980013138884        0.05630792997552        0.05880001259050
C          175.15170359901359        0.05884283496080        0.06022923933237
C          176.37713989066478        0.05883347987305        0.06338142308434
C          186.05893573874127        0.05992036510259        0.05972057250188
C          187.28434175798793        0.05753046970938        0.06055860889285
C          188.62621412772455        0.05774422740630        0.06027752726198
C          189.85766608495325        0.05664238879279        0.06059207673997
C          191.19486137510603        0.05723190962951        0.06115729972303
C          192.42631049694802        0.05471186953259        0.06121250435327
C          193.76817759328253        0.05897381766573        0.06167231000722
C          194.99357269362611        0.05807029450082        0.06720831298076
C          204.67336560025623        0.06168039324996        0.07539451193680
C          205.89871459798860        0.05975296913761        0.07876125306025
C          207.24053240207672        0.05878782163122        0.07823216724524
C          208.47192612306620        0.05667692018767        0.07995796273448
C          209.80907161954403        0.05587638176126        0.08159816361639
C          211.04046116255859        0.05380233208658        0.08648830662319
C          212.38229889807789        0.05110847625172        0.08563854773320
C          213.60761916338896        0.04920964200434        0.08934791485331
C          223.28363671370715       -0.00906489466270        0.04455625511057
C          224.50842633986861       -0.02224441710367        0.03586284467278
C          225.85091900624306       -0.02891014939532        0.02409058009455
C          227.08170183492894       -0.03608944451287        0.01230114206640
C          228.41965042553554       -0.03666658916190        0.00228195513071
C          229.65039510966176       -0.03495930497513       -0.00337648253555
C          230.99320022659288       -0.02985327828114       -0.00764990269032
C          232.21780076101061       -0.01871156932413       -0.00919466355462
C          121.93973936511628        0.10614131198900        0.05254701049128
C          122.56915115434438        1.04208392318463       -0.79074421797831
C          121.92355524928264        1.95484188872696       -1.66424331174230
C          122.89039573072030        2.69134607969136       -2.29220875916626
C          124.15520749166667        2.25461253194672       -1.81195681718679
N          123.91046783278648        1.25038470764324       -0.91439417352715
C          125.41638026084983        2.73239093035409       -2.18966977316154
C          126.64173458783176        2.24551446511122       -1.73159110081746
C          127.92667626548025        2.81127118647993       -2.10300598312386
C          128.86485603495598        2.07673433421144       -1.47060567828007
N          126.82009286292590        1.20320234020364       -0.87384888680703
C          128.15149430112714        1.07150573352381       -0.70767801760862
C          128.80769696198089        0.10242509329669        0.07849907766193
C          128.17795224813977       -0.87427515430195        0.87468167120846
C          128.82358639792409       -1.87156001646364        1.65023831880688
C          127.85655392947628       -2.60401168283061        2.28273406543061
C          126.59149043443615       -2.06810170555222        1.91737312504541
C          125.33048203922620       -2.51562132451038        2.33000911345425
C          125.31462075840827       -3.64041105097147        3.29666395949302
C          124.71671456129772       -4.85654398565204        2.95562494251071
C          124.70428460695470       -5.90496193425989        3.85691354832218
C          125.28458676484252       -5.75575651235036        5.11797307541701
C          125.24325277539900       -6.90750691659764        6.05087178532176
O          125.82495240663960       -6.66072068458717        7.23426242130525
O          124.74204831575776       -7.97252822798337        5.79452627194857
C          125.88064588253977       -4.54285565595313        5.46429281702506
C          125.89715601323884       -3.49665333408207        4.55840936438666
C          124.10470577176909       -1.99507251891453        1.91082904585320
C          122.81919851565705       -2.45125891287130        2.40944706710557
C          121.88113457020125       -1.72077727371293        1.77233777587571
C          122.59499345472742       -0.81424409537445        0.89490322972607
N          123.92704674972208       -0.99321592565983        1.00667257761452
N          126.83659479770894       -1.03121572512537        1.05739855224940
C          125.43086623149435        3.85226465201440       -3.16200549126843
C          124.83963343397353        5.07702377803927       -2.84076577667060
C          124.85398110642055        6.11867638138932       -3.74996452708676
C          125.45437050002624        5.95366975089797       -4.99954150782192
C          125.43964443460061        7.09824544881926       -5.94197391683272
O          126.04341487237716        6.83851669486891       -7.11133309864712
O          124.93938252884097        8.16812024771171       -5.70432934496897
C          126.04439973117655        4.73223564097138       -5.32588035836992
C          126.03364465068913        3.69278935278248       -4.41232924845472
H          120.85590890661574        2.02798564006807       -1.79388803950562
H          122.74225560043038        3.46263083752562       -3.03015954618497
H          124.62927441373137        0.73313962614228       -0.41940348374625
H          128.06914282722352        3.66309848335989       -2.74790571224234
H          129.93697306693721        2.18842893850271       -1.49451572666448
H          129.89142261745968       -2.00766959112347        1.70713956256074
H          128.00454711652307       -3.44744856797730        2.93707393130389
H          124.27587291118657       -4.97779245092472        1.97276006557978
H          124.24657638731664       -6.85312998284857        3.59699062608283
H          125.75517898955053       -7.45841813728374        7.78350782718274
H          126.32861990452164       -4.42115025743317        6.44339830626728
H          126.34870938546088       -2.54994074869754        4.83299410413399
H          122.67608579035605       -3.21609691799340        3.15528194253521
H          120.80870681226966       -1.76529349209580        1.87408345037139
H          126.11773374958052       -0.46710371843893        0.61663180606572
H          124.38432402560811        5.21181118576977       -1.86616433071467
H          124.40209406341015        7.07361021326368       -3.50498590846439
H          125.99116572245188        7.63263797301171       -7.66765143137731
H          126.50876948947374        4.59876301769736       -6.29575388357109
H          126.48110883140490        2.73966077847650       -4.67045039505711
C          140.54989217892495        0.07096103922857        0.07223741815320
C          141.17661164031239        0.99603085334471       -0.78574029479011
C          140.52818293908939        1.90072444029191       -1.66523869041607
C          141.49314633309842        2.63003579527519       -2.30463810619142
C          142.75949535787200        2.19695861603884       -1.82539630433602
N          142.51750274143896        1.20111165074377       -0.91760116375595
C          144.01928284589607        2.67247168286853       -2.21066689841048
C          145.24674021819956        2.19091045761506       -1.75252389043950
C          146.52950972240208        2.75716954256136       -2.13061119136509
C          147.47092384898775        2.02872226377246       -1.49593713475771
N          145.42958167641527        1.15416676779561       -0.88898135426948
C          146.76176827757658        1.02626642872215       -0.72562892363820
C          147.42187365519521        0.06169538176716        0.06286626089109
C          146.79498326957983       -0.91325952158486        0.86365287235943
C          147.44302527680424       -1.90966914802738        1.63810452406641
C          146.47795860864846       -2.64031038341396        2.27587221981863
C          145.21192279022819       -2.10337702389234        1.91571650062577
C          143.95230522505165       -2.54680771241657        2.33764631505794
C          143.94031539933547       -3.66982781659160        3.30646632816307
C          143.33626331917429       -4.88460529825468        2.97142626752172
C          143.32767192841672       -5.93197052871521        3.87396487236552
C          143.91811113131882       -5.78305715259303        5.13034350727150
C          143.88071459913652       -6.93374024894695        6.06474423048344
O          144.47418636709730       -6.68815785679876        7.24248083755655
O          143.37283541531039       -7.99694993062930        5.81402175131907
C          144.52013608150608       -4.57143913521207        5.47077530731704
C          144.53265023382897       -3.52624369938822        4.56364837824109
C          142.72486734703369       -2.02410611114219        1.92668697796068
C          141.44239479115541       -2.47331787692948        2.43912788938995
C          140.50103583755742       -1.74256971306463        1.80705768493768
C          141.20996501634087       -0.84368232559488        0.91796411122388
N          142.54209663047766       -1.02604374979461        1.01884627222550
N          145.45423484102770       -1.06857442691000        1.05251213096370
C          144.02992081920431        3.78550451844524       -3.19090625107136
C          143.43843755948816        5.01190532360680       -2.87645417371836
C          143.44969732763974        6.04742918143309       -3.79266486410148
C          144.04723577788732        5.87453115291352       -5.04253188553291
C          144.02944691311703        7.01286920815073       -5.99249429371678
O          144.63150683555011        6.74616619598746       -7.16112272931407
O          143.52825503656632        8.08363941229526       -5.76097105372302
C          144.63745553191092        4.65141230860098       -5.36211855290071
C          144.62977451879402        3.61809878372628       -4.44159483287890
H          139.46006740957847        1.97390121752282       -1.79090297009482
H          141.34252851855726        3.39424367253775       -3.04941487580899
H          143.23768541354610        0.68799175402018       -0.42032293706793
H          146.66850337882204        3.60537551434386       -2.78101085423066
H          148.54272720278524        2.14263037624751       -1.52319756334377
H          148.51095339947463       -2.04686378373377        1.69044046067486
H          146.62812001217640       -3.48296652918523        2.93071495907601
H          142.88756066544815       -5.00562242420018        1.99209267585294
H          142.86530300134180       -6.87911763700757        3.61860501721646
H          144.40660124171433       -7.48511142680883        7.79308311413585
H          144.97587844799497       -4.44992543733221        6.44631187734294
H          144.98882279472272       -2.58047917098050        4.83381377345433
H          141.30350106470385       -3.23380001722432        3.19020729843263
H          139.42942062252703       -1.78278650447439        1.91878478590216
H          144.73420040738273       -0.50430821530045        0.61386870666344
H          142.98548253803804        5.15289593071300       -1.90163421368578
H          142.99765466908264        7.00363067581322       -3.55297937121131
H          144.57750571433888        7.53656426204788       -7.72256128702282
H          145.09963816948775        4.51183692836157       -6.33217638853099
H          145.07749838229867        2.66365443515325       -4.69434327550912
C          159.16448789764382        0.06021452346779        0.06197379527443
C          159.79135421009059        0.98660085839683       -0.79451087968794
C          159.14338234014002        1.89089020921609       -1.67477216469781
C          160.10857481714149        2.62197592704656       -2.31179024141138
C          161.37464544218037        2.19044318382947       -1.83033625016367
N          161.13222561812216        1.19371830040225       -0.92356929060975
C          162.63437945585667        2.66798446187210       -2.21319594011554
C          163.86204323728029        2.18801515523343       -1.75377188044025
C          165.14439817794667        2.75630676453939       -2.13029426790988
C          166.08627305177598        2.02855315211581       -1.49549506841614
N          164.04554056340351        1.15097939601421       -0.89078197277689
C          165.37781680316681        1.02468566145766       -0.72645001192125
C          166.03834526032188        0.06043395194093        0.06205313586180
C          165.41140634445469       -0.91483574058016        0.86241969140900
C          166.05933216036971       -1.91045364220757        1.63792420457940
C          165.09408558382063       -2.64144185656029        2.27503036581495
C          163.82804458110849       -2.10563072975677        1.91320234948658
C          162.56835075826510       -2.55026431852478        2.33379908677270
C          162.55701953721913       -3.67265347927170        3.30340306229401
C          161.95595330964980       -4.88890451247779        2.96839681620974
C          161.94865238461443       -5.93576649252037        3.87154175620119
C          162.53743896534465       -5.78487190747557        5.12845458419898
C          162.50182135841879       -6.93521110720120        6.06336566012086
O          163.09404700037175       -6.68785452284149        7.24134467855144
O          161.99631294314162       -7.99957969937480        5.81278409229236
C          163.13636700563094       -4.57172474141967        5.46889792098951
C          163.14757113995694       -3.52702278649694        4.56119253307416
C          161.34066804151118       -2.02983457249810        1.92083853955475
C          160.05824815175816       -2.48128820434931        2.43149525205614
C          159.11644025338620       -1.75283790908891        1.79746279172976
C          159.82499324384236       -0.85297030579454        0.90904367250715
N          161.15730691283082       -1.03261932278837        1.01211737315900
N          164.07054001265595       -1.07101157981059        1.04989130309634
C          162.64507769211588        3.78168544383232       -3.19273359006585
C          162.05217396611206        5.00735585906628       -2.87816154708242
C          162.06414163689354        6.04368181855116       -3.79346815046926
C          162.66381309971496        5.87231010984567       -5.04251837093325
C          162.64703396217013        7.01158614799178       -5.99140103542343
O          163.25157085867119        6.74646983290319       -7.15909518844992
O          162.14462470857598        8.08175480829395       -5.75976398943574
C          163.25527458372147        4.64984653574228       -5.36229990220465
C          163.24686320819166        3.61572749045619       -4.44268800488758
H          158.07541243614642        1.96258543685935       -1.80252031124403
H          159.95836117349990        3.38644050713208       -3.05638859363056
H          161.85204244607530        0.68126990154543       -0.42507201352137
H          165.28285756921201        3.60521601593801       -2.77988592743155
H          167.15794890127492        2.14388897673090       -1.52176615552609
H          167.12730203977583       -2.04684413113627        1.69148605351775
H          165.24416867404528       -3.48368383370797        2.93041779027820
H          161.50867877772399       -5.01149275622710        1.98860582955036
H          161.48869521362889       -6.88408943729920        3.61619202007485
H          163.02788289634859       -7.48471280381235        7.79225929205708
H          163.59080975530256       -4.44867192630545        6.44484703677165
H          163.60144540733896       -2.58012821582724        4.83127257942327
H          159.91967742417390       -3.24164498787370        3.18276246853521
H          158.04472770458506       -1.79518512089022        1.90747191547211
H          163.35069855488979       -0.50738546906581        0.61011234560111
H          161.59763136287893        5.14718576668243       -1.90391391432487
H          161.61110675196849        6.99937818926536       -3.55364270341499
H          163.19819732801039        7.53739893263124       -7.71984909151149
H          163.71907664108716        4.51143658392874       -6.33175126296159
H          163.69566764330625        2.66182118544841       -4.69555007033425
C          177.78115519276366        0.06090561352665        0.06334780565152
C          178.40809175382765        0.98686825013602       -0.79355469308244
C          177.76015991378890        1.89094473983095       -1.67409097484265
C          178.72538104134549        2.62161288423153       -2.31153173575610
C          179.99144764919234        2.19009392545844       -1.83005135685665
N          179.74897317397355        1.19374898813229       -0.92284355154001
C          181.25118305544717        2.66732111214282       -2.21319382040715
C          182.47882345387714        2.18743807745764       -1.75355170955674
C          183.76121534940847        2.75560014688022       -2.13014358969686
C          184.70302323783022        2.02797764651919       -1.49510272251588
N          182.66219971936422        1.15068354154562       -0.89024275339534
C          183.99447233282183        1.02438876782687       -0.72581078989313
C          184.65495307859427        0.06036251233720        0.06295122923069
C          184.02802977057215       -0.91476579923168        0.86348277782097
C          184.67591150368472       -1.91035375017674        1.63903633961336