306
 energy: -477.569318162804 gnorm: 0.000779576451 xtb: 6.5.1 (b24c23e)
Co          49.54789345164526        0.03047313642820       -0.04862303330168
C           46.15552440471409        0.11921308237930       -0.13519748678124
C           46.81957306832540        1.14771828179772        0.49613051991033
C           46.15237084625350        2.24663948448502        1.12630638285889
C           47.11824534119721        3.09212096487379        1.55433359664367
C           48.37271370561134        2.50901687518756        1.17872366095155
N           48.18206403792066        1.30117363568473        0.55685349358342
C           49.58990196916176        3.14597569261411        1.35464135435886
C           49.61010713419751        4.50699988656910        1.96023940484060
C           49.45206633870465        5.63304228683586        1.14713365975369
C           49.25625578660439        5.46808670758879       -0.33641070767232
C           49.47794359655743        6.89859773055622        1.72130609672637
C           49.65704159854671        7.05837220434734        3.09146503717602
C           49.70588693105756        8.43446082056774        3.69864337676923
C           49.81262958577008        5.93037500766181        3.89073930853740
C           49.79109782708177        4.65518436299835        3.33826836126138
C           49.96197237888386        3.43861281207399        4.20838166477910
C           50.78844965487174        2.56918566351743        0.97510729873506
C           52.05468247991683        3.21953509357035        1.12940007007179
C           52.99826269103782        2.32972656266976        0.74133250745564
N           50.95213507391520        1.29857205957849        0.47137734180930
C           52.30497281096471        1.14132216016196        0.35333862006497
C           52.96193526219864       -0.02745631247673       -0.03310762081414
C           52.26973209050366       -1.17947454897644       -0.40796770354287
C           52.92556418363141       -2.39908474748122       -0.76244182645262
C           51.95429869903582       -3.27103335571438       -1.12167807444437
C           50.70937609386606       -2.57540078931046       -0.99248967945727
N           50.91293501604812       -1.29640178328978       -0.52556934749193
C           49.49662498394412       -3.11640823587440       -1.37915473822033
C           49.47360978345534       -4.49524517957086       -1.94290424400450
C           49.66907224019239       -4.69331192961154       -3.31325071516230
C           49.89956114095973       -3.51222965538348       -4.21784190331911
C           49.65084964993358       -5.98475255303428       -3.82501436609719
C           49.44266717038576       -7.08119132632860       -2.99301866857645
C           49.41736865028334       -8.47091087618599       -3.56993980181650
C           49.24788526304521       -6.87178579411879       -1.63259046517263
C           49.26126060791288       -5.58798677129406       -1.09842407654366
C           49.05133575029937       -5.36849375605691        0.37605366050513
C           48.30517400981269       -2.41874136234696       -1.26857475227665
C           47.04191034490673       -2.94617621109556       -1.69353565969999
C           46.10400722397717       -2.03226661925550       -1.35295620598008
C           46.79624892541867       -0.95260583703248       -0.71636979188583
N           48.14927205860490       -1.18266434031281       -0.69475324916328
H           45.07276969640163        0.14996074739548       -0.16776153949164
H           45.08157984763150        2.34065778620846        1.21394046995239
H           47.01282909174628        4.03250912813844        2.07104961203121
H           48.33483015906309        4.91808685029081       -0.53742399116982
H           50.08340727754453        4.90169275683757       -0.76811343735517
H           49.19878298586494        6.43693050297102       -0.83160090297785
H           49.35591194500370        7.77289774081389        1.09025387430947
H           49.32429197491270        8.42229406718371        4.71991205742026
H           50.73811699502659        8.79142441630172        3.72651587900690
H           49.11890764168873        9.14021663601158        3.11045417369387
H           49.95211014159867        6.04577069590796        4.96066216417246
H           50.86389975492844        2.89369082750365        3.92274305437439
H           50.04191260635755        3.71880179065699        5.25828404965855
H           49.11275123778655        2.76345194017645        4.08862246988144
H           52.18539084663048        4.22561632370327        1.49376916049264
H           54.06974320620438        2.44683111462135        0.71973016653677
H           53.99287129912747       -2.54903520251752       -0.73572510518453
H           52.05322175886711       -4.29148297965041       -1.45470619282712
H           49.07039465122870       -2.80669283769629       -4.14005583851065
H           49.99350799114783       -3.82939694628873       -5.25598775516388
H           50.81216399104202       -2.98725010835177       -3.92898872094098
H           49.80321751972687       -6.14018268119487       -4.88811227516571
H           50.25587798277409       -8.61841207610653       -4.25205023117438
H           49.46919870831374       -9.22221445058639       -2.78201916347523
H           48.49438647276070       -8.62567972718834       -4.13301938983265
H           49.08506231625888       -7.72004567175046       -0.97578290422386
H           48.15712765461982       -4.76540501665938        0.54503287498694
H           49.90035852217859       -4.83294656520375        0.80479425367524
H           48.93585090461032       -6.31759362300799        0.89857454821977
H           46.91164731287043       -3.89786002500601       -2.18320000485024
H           45.03615866219874       -2.06989331634978       -1.49921664482009
Co          89.79776878929353        0.01014929898764       -0.10460103458918
C           93.17655488379684       -0.00381762120660       -0.23176829474104
C           92.50767630108322       -1.19131659592508       -0.43914280410699
C           93.15734394694395       -2.44374972763924       -0.68352953853072
C           92.18364614701746       -3.33459282851595       -0.98568973853060
C           90.94123322407387       -2.62096309795078       -0.93773552586420
N           91.14606417499908       -1.32112767199527       -0.54904486141052
C           89.73617584181207       -3.14291151456017       -1.37961759429690
C           89.70237007689602       -4.53076931847023       -1.91912373326464
C           90.02065693078362       -4.76940795091727       -3.25885815264300
C           90.40361642876771       -3.62364135301808       -4.15728682401716
C           89.98004499350314       -6.06976899259650       -3.74920630300369
C           89.62990023944363       -7.13371779012888       -2.92503482348899
C           89.56883253758618       -8.53593943457638       -3.46793236605411
C           89.31566435184462       -6.88410467905265       -1.59257308403526
C           89.34778204071705       -5.59246216838161       -1.08130537372328
C           89.00419371914515       -5.32992405572139        0.36073820073970
C           88.56225624387967       -2.40962952724047       -1.34866950774480
C           87.30985031837488       -2.88913663518895       -1.85009021969275
C           86.37356410510527       -1.97515652463229       -1.49894583282397
N           88.40061171789674       -1.18855339776307       -0.73584436867526
C           87.05542715473690       -0.94597067858695       -0.77803636665483
C           86.39881933213688        0.06352528720838       -0.07196388677359
C           87.09840439309947        1.03921449303360        0.64036485532454
C           86.46333479717288        2.06737501994168        1.40388458298969
C           87.43848833518234        2.92710055501011        1.78502066979357
C           88.66601085569773        2.42178506073956        1.24812381680860
N           88.45107635140718        1.23159460790002        0.59153609211263
C           89.86004925828787        3.12161982740844        1.26862902780696
C           89.88383010336653        4.48624892785088        1.86499171143936
C           89.53573851972179        5.59168427464441        1.08246985747214
C           89.14068908533905        5.39952888032206       -0.35750663325124
C           89.55647290085845        6.86090171469660        1.64715913322561
C           89.91573036553011        7.04540366518420        2.97910299160472
C           89.94429286564019        8.42978579843139        3.56852311356413
C           90.26084523478822        5.93893252787461        3.74710736155900
C           90.24885475472279        4.65954311712735        3.20251592723382
C           90.62244971428815        3.46589151270257        4.04040242685000
C           91.02876533717375        2.59937441977345        0.73772319273283
C           92.27839283802638        3.30131069500581        0.71585906368636
C           93.21338836266686        2.42117378837715        0.28691428856905
C           92.53435646561898        1.18276489285410        0.05009926739689
N           91.18782000690094        1.31583768915169        0.28095141162993
H           94.25908251216745       -0.00589801882322       -0.28009355316768
H           94.22357688153154       -2.59790813934656       -0.63318636729787
H           92.27809082708632       -4.37896700288039       -1.23658309443888
H           91.33651079758705       -3.17103955814224       -3.81508814972478
H           89.63234630905714       -2.85164532421051       -4.13951639301948
H           90.53778121960022       -3.96227127149375       -5.18417719319869
H           90.22616838690159       -6.25464836514582       -4.78978718348886
H           89.91913295491869       -9.25373608560451       -2.72544053396785
H           88.53783242735005       -8.79086459417167       -3.72402671022881
H           90.17726179335146       -8.63302873612705       -4.36717260746807
H           89.04246619932684       -7.70877267847218       -0.94236876297056
H           88.10360787610325       -4.71633006699635        0.42827984431928
H           88.83004696046311       -6.26315566206625        0.89547029258815
H           89.81414204044538       -4.78847702157860        0.85266244199564
H           87.18109694243296       -3.81239420388874       -2.39159012070840
H           85.31181970383443       -1.98954899436154       -1.68594973222604
H           85.40454375292055        2.11607970565440        1.60132350526985
H           87.35104668013993        3.83202699786997        2.36444607492106
H           89.92559381006835        4.86941650575293       -0.89986918500111
H           88.96424861520526        6.35836381992407       -0.84402999848868
H           88.22886686950861        4.80249715662699       -0.42251056249402
H           89.28638127833275        7.71945708954727        1.04089366398371
H           89.08182889215374        9.00822376778503        3.23499231826141
H           89.94222023597324        8.39069970436268        4.65780919431273
H           90.84676053389605        8.95396550195221        3.24595517255128
H           90.54161136344685        6.07264822671717        4.78671950845098
H           91.51636808904586        2.98613448403226        3.63694644137337
H           89.81695384472579        2.72940045912441        4.03334138907066
H           90.81994156274260        3.75983114584181        5.07083196013308
H           92.40427527481044        4.33200756653660        1.00636617353414
H           94.27274454372807        2.57148211635860        0.15145749528341
C           55.58904161358748       -0.05847287946364       -0.03343993121892
C           54.36718517341273       -0.04779321955791       -0.03275763129474
C           56.93890052835290       -0.06755991742558       -0.03304420712157
C           58.16103573508378       -0.07470865647347       -0.03092422260913
C           68.99204135490609        0.02500567904718       -0.03826853833554
C           67.76860654526179        0.00773341688099       -0.03400695982655
C           70.33873489400111        0.03709176108782       -0.03925664456556
C           71.56215117086711        0.04513156387640       -0.04185324915600
C           82.42144348822764        0.10176777117437       -0.04245312389228
C           81.19966853630184        0.09285863439842       -0.03616987494053
C           83.77191050614103        0.10120601533167       -0.05352527273355
C           84.99346181760458        0.08703953412927       -0.06499232597779
Co          62.96631690672355       -0.09104026379750       -0.02079157640610
C           59.56463887303763       -0.07532563446713       -0.02703341837999
C           60.24283414968358        0.39442481358067        1.10110669213438
C           59.58455126377434        0.87679984831820        2.27431742716587
C           60.54007978264625        1.01714370219554        3.22541492995524
C           61.77775460895695        0.62266368356783        2.62502164901186
N           61.59132475819513        0.29871627485486        1.30187655185844
C           62.95934598892570        0.45382959600743        3.32998475094878
C           62.95108031054962        0.65115961735724        4.80568264293381
C           63.32422930654100        1.88333680277260        5.35031420231619
C           63.73556820509401        3.01326303405051        4.44448633118832
C           63.31106699365441        2.05113093982298        6.72989418044464
C           62.93393873153602        1.01104324952730        7.57353556888463
C           62.94441504696719        1.20106478505587        9.06618659454132
C           62.56739516062542       -0.21111962599791        7.01994199053444
C           62.57066357207697       -0.40149403619595        5.64311495484842
C           62.16926669838207       -1.72650679082718        5.05190198520371
C           64.14671801286414        0.10293959808493        2.70943431954362
C           65.38612860045831       -0.07818252183572        3.40189922415795
C           66.34761393799478       -0.19598876279497        2.45353005663928
N           64.34139157496841        0.04379523755592        1.34862955468083
C           65.68992649666467       -0.09199450335703        1.18927393174057
C           66.36846906043256       -0.01044297149203       -0.03173594345592
C           65.68507104533903        0.04682340563076       -1.25101061584863
C           66.33814628990366        0.15163468848652       -2.51789102027473
C           65.37792980544171        0.00235543988096       -3.46269104742481
C           64.14394571988724       -0.19849973427453       -2.76556808018380
N           64.33825365038817       -0.11212603007673       -1.40581057718398
C           62.96404316620357       -0.58028687485986       -3.38130214802442
C           62.95924972594067       -0.79378552284318       -4.85468053167027
C           62.54996771797424        0.23814535441280       -5.70414342898475
C           62.11026175785043        1.55789355205300       -5.12854249130581
C           62.55326178349969        0.03186376570749       -7.07878025368753
C           62.95427032034883       -1.18582254335151       -7.61803776991780
C           62.97283868397263       -1.39267206983129       -9.10836128647952
C           63.35806805874262       -2.20593090826808       -6.76223299736630
C           63.36524179717970       -2.02198195440822       -5.38478954268572
C           63.80411864977122       -3.13020859166673       -4.46522121920623
C           61.78633673344795       -0.76684599891473       -2.67369454944876
C           60.55560231315575       -1.18957727373267       -3.26886346130511
C           59.59710011291222       -1.05092145585003       -2.32006867280766
C           60.24750898332401       -0.54531545067089       -1.15253759875137
N           61.59292598695940       -0.42238778996574       -1.35730360865545
H           58.52466412307609        1.05928425743485        2.34933739441568
H           60.43203806043872        1.34384115582608        4.24704150699145
H           64.65356120959792        2.75514821427624        3.91248002533355
H           63.90930182826040        3.92536767564326        5.01465371023349
H           62.96134359193002        3.20606138156675        3.69976576025703
H           63.59797668021788        3.00820734011866        7.15329069073212
H           63.94365021684579        0.99983870027466        9.45938180720305
H           62.24519527183620        0.51903964106101        9.55025004240689
H           62.67791612330040        2.22525725766173        9.32861575394119
H           62.27292514247871       -1.02857676282867        7.66995728466115
H           61.26045851656323       -1.61498652662404        4.45719934286597
H           62.95418800086583       -2.10335943385399        4.39395060029311
H           61.98451587653827       -2.46150591602093        5.83461487802625
H           65.49115690027634       -0.09758303180531        4.47462160581871
H           67.40962445707372       -0.33082195879151        2.58136716196108
H           67.39693332237948        0.30628762358302       -2.64948652745940
H           65.48075493651315        0.00990832760514       -4.53575802878086
H           61.20174932398034        1.42759365660900       -4.53709492833143
H           61.90914354665367        2.27961021966019       -5.91961020960329
H           62.88133649384154        1.96268331032496       -4.47069650379659
H           62.23685407895401        0.83326095289936       -7.73841471987265
H           62.72017244270533       -2.42315064648861       -9.35980300587667
H           63.97112898800458       -1.18376372317176       -9.49995417138550
H           62.26712094428254       -0.72509297657254       -9.60298442843517
H           63.67088907283534       -3.15971392186645       -7.17435843817560
H           63.99917515090680       -4.04499891348228       -5.02400298626486
H           63.03499650147091       -3.33170506360865       -3.71760483844807
H           64.71581013357324       -2.84365087153000       -3.93714085811427
H           60.45356221151689       -1.53369340239987       -4.28539974263823
H           58.54063690905172       -1.25335169794564       -2.39268906638273
Co          76.37909030866746        0.03636298455335       -0.03505886382990
C           72.96293847956049        0.03692591948345       -0.03986554435594
C           73.64045788002758        0.33223816831482        1.14674313460979
C           72.96924209766242        0.66034163918838        2.36489869296869
C           73.92449063717298        0.74700032502929        3.32142106264003
C           75.17395443109424        0.47578718129586        2.67830338021094
N           74.99058287752293        0.25277442850668        1.33289184336865
C           76.37343875489915        0.36656634940617        3.35989575534497
C           76.36839176117103        0.50931573851208        4.84240114793957
C           76.60011433104000        1.75912260155267        5.42408711307094
C           76.85920971784418        2.95838889127047        4.55178746791683
C           76.58751307995539        1.87975195798141        6.80864615888103
C           76.34794512898844        0.77579764813676        7.62055807490611
C           76.35717622098453        0.91582073922262        9.11875960216238
C           76.12010420534993       -0.46294520706507        7.03003199117928
C           76.12659714730999       -0.60733216157602        5.64769104756435
C           75.87389530164680       -1.94976406670982        5.01507847248636
C           77.57864788710187        0.14251451281365        2.71504731184154
C           78.83101370591426        0.05157969580700        3.40174041667353
C           79.79176613672038       -0.01093544064911        2.44884673523324
N           77.76457324297273        0.09158565862305        1.35343756767693
C           79.12011326571401        0.03319314479040        1.18832840633742
C           79.79485126359427        0.07012684223218       -0.03347686163652
C           79.11768501867709        0.06425668899153       -1.25450868247401
C           79.78704323540009        0.09632438078090       -2.51654879306562
C           78.83153150449117       -0.05231966924621       -3.46527744628155
C           77.58384643570568       -0.17049851930593       -2.77471032805229
N           77.76679141138538       -0.06759720943248       -1.41616506591230
C           76.38430135617186       -0.44399660399354       -3.41187600150677
C           76.38907967544617       -0.64940560810845       -4.88701057474473
C           76.15492776937452        0.43152933613701       -5.74189403833256
C           75.89668292798218        1.80016365075856       -5.17058092255167
C           76.16231070998306        0.22766868732387       -7.11668313899591
C           76.39689831185578       -1.03507268965170       -7.65114621626541
C           76.42202679277430       -1.23862963399759       -9.14186299147251
C           76.62878753689921       -2.10289194106265       -6.79024526731020
C           76.62749597775620       -1.92265189638360       -5.41210308045864
C           76.87893816526598       -3.08235514624394       -4.48581880589275
C           75.18160514015062       -0.52055681715563       -2.73244227862070
C           73.93021002464901       -0.78170636837560       -3.37636717063612
C           72.96986907435485       -0.62868875553784       -2.43352702484257
C           73.64083650170492       -0.28367021002343       -1.21980883557507
N           74.99421716578705       -0.25209373551056       -1.39529514516666
H           71.90351849232501        0.79246301166661        2.45982721818144
H           73.81078423347491        0.96807310253840        4.37030999378545
H           77.77572482497445        2.81571838715572        3.97590080745700
H           76.96240791020929        3.86146018331201        5.15253610642209
H           76.03959078434384        3.09867207754405        3.84478644880163
H           76.76504094643123        2.85009986731690        7.26068716863112
H           77.36890908913273        0.75877061961764        9.50003262374184
H           75.70201485195396        0.17787498940711        9.58224585861564
H           76.03356257099882        1.91307476777669        9.41780698155298
H           75.93224470549734       -1.32948745751549        7.65550227506275
H           74.96509085296367       -1.91757981362199        4.41087803421652
H           76.70166075238382       -2.22220847075515        4.35792328394328
H           75.76004153067301       -2.72266714833088        5.77453569740393
H           78.94262708625699        0.04948738723272        4.47389863618023
H           80.86102306875966       -0.07603427703115        2.57001336136886
H           80.85193229009421        0.20858318607874       -2.64142128092211
H           78.94418061158726       -0.08661934980346       -4.53677712442166
H           74.98851954650954        1.79182605594580       -4.56472576183724
H           75.77927595281962        2.53728033820087       -5.96427775598592
H           76.72383420737651        2.10569806409552       -4.52729151164859
H           75.98066489586219        1.06635954632588       -7.78076175857230
H           76.11007452914120       -2.25055696071787       -9.40131134244616
H           77.43599209531915       -1.08848676705574       -9.51998290831532
H           75.76501170222495       -0.52698743935441       -9.64239740716604
H           76.81192487077028       -3.09150245619934       -7.19831340459986
H           77.00424510310449       -4.00821492824141       -5.04635009260647
H           76.04484928772054       -3.20215464182280       -3.79202023215320
H           77.78062332517646       -2.90629800613253       -3.89600572322736
H           73.81887597687566       -1.03530171060618       -4.41814168836125
H           71.90134130180142       -0.73033193732295       -2.53423210027424
