306
 energy: -476.174707737222 gnorm: 2.346431318130 xtb: 6.5.1 (b24c23e)
Co          49.03377400000000       -0.02630700000000       -0.02379100000000
C           45.65990599999999        0.10621200000000        0.01549200000000
C           46.32862200000000        1.15885100000000        0.49410400000000
C           45.68530500000000        2.34038100000000        1.05688800000000
C           46.63231799999999        3.19284400000000        1.40201300000000
C           47.93276299999999        2.59554800000000        1.07162800000000
N           47.74819600000000        1.30135600000000        0.49920100000000
C           49.12652200000000        3.19308100000000        1.25394400000000
C           49.17207600000000        4.56097500000000        1.83350500000000
C           49.08834300000000        5.69421300000000        0.99030500000000
C           48.95054800000000        5.54376300000000       -0.50272800000000
C           49.13128399999999        6.97949000000000        1.55184400000000
C           49.25088000000000        7.15214900000000        2.93571300000000
C           49.33677800000000        8.53208900000000        3.51918600000000
C           49.35963400000000        6.03053900000000        3.76585800000000
C           49.31282500000000        4.73443500000000        3.23035600000000
C           49.42419000000000        3.54821700000000        4.15285300000000
C           50.41960400000000        2.55363300000000        0.90061600000000
C           51.71174100000000        3.24433300000000        0.97280700000000
C           52.64693999999999        2.38534700000000        0.62478300000000
N           50.55699600000000        1.31833800000000        0.52521400000000
C           51.95919099999999        1.13357500000000        0.32891100000000
C           52.55419000000000       -0.02015600000000       -0.01960500000000
C           51.79694300000000       -1.26211800000000       -0.30723700000000
C           52.35323000000000       -2.46098200000000       -0.43011100000000
C           51.30424900000000       -3.39004900000000       -0.79672200000000
C           50.17286800000000       -2.69969900000000       -0.87320400000000
N           50.39317000000000       -1.32127800000000       -0.56709400000000
C           48.87118399999999       -3.27932100000000       -1.29326300000000
C           48.86070500000000       -4.64142600000000       -1.89158100000000
C           49.09937500000000       -4.80911900000000       -3.27576700000000
C           49.36710200000000       -3.62405200000000       -4.16721800000000
C           49.09607900000000       -6.09904300000000       -3.82783200000000
C           48.85732900000000       -7.22014400000000       -3.02565600000000
C           48.83175500000000       -8.58616600000000       -3.64646800000000
C           48.60820799999999       -7.05253800000000       -1.65800000000000
C           48.61890799999999       -5.77449000000000       -1.07869500000000
C           48.35783000000000       -5.63081200000000        0.39866000000000
C           47.70950900000000       -2.61658000000000       -1.14976400000000
C           46.38951100000000       -3.11215700000000       -1.53256500000000
C           45.52837099999999       -2.18504200000000       -1.16145600000000
C           46.29053000000000       -1.09655300000000       -0.55096000000000
N           47.56380900000000       -1.33758400000000       -0.53789200000000
H           44.57673100000000        0.13156900000000        0.03782000000000
H           44.62221700000000        2.50636100000000        1.17480000000000
H           46.45447600000000        4.16415400000000        1.84528900000000
H           47.99892500000000        5.02437200000000       -0.74088400000000
H           49.80057899999999        4.95180400000000       -0.90228700000000
H           48.94602099999999        6.52809600000000       -1.01715000000000
H           49.07207100000000        7.85147400000000        0.91097900000000
H           48.91291900000000        8.55079600000000        4.54594600000000
H           50.39959999999999        8.85001100000000        3.55987900000000
H           48.76487700000000        9.25666400000000        2.90103500000000
H           49.47899699999999        6.17006200000000        4.83396900000000
H           50.33918500000000        2.96884500000000        3.90865600000000
H           49.48304899999999        3.85856100000000        5.21741800000000
H           48.53489300000000        2.89410400000000        4.03490400000000
H           51.88739300000000        4.27294400000000        1.25932600000000
H           53.70712100000000        2.59711700000000        0.58214700000000
H           53.39883900000000       -2.70813700000000       -0.30628600000000
H           51.43159100000000       -4.44620400000000       -0.99595300000000
H           48.53200300000000       -2.89610600000000       -4.08935000000000
H           49.46292600000000       -3.92352500000000       -5.23237800000000
H           50.31266500000000       -3.13072900000000       -3.85902100000000
H           49.27783800000000       -6.23548600000000       -4.88773300000000
H           49.73270500000000       -8.73020500000000       -4.28085900000000
H           48.82263600000000       -9.38432900000000       -2.87312500000000
H           47.92315900000000       -8.68910800000000       -4.27712900000000
H           48.40935100000000       -7.92141600000000       -1.04175200000000
H           47.40332700000000       -5.08783100000000        0.55910100000000
H           49.18539400000000       -5.06519800000000        0.87587500000000
H           48.28508399999999       -6.61818000000000        0.90211000000000
H           46.14167100000000       -4.04994600000000       -2.01271600000000
H           44.45514900000000       -2.23586400000000       -1.28966200000000
Co          90.31260500000000       -0.01282000000000       -0.01836800000000
C           93.68647199999998       -0.13564000000000       -0.08176800000000
C           93.01775600000001       -1.22656300000000       -0.46518100000000
C           93.66107399999999       -2.46876700000000       -0.87709000000000
C           92.71405999999999       -3.32282900000000       -1.21823700000000
C           91.41361600000000       -2.66309600000000       -1.04311400000000
N           91.59818199999998       -1.33292200000000       -0.56016200000000
C           90.21985700000000       -3.22048900000000       -1.32524500000000
C           90.17430200000000       -4.60878400000000       -1.85407500000000
C           90.25803600000000       -4.84274000000000       -3.24708500000000
C           90.39583100000000       -3.70051000000000       -4.22027300000000
C           90.21509399999999       -6.15894300000000       -3.73172000000000
C           90.09549799999999       -7.24162100000000       -2.85268000000000
C           90.00960000000001       -8.64131800000000       -3.38702600000000
C           89.98674399999999       -7.00701800000000       -1.47714000000000
C           90.03355300000000       -5.70102800000000       -0.96622100000000
C           89.92218799999999       -5.48374300000000        0.52068900000000
C           88.92677399999998       -2.51445400000000       -1.13749400000000
C           87.63463700000000       -3.06283200000000       -1.56359200000000
C           86.69943899999998       -2.20205500000000       -1.22002100000000
N           88.78938299999999       -1.36318500000000       -0.55314900000000
C           87.38718699999998       -1.09395700000000       -0.56688100000000
C           86.79218799999998       -0.02015600000000       -0.01960500000000
C           87.54943500000000        1.07515800000000        0.63268900000000
C           86.99314799999999        2.02530800000000        1.37403100000000
C           88.04213000000000        2.94952100000000        1.75271000000000
C           89.17351100000000        2.50432700000000        1.21957300000000
N           88.95320800000000        1.29775400000000        0.48613800000000
C           90.47519399999999        3.21339100000000        1.31775400000000
C           90.48567300000001        4.61049500000000        1.82904000000000
C           90.24700300000001        5.68981100000000        0.94633200000000
C           89.97927600000000        5.45186200000000       -0.51737800000000
C           90.25029900000000        7.00280800000000        1.44102100000000
C           90.48904899999999        7.25640700000000        2.79602700000000
C           90.51462300000000        8.67191100000000        3.29379500000000
C           90.73816999999998        6.18860000000000        3.66686700000000
C           90.72747099999999        4.86531200000000        3.20005600000000
C           90.98854900000001        3.73882400000000        4.16661900000000
C           91.63686900000000        2.63582000000000        0.96246700000000
C           92.95686700000000        3.25844400000000        1.02934500000000
C           93.81800699999998        2.33252400000000        0.65526300000000
C           93.05584800000000        1.12442600000000        0.34219700000000
N           91.78257000000001        1.28930200000000        0.51850000000000
H           94.76964700000001       -0.16939600000000       -0.08321100000000
H           94.72416100000000       -2.67016900000000       -0.90691900000000
H           92.89190300000000       -4.33060300000000       -1.57084100000000
H           91.34745300000000       -3.16084400000000       -4.03253300000000
H           89.54580000000000       -2.99673600000000       -4.09875800000000
H           90.40035699999999       -4.05463900000000       -5.27295200000000
H           90.27430699999999       -6.34446400000000       -4.79785600000000
H           90.43346000000000       -9.36567000000000       -2.65908400000000
H           88.94677799999998       -8.89889700000000       -3.57776900000000
H           90.58150200000000       -8.73619600000000       -4.33471700000000
H           89.86738200000001       -7.84717800000000       -0.80300400000000
H           89.00719299999999       -4.89661400000000        0.74559600000000
H           89.86332999999999       -6.44471000000000        1.07400200000000
H           90.81148499999999       -4.93008700000000        0.88843900000000
H           87.45898600000000       -4.00342500000000       -2.06898100000000
H           85.63925800000000       -2.32534700000000       -1.39740100000000
H           85.94753900000001        2.11792300000000        1.63449400000000
H           87.91478700000000        3.84955900000000        2.34015200000000
H           90.81437500000000        4.87267700000000       -0.96516700000000
H           89.88345200000001        6.40539600000000       -1.07864700000000
H           89.03371400000000        4.88251400000000       -0.63652900000000
H           90.06854000000000        7.83506100000000        0.77067800000000
H           89.61367400000000        9.21505400000000        2.93575000000000
H           90.52374299999998        8.71244600000000        4.40441600000000
H           91.42321900000000        9.18281700000000        2.90998900000000
H           90.93702800000000        6.38892300000000        4.71308900000000
H           91.94305100000000        3.23594000000000        3.90647000000000
H           90.16098400000000        3.00029700000000        4.11937900000000
H           91.06129399999999        4.10274000000000        5.21348200000000
H           93.20470800000000        4.26755900000000        1.33213400000000
H           94.89122899999998        2.45795700000000        0.59793900000000
C           55.81555000000000       -0.00772000000000       -0.01716300000000
C           54.56328000000000       -0.02690100000000       -0.02151200000000
C           57.12921800000000       -0.00848600000000       -0.01523100000000
C           58.63235199999999       -0.02690100000000       -0.02151200000000
C           68.93592700000001       -0.00772000000000       -0.01716300000000
C           67.68365600000000       -0.02690100000000       -0.02151200000000
C           70.24959500000000       -0.00848600000000       -0.01523100000000
C           71.75272800000000       -0.02690100000000       -0.02151200000000
C           82.05630300000000       -0.00772000000000       -0.01716300000000
C           80.80403200000001       -0.02690100000000       -0.02151200000000
C           83.36997100000001       -0.00848600000000       -0.01523100000000
C           84.87310500000000       -0.02690100000000       -0.02151200000000
Co          63.10751399999999       -0.03428000000000       -0.00344900000000
C           59.66165500000000        0.02264400000000        0.02164100000000
C           60.32017700000000        0.18445300000000        1.18439100000000
C           59.67840199999999        0.41873400000000        2.48032300000000
C           60.61846900000000        0.49413800000000        3.39981500000000
C           61.91801700000000        0.31366400000000        2.74699800000000
N           61.73964899999999        0.12070300000000        1.34224400000000
C           63.10302800000000        0.30683300000000        3.38989200000000
C           63.12727900000000        0.47877100000000        4.86655600000000
C           63.28384599999999        1.76804600000000        5.42781700000000
C           63.44478400000000        2.98341100000000        4.55131000000000
C           63.31317899999999        1.91677800000000        6.82282700000000
C           63.16523899999999        0.80756700000000        7.66409300000000
C           63.22853199999999        0.97510100000000        9.15416100000000
C           63.02717400000000       -0.46920900000000        7.10750800000000
C           63.00825700000000       -0.64701800000000        5.71570700000000
C           62.84351099999999       -2.03392200000000        5.15014900000000
C           64.40747100000000        0.13803200000000        2.70316600000000
C           65.68426700000001       -0.00505100000000        3.41223200000000
C           66.63934999999999       -0.08473600000000        2.50953000000000
N           64.57261300000000        0.14743300000000        1.41653700000000
C           65.97927300000001        0.00860800000000        1.21330000000000
C           66.59847499999999        0.02264400000000        0.02164100000000
C           65.86009700000000        0.11431400000000       -1.25866100000000
C           66.42806000000000        0.36799500000000       -2.43078900000000
C           65.39437700000001        0.27088400000000       -3.44112100000000
C           64.26155600000000       -0.03394400000000       -2.81985700000000
N           64.46412100000001       -0.14670700000000       -1.41116900000000
C           62.98291099999999       -0.32147900000000       -3.51383500000000
C           63.01510099999999       -0.56834300000000       -4.98060500000000
C           62.76786700000000        0.49037600000000       -5.88681400000000
C           62.46468800000000        1.88186700000000       -5.39383500000000
C           62.80617600000000        0.24286700000000       -7.26751500000000
C           63.08326399999999       -1.03869100000000       -7.75734900000000
C           63.16765800000000       -1.27904400000000       -9.23609400000000
C           63.35280299999999       -2.07887100000000       -6.86042100000000
C           63.30917600000000       -1.86101600000000       -5.47497100000000
C           63.60416699999999       -3.00405800000000       -4.53809400000000
C           61.80694800000000       -0.38161700000000       -2.86226100000000
C           60.51540599999999       -0.67461000000000       -3.47301300000000
C           59.62406900000000       -0.57434200000000       -2.50921000000000
C           60.33571899999999       -0.22094000000000       -1.27548400000000
N           61.61313900000000       -0.10765500000000       -1.47508300000000
H           58.62006600000000        0.51351800000000        2.68320100000000
H           60.43477500000000        0.65860400000000        4.45377700000000
H           64.40026200000000        2.91435900000000        3.99105000000000
H           63.45583100000000        3.92060800000000        5.14687500000000
H           62.60220100000000        3.04683900000000        3.83151500000000
H           63.44889400000000        2.90012800000000        7.25800200000000
H           64.27367200000000        0.82801200000000        9.49781500000000
H           62.57296200000000        0.23295100000000        9.65768100000000
H           62.88863299999999        1.98964300000000        9.45316500000000
H           62.93649799999999       -1.32724800000000        7.76334100000000
H           61.86770700000000       -2.10961700000000        4.62665000000000
H           63.66211999999999       -2.25118200000000        4.43256100000000
H           62.87353800000000       -2.80846200000000        5.94580100000000
H           65.83683400000000       -0.03783100000000        4.48312200000000
H           67.69504900000000       -0.19207500000000        2.72073900000000
H           67.47299099999999        0.57845500000000       -2.61462300000000
H           65.53461200000000        0.38864400000000       -4.50778100000000
H           61.51449000000000        1.87758000000000       -4.82000500000000
H           62.35944300000000        2.60246700000000       -6.23274300000000
H           63.28679399999999        2.23746600000000       -4.73761500000000
H           62.62405600000000        1.05076300000000       -7.96664800000000
H           62.85786800000000       -2.31727400000000       -9.48188400000000
H           64.21251900000000       -1.12260100000000       -9.57668800000000
H           62.49904900000000       -0.58313700000000       -9.78675300000000
H           63.59633699999999       -3.06245100000000       -7.24522000000000
H           63.68648999999999       -3.96953300000000       -5.08127500000000
H           62.78899999999999       -3.10433400000000       -3.79112200000000
H           64.56327600000000       -2.81606100000000       -4.01206000000000
H           60.30428299999999       -0.91899800000000       -4.50604700000000
H           58.56106900000000       -0.73072500000000       -2.63328600000000
Co          76.22789100000000       -0.03428000000000       -0.00344900000000
C           72.78203200000000        0.02264400000000        0.02164100000000
C           73.44055299999998        0.18445300000000        1.18439100000000
C           72.79877900000000        0.41873400000000        2.48032300000000
C           73.73884499999998        0.49413800000000        3.39981500000000
C           75.03839299999999        0.31366400000000        2.74699800000000
N           74.86002499999998        0.12070300000000        1.34224400000000
C           76.22340500000000        0.30683300000000        3.38989200000000
C           76.24765499999998        0.47877100000000        4.86655600000000
C           76.40422200000000        1.76804600000000        5.42781700000000
C           76.56516099999999        2.98341100000000        4.55131000000000
C           76.43355600000000        1.91677800000000        6.82282700000000
C           76.28561500000001        0.80756700000000        7.66409300000000
C           76.34890799999999        0.97510100000000        9.15416100000000
C           76.14755100000001       -0.46920900000000        7.10750800000000
C           76.12863299999999       -0.64701800000000        5.71570700000000
C           75.96388700000000       -2.03392200000000        5.15014900000000
C           77.52784699999998        0.13803200000000        2.70316600000000
C           78.80464399999998       -0.00505100000000        3.41223200000000
C           79.75972700000000       -0.08473600000000        2.50953000000000
N           77.69298900000000        0.14743300000000        1.41653700000000
C           79.09965000000000        0.00860800000000        1.21330000000000
C           79.71885200000000        0.02264400000000        0.02164100000000
C           78.98047400000000        0.11431400000000       -1.25866100000000
C           79.54843600000000        0.36799500000000       -2.43078900000000
C           78.51475400000000        0.27088400000000       -3.44112100000000
C           77.38193200000001       -0.03394400000000       -2.81985700000000
N           77.58449700000000       -0.14670700000000       -1.41116900000000
C           76.10328800000001       -0.32147900000000       -3.51383500000000
C           76.13547800000001       -0.56834300000000       -4.98060500000000
C           75.88824300000000        0.49037600000000       -5.88681400000000
C           75.58506400000000        1.88186700000000       -5.39383500000000
C           75.92655200000000        0.24286700000000       -7.26751500000000
C           76.20363999999999       -1.03869100000000       -7.75734900000000
C           76.28803400000000       -1.27904400000000       -9.23609400000000
C           76.47317900000000       -2.07887100000000       -6.86042100000000
C           76.42955300000000       -1.86101600000000       -5.47497100000000
C           76.72454300000000       -3.00405800000000       -4.53809400000000
C           74.92732399999998       -0.38161700000000       -2.86226100000000
C           73.63578200000001       -0.67461000000000       -3.47301300000000
C           72.74444599999998       -0.57434200000000       -2.50921000000000
C           73.45609600000000       -0.22094000000000       -1.27548400000000
N           74.73351500000000       -0.10765500000000       -1.47508300000000
H           71.74044200000000        0.51351800000000        2.68320100000000
H           73.55515100000000        0.65860400000000        4.45377700000000
H           77.52063800000001        2.91435900000000        3.99105000000000
H           76.57620700000000        3.92060800000000        5.14687500000000
H           75.72257700000000        3.04683900000000        3.83151500000000
H           76.56926999999999        2.90012800000000        7.25800200000000
H           77.39404800000000        0.82801200000000        9.49781500000000
H           75.69333800000000        0.23295100000000        9.65768100000000
H           76.00900900000001        1.98964300000000        9.45316500000000
H           76.05687399999999       -1.32724800000000        7.76334100000000
H           74.98808300000000       -2.10961700000000        4.62665000000000
H           76.78249599999998       -2.25118200000000        4.43256100000000
H           75.99391500000000       -2.80846200000000        5.94580100000000
H           78.95721000000000       -0.03783100000000        4.48312200000000
H           80.81542600000000       -0.19207500000000        2.72073900000000
H           80.59336800000000        0.57845500000000       -2.61462300000000
H           78.65498899999999        0.38864400000000       -4.50778100000000
H           74.63486600000000        1.87758000000000       -4.82000500000000
H           75.47981999999999        2.60246700000000       -6.23274300000000
H           76.40717100000001        2.23746600000000       -4.73761500000000
H           75.74443199999999        1.05076300000000       -7.96664800000000
H           75.97824400000000       -2.31727400000000       -9.48188400000000
H           77.33289499999999       -1.12260100000000       -9.57668800000000
H           75.61942500000001       -0.58313700000000       -9.78675300000000
H           76.71671300000000       -3.06245100000000       -7.24522000000000
H           76.80686700000000       -3.96953300000000       -5.08127500000000
H           75.90937700000001       -3.10433400000000       -3.79112200000000
H           77.68365300000001       -2.81606100000000       -4.01206000000000
H           73.42465900000001       -0.91899800000000       -4.50604700000000
H           71.68144499999998       -0.73072500000000       -2.63328600000000
306
 energy: -476.972382605286 gnorm: 0.774365518120 xtb: 6.5.1 (b24c23e)
Co          49.03633920520387       -0.02485735647178       -0.02349983310540
C           45.66055922997008        0.09661944261389        0.01086687193013
C           46.33446162887853        1.15990951255959        0.49453987398242
C           45.68448180817809        2.33654989652702        1.05521155029779
C           46.63787734197233        3.19418457816169        1.40232843778435
C           47.93158169548941        2.58992457159817        1.06955555518558
N           47.74154260464173        1.30616920367808        0.50213272575926
C           49.13640257115546        3.19191493787172        1.25270235986506
C           49.17361216603916        4.56398754585440        1.83444797108663
C           49.08849118754421        5.69490766273669        0.99256192187855
C           48.95061814310522        5.54335105759121       -0.50365807803368
C           49.13117038069593        6.97692542141428        1.55342857440288
C           49.25182608115428        7.15059921994704        2.93493016004183
C           49.33585480863369        8.53376690450603        3.51998773931631
C           49.35895566832245        6.02987223680290        3.76297416287932
C           49.31289655571147        4.73649807036423        3.22921968810912
C           49.42411158412718        3.54724682294543        4.15314830785232
C           50.41365793082691        2.56228659529928        0.90432501679990
C           51.70416452631238        3.24922697782561        0.97544943621842
C           52.64771987369485        2.38086473420537        0.62335407995259
N           50.56055357913888        1.31227420621042        0.52071173227763
C           51.96401397107413        1.13247456544405        0.32848865637695
C           52.56782855066312       -0.02825611124965       -0.02040348613902
C           51.79587140293621       -1.24869211325077       -0.30717464226775
C           52.35403794122955       -2.47452860310910       -0.43327583868958
C           51.31751504759770       -3.39155458122349       -0.79549257433133
C           50.16248526532661       -2.69048993350576       -0.87437148943464
N           50.39403172882530       -1.32202848334572       -0.56361594542105
C           48.87938542622632       -3.27622868149209       -1.29127083544681
C           48.86282556827020       -4.64360679059260       -1.89189193479863
C           49.09936761221663       -4.81096105044613       -3.27461728419151
C           49.36704511854298       -3.62303388609509       -4.16752550061753
C           49.09554243155775       -6.09822523043965       -3.82485426350289
C           48.85667244061241       -7.21877989231727       -3.02459285991402
C           48.83226147133206       -8.58799425957976       -3.64692484113716
C           48.60890579656196       -7.04990904009733       -1.65957183786837
C           48.61907044417811       -5.77477282490644       -1.08089327250228
C           48.35798624512385       -5.63039922629287        0.39964407848329
C           47.70906202581978       -2.61453008392612       -1.14909209266922
C           46.39477977669812       -3.11310895310519       -1.53238645180867
C           45.52383757693769       -2.17869616754159       -1.15842347985603
C           46.28037494836101       -1.09006542238223       -0.54808079088649
N           47.56905857926641       -1.33945793699657       -0.54040352760178
H           44.57695158022432        0.13020502880103        0.03698597795426
H           44.62231159555374        2.50384409472548        1.17369994338898
H           46.45772194825160        4.16425122219951        1.84525269243620
H           48.00227848540126        5.02537465070825       -0.74075760464137
H           49.79739075256103        4.95297598204125       -0.90151836835366
H           48.94600031804725        6.52483831010414       -1.01487963029082
H           49.07193897335716        7.85072063179392        0.91113304996960
H           48.91490168247481        8.55097848749958        4.54293619706385
H           50.39598429304633        8.84976760838041        3.56010735498051
H           48.76728975181991        9.25473148755872        2.90289647721873
H           49.47872655745277        6.16963228190155        4.83335224330776
H           50.33590345416625        2.96980275468645        3.90942831193743
H           49.48291473226927        3.85793249759789        5.21351886339326
H           48.53816756940145        2.89532561186147        4.03510229214112
H           51.88472532609249        4.27393154543758        1.25991981574837
H           53.70689813742721        2.59398801791627        0.58121380639997
H           53.39895038515467       -2.70948056206562       -0.30646365169496
H           51.43298084043572       -4.44614808523310       -0.99549303717349
H           48.53519697867686       -2.89763450141368       -4.08935738524735
H           49.46261066096967       -3.92294573407396       -5.22845558266084
H           50.30934635246687       -3.13140295295519       -3.85997692721283
H           49.27780350307395       -6.23498095152829       -4.88701832435506
H           49.72934828990055       -8.73017639703989       -4.27945783976761
H           48.82234715150756       -9.38167384484110       -2.87577939887987
H           47.92644566650645       -8.68949816753289       -4.27550160296102
H           48.40961673347605       -7.92067802811993       -1.04189991903869
H           47.40661894466050       -5.08896179601179        0.55927439328212
H           49.18227942710408       -5.06623694523872        0.87477661100811
H           48.28525274224339       -6.61491873794652        0.89982783231248
H           46.14477202790847       -4.04977778756873       -2.01246750259059
H           44.45433062534499       -2.23365538304164       -1.28870459445235
Co          90.31008156783209       -0.01405086931918       -0.01920396195407
C           93.68580881489905       -0.12550599962851       -0.07845847833903