      -----------------------------------------------------------      
     |                   =====================                   |     
     |                           x T B                           |     
     |                   =====================                   |     
     |                         S. Grimme                         |     
     |          Mulliken Center for Theoretical Chemistry        |     
     |                    University of Bonn                     |     
      -----------------------------------------------------------      

   * xtb version 6.5.1 (b24c23e) compiled by 'conda@728c89f4b128' on 2022-07-12

   xtb is free software: you can redistribute it and/or modify it under
   the terms of the GNU Lesser General Public License as published by
   the Free Software Foundation, either version 3 of the License, or
   (at your option) any later version.
   
   xtb is distributed in the hope that it will be useful,
   but WITHOUT ANY WARRANTY; without even the implied warranty of
   MERCHANTABILITY or FITNESS FOR A PARTICULAR PURPOSE.  See the
   GNU Lesser General Public License for more details.
   
   Cite this work as:
   * C. Bannwarth, E. Caldeweyher, S. Ehlert, A. Hansen, P. Pracht,
     J. Seibert, S. Spicher, S. Grimme, WIREs Comput. Mol. Sci., 2020, 11,
     e01493. DOI: 10.1002/wcms.1493
   
   for GFN2-xTB:
   * C. Bannwarth, S. Ehlert and S. Grimme., J. Chem. Theory Comput., 2019,
     15, 1652-1671. DOI: 10.1021/acs.jctc.8b01176
   for GFN1-xTB:
   * S. Grimme, C. Bannwarth, P. Shushkov, J. Chem. Theory Comput., 2017,
     13, 1989-2009. DOI: 10.1021/acs.jctc.7b00118
   for GFN0-xTB:
   * P. Pracht, E. Caldeweyher, S. Ehlert, S. Grimme, ChemRxiv, 2019, preprint.
     DOI: 10.26434/chemrxiv.8326202.v1
   for GFN-FF:
   * S. Spicher and S. Grimme, Angew. Chem. Int. Ed., 2020, 59, 15665-15673.
     DOI: 10.1002/anie.202004239
   
   for ALPB and GBSA implicit solvation:
   * S. Ehlert, M. Stahn, S. Spicher, S. Grimme, J. Chem. Theory Comput.,
     2021, 17, 4250-4261. DOI: 10.1021/acs.jctc.1c00471
   
   for DFT-D4:
   * E. Caldeweyher, C. Bannwarth and S. Grimme, J. Chem. Phys., 2017,
     147, 034112. DOI: 10.1063/1.4993215
   * E. Caldeweyher, S. Ehlert, A. Hansen, H. Neugebauer, S. Spicher,
     C. Bannwarth and S. Grimme, J. Chem. Phys., 2019, 150, 154122.
     DOI: 10.1063/1.5090222
   * E. Caldeweyher, J.-M. Mewes, S. Ehlert and S. Grimme, Phys. Chem. Chem. Phys.
     2020, 22, 8499-8512. DOI: 10.1039/D0CP00502A
   
   for sTDA-xTB:
   * S. Grimme and C. Bannwarth, J. Chem. Phys., 2016, 145, 054103.
     DOI: 10.1063/1.4959605
   
   in the mass-spec context:
   * V. Asgeirsson, C. Bauer and S. Grimme, Chem. Sci., 2017, 8, 4879.
     DOI: 10.1039/c7sc00601b
   * J. Koopman and S. Grimme, ACS Omega 2019, 4, 12, 15120-15133.
     DOI: 10.1021/acsomega.9b02011
   
   for metadynamics refer to:
   * S. Grimme, J. Chem. Theory Comput., 2019, 155, 2847-2862
     DOI: 10.1021/acs.jctc.9b00143
   
   for SPH calculations refer to:
   * S. Spicher and S. Grimme, J. Chem. Theory Comput., 2021, 17, 1701-1714
     DOI: 10.1021/acs.jctc.0c01306
   
   with help from (in alphabetical order)
   P. Atkinson, C. Bannwarth, F. Bohle, G. Brandenburg, E. Caldeweyher
   M. Checinski, S. Dohm, S. Ehlert, S. Ehrlich, I. Gerasimov, C. Hölzer
   A. Katbashev, J. Koopman, C. Lavigne, S. Lehtola, F. März, M. Müller,
   F. Musil, H. Neugebauer, J. Pisarek, C. Plett, P. Pracht, F. Pultar,
   J. Seibert, P. Shushkov, S. Spicher, M. Stahn, M. Steiner, T. Strunk,
   J. Stückrath, T. Rose, and J. Unsleber
   
 * started run on 2022/07/29 at 16:52:27.456     

           -------------------------------------------------
          |                Calculation Setup                |
           -------------------------------------------------

          program call               : xtb Fe_PhCHO_C8_3.xyz --gfn 1 --opt -T 48
          hostname                   : cx3-15-15.cx3.hpc.ic.ac.uk
          coordinate file            : Fe_PhCHO_C8_3.xyz
          omp threads                :                     1

   ID    Z sym.   atoms
    1   26 Fe     1, 61, 137
    2    6 C      2-6, 8-13, 15-19, 21-26, 28-33, 35-40, 62-66, 68-73, 75-79,
                  81-86, 88-93, 95-100, 121-136, 138-142, 144-149, 151-155,
                  157-162, 164-169, 171-176
    3    7 N      7, 20, 27, 41, 67, 80, 87, 101, 143, 156, 163, 177
    4    8 O      14, 34, 74, 94, 150, 170
    5    1 H      42-60, 102-120, 178-195

molecular fragmentation (1/2 indicates fragments):
111111111111111111111111111111111111111111111111111111111111222222222222
222222222222222222222222222222222222222222222222222222222222222222222222
222222222222222222222222222222222222222222222222222
# atoms in fragment 1/2:    60   135
 fragment masses (1/2) :      571.39     1333.94
CMA distance (Bohr)    :  51.056
constraining FC (au)   :  0.0500
########################################################################
[WARNING] Please study the warnings concerning your input carefully
-1- prog_main_parseArguments: Unknown option '-T' provided
########################################################################

           -------------------------------------------------
          |                 G F N 1 - x T B                 |
           -------------------------------------------------

        Reference                      10.1021/acs.jctc.7b00118
      * Hamiltonian:
        H0-scaling (s, p, d)           1.850000    2.250000    2.000000
        zeta-weighting                 0.000000
      * Dispersion:
        s8                             2.400000
        a1                             0.630000
        a2                             5.000000
        s9                             0.000000
      * Repulsion:
        kExp                           1.500000
        rExp                           1.000000
      * Coulomb:
        alpha                          2.000000
        third order                    atomic
        anisotropic                    false
      * Halogen bond correction:
        rad-scale                      1.300000
        damping                        0.440000


          ...................................................
          :                      SETUP                      :
          :.................................................:
          :  # basis functions                 686          :
          :  # atomic orbitals                 683          :
          :  # shells                          393          :
          :  # electrons                       648          :
          :  # halogen bonds                     0          :
          :  max. iterations                   250          :
          :  Hamiltonian                  GFN1-xTB          :
          :  restarted?                      false          :
          :  GBSA solvation                  false          :
          :  PC potential                    false          :
          :  electronic temp.          300.0000000     K    :
          :  accuracy                    1.0000000          :
          :  -> integral cutoff          0.2500000E+02      :
          :  -> integral neglect         0.1000000E-07      :
          :  -> SCF convergence          0.1000000E-05 Eh   :
          :  -> wf. convergence          0.2000000E-04 e    :
          :  Broyden damping             0.4000000          :
          ...................................................

 iter      E             dE          RMSdq      gap      omega  full diag
   1   -325.8087183 -0.325809E+03  0.121E+01    0.01       0.0  T
   2   -149.9531588  0.175856E+03  0.141E+01    0.07       1.0  T
   3   -103.2982738  0.466549E+02  0.111E+01    0.02       1.0  T
   4   1774.7805068  0.187808E+04  0.199E+01    0.02       1.0  T
   5   2254.4120912  0.479632E+03  0.209E+01    0.12       1.0  T
   6    884.9529823 -0.136946E+04  0.160E+01    0.02       1.0  T
   7   -263.8701198 -0.114882E+04  0.867E+00    0.05       1.0  T
   8   -267.3930412 -0.352292E+01  0.748E+00    0.06       1.0  T
   9   -274.2226534 -0.682961E+01  0.734E+00    0.01       1.0  T
  10   -299.6891644 -0.254665E+02  0.566E+00    0.05       1.0  T
  11   -278.6958353  0.209933E+02  0.670E+00    0.04       1.0  T
  12   -249.1618277  0.295340E+02  0.676E+00    0.05       1.0  T
  13   -268.4031527 -0.192413E+02  0.684E+00    0.04       1.0  T
  14   -253.0174003  0.153858E+02  0.676E+00    0.01       1.0  T
  15   -221.5146048  0.315028E+02  0.791E+00    0.04       1.0  T
  16   -201.6222961  0.198923E+02  0.697E+00    0.07       1.0  T
  17   -230.0587759 -0.284365E+02  0.667E+00    0.03       1.0  T
  18   -244.5048883 -0.144461E+02  0.608E+00    0.02       1.0  T
  19   -282.7099061 -0.382050E+02  0.525E+00    0.01       1.0  T
  20   -324.7110217 -0.420011E+02  0.646E+00    0.13       1.0  T
  21   -330.3266642 -0.561564E+01  0.595E+00    0.10       1.0  T
  22   -331.8460685 -0.151940E+01  0.586E+00    0.06       1.0  T
  23   -351.5285902 -0.196825E+02  0.342E+00    0.02       1.0  T
  24   -331.1763029  0.203523E+02  0.579E+00    0.03       1.0  T
  25   -333.7344119 -0.255811E+01  0.553E+00    0.12       1.0  T
  26   -333.4985601  0.235852E+00  0.548E+00    0.04       1.0  T
  27   -340.1504057 -0.665185E+01  0.487E+00    0.06       1.0  T
  28   -349.3993801 -0.924897E+01  0.376E+00    0.03       1.0  T
  29   -343.6462586  0.575312E+01  0.445E+00    0.09       1.0  T
  30   -343.6866449 -0.403863E-01  0.422E+00    0.05       1.0  T
  31   -345.0883170 -0.140167E+01  0.405E+00    0.04       1.0  T
  32   -354.4939728 -0.940566E+01  0.248E+00    0.03       1.0  T
  33   -354.0336708  0.460302E+00  0.249E+00    0.07       1.0  T
  34   -338.9052619  0.151284E+02  0.448E+00    0.05       1.0  T
  35   -349.3653958 -0.104601E+02  0.338E+00    0.04       1.0  T
  36   -346.9273828  0.243801E+01  0.368E+00    0.07       1.0  T
  37   -349.8307617 -0.290338E+01  0.329E+00    0.05       1.0  T
  38   -335.2030379  0.146277E+02  0.471E+00    0.06       1.0  T
  39   -334.7971058  0.405932E+00  0.472E+00    0.01       1.0  T
  40   -347.1731529 -0.123760E+02  0.353E+00    0.04       1.0  T
  41   -354.6064367 -0.743328E+01  0.235E+00    0.03       1.0  T
  42   -353.0847926  0.152164E+01  0.263E+00    0.01       1.0  T
  43   -358.6742976 -0.558951E+01  0.120E+00    0.04       1.0  T
  44   -356.8005552  0.187374E+01  0.182E+00    0.01       1.0  T
  45   -357.1252651 -0.324710E+00  0.164E+00    0.05       1.0  T
  46   -355.1825472  0.194272E+01  0.214E+00    0.02       1.0  T
  47   -359.5807964 -0.439825E+01  0.591E-01    0.01       1.0  T
  48   -356.6044819  0.297631E+01  0.179E+00    0.08       1.0  T
  49   -358.8646381 -0.226016E+01  0.102E+00    0.00       1.0  T
  50   -358.1580657  0.706572E+00  0.126E+00    0.03       1.0  T
  51   -358.8660586 -0.707993E+00  0.101E+00    0.03       1.0  T
  52   -358.0156466  0.850412E+00  0.132E+00    0.02       1.0  T
  53   -359.2500569 -0.123441E+01  0.772E-01    0.00       1.0  T
  54   -359.7568310 -0.506774E+00  0.349E-01    0.02       1.0  T
  55   -359.3921902  0.364641E+00  0.690E-01    0.02       1.0  T
  56   -359.2415301  0.150660E+00  0.799E-01    0.01       1.0  T
  57   -358.9567477  0.284782E+00  0.954E-01    0.01       1.0  T
  58   -358.4310567  0.525691E+00  0.118E+00    0.02       1.0  T
  59   -358.3019705  0.129086E+00  0.123E+00    0.02       1.0  T
  60   -358.9432458 -0.641275E+00  0.947E-01    0.02       1.0  T
  61   -359.7955429 -0.852297E+00  0.253E-01    0.01       1.0  T
  62   -359.6710055  0.124537E+00  0.439E-01    0.00       1.0  T
  63   -359.8392064 -0.168201E+00  0.161E-01    0.01       1.0  T
  64   -359.7652457  0.739607E-01  0.316E-01    0.00       1.0  T
  65   -359.7976818 -0.324361E-01  0.257E-01    0.01       1.0  T
  66   -359.7797751  0.179067E-01  0.289E-01    0.00       1.0  T
  67   -359.7529601  0.268150E-01  0.329E-01    0.00       1.0  T
  68   -359.7973343 -0.443742E-01  0.255E-01    0.01       1.0  T
  69   -359.7950703  0.226397E-02  0.258E-01    0.01       1.0  T
  70   -359.8518846 -0.568143E-01  0.102E-01    0.02       1.0  T
  71   -359.8558752 -0.399058E-02  0.785E-02    0.02       1.0  T
  72   -359.8507613  0.511392E-02  0.105E-01    0.02       1.0  T
  73   -359.8494498  0.131151E-02  0.110E-01    0.02       1.0  T
  74   -359.8533136 -0.386378E-02  0.885E-02    0.02       1.0  T
  75   -359.8572328 -0.391920E-02  0.591E-02    0.02       1.0  T
  76   -359.8540939  0.313887E-02  0.802E-02    0.02       1.0  T
  77   -359.8536991  0.394833E-03  0.796E-02    0.02       1.0  T
  78   -359.8562824 -0.258334E-02  0.606E-02    0.02       1.0  T
  79   -359.8569134 -0.630979E-03  0.510E-02    0.02       1.0  T
  80   -359.8587355 -0.182215E-02  0.257E-02    0.02       1.0  T
  81   -359.8588710 -0.135427E-03  0.206E-02    0.02       1.0  T
  82   -359.8590274 -0.156419E-03  0.129E-02    0.02       1.0  T
  83   -359.8579506  0.107675E-02  0.342E-02    0.02       1.0  T
  84   -359.8584665 -0.515894E-03  0.262E-02    0.02       1.0  T
  85   -359.8587733 -0.306779E-03  0.194E-02    0.02       1.0  T
  86   -359.8590256 -0.252264E-03  0.105E-02    0.02       1.0  T
  87   -359.8590510 -0.253830E-04  0.871E-03    0.02       1.0  T
  88   -359.8590879 -0.369251E-04  0.533E-03    0.02       1.3  T
  89   -359.8591040 -0.161633E-04  0.266E-03    0.02       2.7  T
  90   -359.8590795  0.245176E-04  0.547E-03    0.02       1.3  T
  91   -359.8590984 -0.188412E-04  0.332E-03    0.02       2.2  T
  92   -359.8590975  0.830656E-06  0.340E-03    0.02       2.1  T
  93   -359.8590973  0.183127E-06  0.322E-03    0.02       2.2  T
  94   -359.8591037 -0.639483E-05  0.209E-03    0.02       3.4  T
  95   -359.8591079 -0.415242E-05  0.575E-04    0.02      12.5  T
  96   -359.8591075  0.391791E-06  0.826E-04    0.02       8.7  T
  97   -359.8591066  0.860947E-06  0.126E-03    0.02       5.7  T
  98   -359.8591056  0.104451E-05  0.162E-03    0.02       4.4  T
  99   -359.8591076 -0.197764E-05  0.772E-04    0.02       9.3  T
 100   -359.8591080 -0.416077E-06  0.387E-04    0.02      18.5  T
 101   -359.8591081 -0.761207E-07  0.270E-04    0.02      26.6  T
 102   -359.8591081 -0.461363E-07  0.191E-04    0.02      37.5  T
 103   -359.8591081  0.232171E-08  0.194E-04    0.02      36.9  T

   *** convergence criteria satisfied after 103 iterations ***

         #    Occupation            Energy/Eh            Energy/eV
      -------------------------------------------------------------
         1        2.0000           -0.7927018             -21.5705
       ...           ...                  ...                  ...
       318        1.9979           -0.3883374             -10.5672
       319        1.9976           -0.3882456             -10.5647
       320        1.9951           -0.3875536             -10.5459
       321        1.9943           -0.3874032             -10.5418
       322        1.3959           -0.3826336             -10.4120
       323        1.3852           -0.3826096             -10.4113
       324        1.2196           -0.3822620             -10.4019 (HOMO)
       325        0.8932           -0.3816341             -10.3848 (LUMO)
       326        0.7467           -0.3813460             -10.3770
       327        0.3778           -0.3804535             -10.3527
       328        0.0003           -0.3735291             -10.1642
       329                         -0.3532240              -9.6117
       ...                                ...                  ...
       683                          8.3042446             225.9700
      -------------------------------------------------------------
                  HL-Gap            0.0006279 Eh            0.0171 eV
             Fermi-level           -0.3818379 Eh          -10.3903 eV

 SCC (total)                   0 d,  0 h,  0 min, 14.293 sec
 SCC setup                      ...        0 min,  0.011 sec (  0.074%)
 Dispersion                     ...        0 min,  0.007 sec (  0.046%)
 classical contributions        ...        0 min,  0.002 sec (  0.014%)
 integral evaluation            ...        0 min,  0.202 sec (  1.413%)
 iterations                     ...        0 min, 13.609 sec ( 95.212%)
 molecular gradient             ...        0 min,  0.436 sec (  3.053%)
 printout                       ...        0 min,  0.027 sec (  0.188%)

         :::::::::::::::::::::::::::::::::::::::::::::::::::::
         ::                     SUMMARY                     ::
         :::::::::::::::::::::::::::::::::::::::::::::::::::::
         :: total energy            -352.702672490456 Eh    ::
         :: gradient norm              4.164117427398 Eh/a0 ::
         :: HOMO-LUMO gap              0.017085466168 eV    ::
         ::.................................................::
         :: SCC energy              -359.859108112722 Eh    ::
         :: -> electrostatic           0.485896224285 Eh    ::
         :: repulsion energy           7.328109975610 Eh    ::
         :: dispersion energy         -0.171674353344 Eh    ::
         :: halogen bond corr.         0.000000000000 Eh    ::
         :: add. restraining           0.000000000000 Eh    ::
         :: total charge               0.000000000238 e     ::
         :::::::::::::::::::::::::::::::::::::::::::::::::::::

      ----------------------------------------------------------- 
     |                   =====================                   |
     |                        A N C O P T                        |
     |                   =====================                   |
     |               Approximate Normal Coordinate               |
     |                Rational Function Optimizer                |
      ----------------------------------------------------------- 

          ...................................................
          :                      SETUP                      :
          :.................................................:
          :   optimization level            normal          :
          :   max. optcycles                   585          :
          :   ANC micro-cycles                  20          :
          :   degrees of freedom               579          :
          :.................................................:
          :   RF solver                   davidson          :
          :   write xtbopt.log                true          :
          :   linear?                        false          :
          :   energy convergence         0.5000000E-05 Eh   :
          :   grad. convergence          0.1000000E-02 Eh/α :
          :   maximium RF displ.         1.0000000          :
          :   Hlow (freq-cutoff)         0.1000000E-01      :
          :   Hmax (freq-cutoff)         5.0000000          :
          :   S6 in model hess.         20.0000000          :
          ...................................................

generating ANC from model Hessian ...
Using Lindh-Hessian (1995)
 Shifting diagonal of input Hessian by    1.0054421738142919E-002
 Lowest  eigenvalues of input Hessian
    0.010000    0.010019    0.010036    0.010038    0.010041    0.010047
    0.010050    0.010051    0.000000    0.000000    0.000000    0.000000
    0.000000    0.000000    0.010056    0.010063    0.010079    0.010128
 Highest eigenvalues
    3.015473    3.154912    3.185914    3.240789    4.484146    4.613334


........................................................................
.............................. CYCLE    1 ..............................
........................................................................
   1   -359.8591081 -0.359859E+03  0.272E-05    0.02       0.0  T
   2   -359.8590984  0.977193E-05  0.303E-03    0.02       2.4  T
   3   -359.8591025 -0.412433E-05  0.230E-03    0.02       3.1  T
   4   -359.8591035 -0.101180E-05  0.209E-03    0.02       3.4  T
   5   -359.8591042 -0.653146E-06  0.193E-03    0.02       3.7  T
   6   -359.8591072 -0.306770E-05  0.936E-04    0.02       7.6  T
   7   -359.8591077 -0.456397E-06  0.661E-04    0.02      10.8  T
   8   -359.8591076  0.105690E-06  0.730E-04    0.02       9.8  T
   9   -359.8591076 -0.504893E-07  0.694E-04    0.02      10.3  T
  10   -359.8591081 -0.446991E-06  0.252E-04    0.02      28.4  T
  11   -359.8591081 -0.510515E-07  0.123E-04    0.02      58.0  T
  12   -359.8591081 -0.138471E-07  0.460E-05    0.02     155.6  T
     SCC iter.                  ...        0 min,  1.590 sec
     gradient                   ...        0 min,  0.443 sec
 * total energy  :  -352.7026725 Eh     change       -0.3349072E-07 Eh
   gradient norm :     4.1641177 Eh/α   predicted     0.0000000E+00 (-100.00%)
   displ. norm   :     0.6392285 α      lambda       -0.2606240E+01
   maximum displ.:     0.5046102 α      in ANC's #579, #572, #578, ...

........................................................................
.............................. CYCLE    2 ..............................
........................................................................
   1   -359.6388372 -0.359639E+03  0.602E-01    0.01       0.0  T
   2   -320.2869055  0.393519E+02  0.571E+00    0.27       1.0  T
   3   -351.7712962 -0.314844E+02  0.300E+00    0.02       1.0  T
   4   -356.2448605 -0.447356E+01  0.190E+00    0.03       1.0  T
   5   -334.1335637  0.221113E+02  0.466E+00    0.19       1.0  T
   6   -357.9780504 -0.238445E+02  0.129E+00    0.03       1.0  T
   7   -348.7417769  0.923627E+01  0.323E+00    0.05       1.0  T
   8   -348.3507876  0.390989E+00  0.328E+00    0.05       1.0  T
   9   -351.9095635 -0.355878E+01  0.273E+00    0.03       1.0  T
  10   -359.4715455 -0.756198E+01  0.648E-01    0.01       1.0  T
  11   -353.3882430  0.608330E+01  0.247E+00    0.02       1.0  T
  12   -359.7732298 -0.638499E+01  0.359E-01    0.01       1.0  T
  13   -351.1328272  0.864040E+01  0.287E+00    0.04       1.0  T
  14   -357.0960916 -0.596326E+01  0.161E+00    0.03       1.0  T
  15   -358.7021479 -0.160606E+01  0.106E+00    0.03       1.0  T
  16   -359.6986287 -0.996481E+00  0.449E-01    0.00       1.0  T
  17   -359.7404741 -0.418454E-01  0.403E-01    0.01       1.0  T
  18   -359.3932675  0.347207E+00  0.700E-01    0.00       1.0  T
  19   -359.5758300 -0.182563E+00  0.572E-01    0.01       1.0  T
  20   -358.8383113  0.737519E+00  0.101E+00    0.00       1.0  T
  21   -359.8855895 -0.104728E+01  0.153E-01    0.01       1.0  T
  22   -359.6101815  0.275408E+00  0.538E-01    0.00       1.0  T
  23   -359.7179695 -0.107788E+00  0.431E-01    0.01       1.0  T
  24   -359.8882870 -0.170317E+00  0.144E-01    0.01       1.0  T
  25   -359.8822672  0.601976E-02  0.159E-01    0.01       1.0  T
  26   -359.8965272 -0.142600E-01  0.111E-01    0.02       1.0  T
  27   -359.8758847  0.206425E-01  0.180E-01    0.02       1.0  T
  28   -359.8911923 -0.153076E-01  0.133E-01    0.02       1.0  T
  29   -359.9008702 -0.967789E-02  0.917E-02    0.02       1.0  T
  30   -359.9072563 -0.638610E-02  0.460E-02    0.02       1.0  T
  31   -359.9090618 -0.180553E-02  0.181E-02    0.02       1.0  T
  32   -359.9092406 -0.178815E-03  0.127E-02    0.02       1.0  T
  33   -359.9092621 -0.215091E-04  0.119E-02    0.02       1.0  T
  34   -359.9093545 -0.923433E-04  0.755E-03    0.02       1.0  T
  35   -359.9093800 -0.255048E-04  0.579E-03    0.02       1.2  T
  36   -359.9093975 -0.175397E-04  0.415E-03    0.02       1.7  T
  37   -359.9094155 -0.179341E-04  0.644E-04    0.02      11.1  T
  38   -359.9094156 -0.165423E-06  0.510E-04    0.02      14.0  T
  39   -359.9094159 -0.248602E-06  0.133E-04    0.02      54.0  T
  40   -359.9094158  0.409601E-07  0.238E-04    0.02      30.1  T
  41   -359.9094158  0.154237E-07  0.268E-04    0.02      26.7  T
  42   -359.9094159 -0.431560E-07  0.177E-04    0.02      40.5  T
     SCC iter.                  ...        0 min,  5.562 sec
     gradient                   ...        0 min,  0.439 sec
 * total energy  :  -353.8824970 Eh     change       -0.1179825E+01 Eh
   gradient norm :     0.8666447 Eh/α   predicted    -0.1835593E+01 (  55.58%)
   displ. norm   :     0.5331016 α      lambda       -0.3558240E+00
   maximum displ.:     0.1439971 α      in ANC's #108, #572, #573, ...

........................................................................
.............................. CYCLE    3 ..............................
........................................................................
   1   -359.9068767 -0.359907E+03  0.269E-01    0.03       0.0  T
   2   -352.6955874  0.721129E+01  0.283E+00    0.04       1.0  T
   3   -348.1279226  0.456766E+01  0.331E+00    0.04       1.0  T
   4   -350.7671386 -0.263922E+01  0.291E+00    0.02       1.0  T
   5   -349.6715252  0.109561E+01  0.305E+00    0.02       1.0  T
   6   -359.5069117 -0.983539E+01  0.644E-01    0.00       1.0  T
   7   -358.8852108  0.621701E+00  0.103E+00    0.01       1.0  T
   8   -359.3347915 -0.449581E+00  0.797E-01    0.01       1.0  T
   9   -357.8115766  0.152321E+01  0.143E+00    0.02       1.0  T
  10   -359.8197373 -0.200816E+01  0.384E-01    0.01       1.0  T
  11   -358.5691803  0.125056E+01  0.116E+00    0.01       1.0  T
  12   -359.1675421 -0.598362E+00  0.864E-01    0.01       1.0  T
  13   -357.2518692  0.191567E+01  0.159E+00    0.01       1.0  T
  14   -359.5029788 -0.225111E+01  0.664E-01    0.01       1.0  T
  15   -359.4626497  0.403291E-01  0.683E-01    0.01       1.0  T
  16   -359.4330701  0.295796E-01  0.707E-01    0.01       1.0  T
  17   -359.9633317 -0.530262E+00  0.613E-02    0.01       1.0  T
  18   -359.9507841  0.125475E-01  0.129E-01    0.01       1.0  T
  19   -359.9407311  0.100530E-01  0.160E-01    0.00       1.0  T
  20   -359.9516032 -0.108721E-01  0.124E-01    0.01       1.0  T
  21   -359.9640416 -0.124384E-01  0.586E-02    0.01       1.0  T
  22   -359.9588295  0.521211E-02  0.918E-02    0.01       1.0  T
  23   -359.9641913 -0.536188E-02  0.572E-02    0.01       1.0  T
  24   -359.9637700  0.421305E-03  0.603E-02    0.01       1.0  T
  25   -359.9645181 -0.748075E-03  0.538E-02    0.01       1.0  T
  26   -359.9659789 -0.146082E-02  0.385E-02    0.01       1.0  T
  27   -359.9656020  0.376975E-03  0.427E-02    0.01       1.0  T
  28   -359.9665385 -0.936538E-03  0.305E-02    0.01       1.0  T
  29   -359.9668705 -0.332021E-03  0.246E-02    0.01       1.0  T
  30   -359.9673194 -0.448877E-03  0.131E-02    0.01       1.0  T
  31   -359.9674304 -0.111038E-03  0.778E-03    0.01       1.0  T
  32   -359.9674867 -0.562965E-04  0.214E-03    0.01       3.4  T
  33   -359.9674884 -0.168727E-05  0.180E-03    0.01       4.0  T
  34   -359.9674888 -0.351239E-06  0.176E-03    0.01       4.1  T
  35   -359.9674900 -0.122016E-05  0.141E-03    0.01       5.1  T
  36   -359.9674908 -0.807798E-06  0.112E-03    0.01       6.4  T
  37   -359.9674916 -0.839315E-06  0.651E-04    0.01      11.0  T
  38   -359.9674920 -0.350024E-06  0.282E-04    0.01      25.4  T
  39   -359.9674920 -0.622982E-07  0.135E-04    0.01      53.2  T
  40   -359.9674921 -0.183750E-07  0.171E-05    0.01     419.5  T
     SCC iter.                  ...        0 min,  5.302 sec
     gradient                   ...        0 min,  0.441 sec
 * total energy  :  -354.1360797 Eh     change       -0.2535827E+00 Eh
   gradient norm :     0.4073603 Eh/α   predicted    -0.2284752E+00 (  -9.90%)
   displ. norm   :     0.6766022 α      lambda       -0.1797570E+00
   maximum displ.:     0.2932128 α      in ANC's #108, #165, #160, ...

........................................................................
.............................. CYCLE    4 ..............................
........................................................................
   1   -359.9778224 -0.359978E+03  0.270E-01    0.05       0.0  T
   2   -353.0690023  0.690882E+01  0.283E+00    0.01       1.0  T
   3   -357.8537734 -0.478477E+01  0.148E+00    0.02       1.0  T
   4   -357.4644244  0.389349E+00  0.157E+00    0.02       1.0  T
   5   -348.4808186  0.898361E+01  0.324E+00    0.01       1.0  T
   6   -356.6177739 -0.813696E+01  0.179E+00    0.04       1.0  T
   7   -352.9581674  0.365961E+01  0.256E+00    0.02       1.0  T
   8   -356.7397389 -0.378157E+01  0.175E+00    0.09       1.0  T
   9   -359.6532999 -0.291356E+01  0.600E-01    0.00       1.0  T
  10   -357.6235456  0.202975E+01  0.152E+00    0.00       1.0  T
  11   -359.0273805 -0.140383E+01  0.990E-01    0.01       1.0  T
  12   -358.7782864  0.249094E+00  0.113E+00    0.02       1.0  T
  13   -359.4227046 -0.644418E+00  0.760E-01    0.02       1.0  T
  14   -359.0046846  0.418020E+00  0.993E-01    0.01       1.0  T
  15   -359.8181726 -0.813488E+00  0.453E-01    0.00       1.0  T
  16   -359.9878702 -0.169698E+00  0.218E-01    0.01       1.0  T
  17   -359.8686499  0.119220E+00  0.400E-01    0.00       1.0  T
  18   -360.0335344 -0.164885E+00  0.641E-02    0.02       1.0  T
  19   -359.9685765  0.649579E-01  0.258E-01    0.01       1.0  T
  20   -360.0284007 -0.598241E-01  0.973E-02    0.02       1.0  T
  21   -360.0329558 -0.455511E-02  0.711E-02    0.02       1.0  T
  22   -360.0294819  0.347386E-02  0.912E-02    0.02       1.0  T
  23   -360.0347865 -0.530453E-02  0.557E-02    0.02       1.0  T
  24   -360.0359368 -0.115030E-02  0.424E-02    0.02       1.0  T
  25   -360.0358873  0.494763E-04  0.426E-02    0.02       1.0  T
  26   -360.0373110 -0.142371E-02  0.205E-02    0.02       1.0  T
  27   -360.0375155 -0.204550E-03  0.147E-02    0.02       1.0  T
  28   -360.0374931  0.224696E-04  0.154E-02    0.02       1.0  T
  29   -360.0377102 -0.217093E-03  0.563E-03    0.02       1.3  T
  30   -360.0377122 -0.202325E-05  0.541E-03    0.02       1.3  T
  31   -360.0377301 -0.178990E-04  0.339E-03    0.02       2.1  T
  32   -360.0377418 -0.117253E-04  0.411E-04    0.02      17.4  T
  33   -360.0377413  0.482979E-06  0.816E-04    0.02       8.8  T
  34   -360.0377398  0.153677E-05  0.143E-03    0.02       5.0  T
  35   -360.0377418 -0.199266E-05  0.480E-04    0.02      14.9  T
  36   -360.0377418 -0.490609E-07  0.434E-04    0.02      16.5  T
  37   -360.0377420 -0.173860E-06  0.154E-04    0.02      46.4  T
  38   -360.0377420 -0.228737E-07  0.419E-05    0.02     171.1  T
     SCC iter.                  ...        0 min,  5.039 sec
     gradient                   ...        0 min,  0.442 sec
 * total energy  :  -354.2750563 Eh     change       -0.1389766E+00 Eh
   gradient norm :     0.2306346 Eh/α   predicted    -0.1310241E+00 (  -5.72%)
   displ. norm   :     0.8026229 α      lambda       -0.1275992E+00
   maximum displ.:     0.4133258 α      in ANC's #108, #165, #160, ...

........................................................................
.............................. CYCLE    5 ..............................
........................................................................
   1   -360.0096044 -0.360010E+03  0.197E-01    0.06       0.0  T
   2   -354.7809945  0.522861E+01  0.256E+00    0.06       1.0  T
   3   -356.5180678 -0.173707E+01  0.186E+00    0.04       1.0  T
   4   -357.7654703 -0.124740E+01  0.148E+00    0.02       1.0  T
   5   -353.3178894  0.444758E+01  0.250E+00    0.01       1.0  T
   6   -358.2137741 -0.489588E+01  0.130E+00    0.04       1.0  T
   7   -360.0198651 -0.180609E+01  0.135E-01    0.05       1.0  T
   8   -359.6176349  0.402230E+00  0.692E-01    0.03       1.0  T
   9   -359.5069249  0.110710E+00  0.764E-01    0.03       1.0  T
  10   -357.9433373  0.156359E+01  0.140E+00    0.04       1.0  T
  11   -359.8994726 -0.195614E+01  0.360E-01    0.03       1.0  T
  12   -359.4247431  0.474730E+00  0.765E-01    0.00       1.0  T
  13   -359.4440106 -0.192675E-01  0.748E-01    0.00       1.0  T
  14   -360.0226103 -0.578600E+00  0.130E-01    0.04       1.0  T
  15   -360.0043156  0.182947E-01  0.177E-01    0.03       1.0  T
  16   -359.9844485  0.198671E-01  0.235E-01    0.03       1.0  T
  17   -359.9366522  0.477962E-01  0.312E-01    0.03       1.0  T
  18   -359.9930297 -0.563775E-01  0.210E-01    0.03       1.0  T
  19   -359.9529712  0.400585E-01  0.285E-01    0.03       1.0  T
  20   -359.9660766 -0.131054E-01  0.263E-01    0.03       1.0  T
  21   -359.9729823 -0.690567E-02  0.250E-01    0.03       1.0  T
  22   -359.9828635 -0.988121E-02  0.232E-01    0.03       1.0  T
  23   -360.0176148 -0.347513E-01  0.144E-01    0.04       1.0  T
  24   -360.0328990 -0.152842E-01  0.782E-02    0.04       1.0  T
  25   -360.0382906 -0.539161E-02  0.252E-02    0.04       1.0  T
  26   -360.0388752 -0.584664E-03  0.100E-02    0.04       1.0  T
  27   -360.0388238  0.514527E-04  0.113E-02    0.04       1.0  T
  28   -360.0389081 -0.843066E-04  0.757E-03    0.04       1.0  T
  29   -360.0389514 -0.432935E-04  0.446E-03    0.04       1.6  T
  30   -360.0389581 -0.667752E-05  0.383E-03    0.04       1.9  T
  31   -360.0389731 -0.150516E-04  0.112E-03    0.04       6.4  T
  32   -360.0389744 -0.127152E-05  0.262E-04    0.04      27.3  T
  33   -360.0389743  0.440902E-07  0.336E-04    0.04      21.3  T
  34   -360.0389742  0.159923E-06  0.495E-04    0.04      14.5  T
  35   -360.0389744 -0.245397E-06  0.124E-04    0.04      58.0  T
  36   -360.0389744 -0.946869E-08  0.710E-05    0.04     100.8  T
     SCC iter.                  ...        0 min,  4.788 sec
     gradient                   ...        0 min,  0.442 sec
 * total energy  :  -354.3835169 Eh     change       -0.1084606E+00 Eh
   gradient norm :     0.1523652 Eh/α   predicted    -0.1049002E+00 (  -3.28%)
   displ. norm   :     0.8672160 α      lambda       -0.1002378E+00
   maximum displ.:     0.5189543 α      in ANC's #108, #165, #184, ...

........................................................................
.............................. CYCLE    6 ..............................
........................................................................
   1   -360.0026014 -0.360003E+03  0.195E-01    0.05       0.0  T
   2   -332.4565888  0.275460E+02  0.485E+00    0.00       1.0  T
   3   -345.7625603 -0.133060E+02  0.362E+00    0.03       1.0  T
   4   -358.5557046 -0.127931E+02  0.131E+00    0.01       1.0  T
   5   -352.8933915  0.566231E+01  0.260E+00    0.01       1.0  T
   6   -359.8744777 -0.698109E+01  0.397E-01    0.07       1.0  T
   7   -358.7120427  0.116243E+01  0.116E+00    0.01       1.0  T
   8   -354.7773584  0.393468E+01  0.220E+00    0.01       1.0  T
   9   -358.2060457 -0.342869E+01  0.132E+00    0.01       1.0  T
  10   -357.5052399  0.700806E+00  0.154E+00    0.00       1.0  T
  11   -359.9220278 -0.241679E+01  0.322E-01    0.05       1.0  T
  12   -357.2287837  0.269324E+01  0.162E+00    0.06       1.0  T
  13   -358.0826710 -0.853887E+00  0.136E+00    0.04       1.0  T
  14   -358.6836350 -0.600964E+00  0.112E+00    0.02       1.0  T
  15   -358.5218424  0.161793E+00  0.121E+00    0.01       1.0  T
  16   -359.5903827 -0.106854E+01  0.653E-01    0.03       1.0  T
  17   -359.9504488 -0.360066E+00  0.280E-01    0.05       1.0  T
  18   -359.8182578  0.132191E+00  0.456E-01    0.04       1.0  T
  19   -360.0121889 -0.193931E+00  0.140E-01    0.05       1.0  T
  20   -360.0113262  0.862730E-03  0.142E-01    0.05       1.0  T
  21   -360.0128756 -0.154942E-02  0.140E-01    0.05       1.0  T
  22   -359.9931159  0.197598E-01  0.198E-01    0.04       1.0  T
  23   -359.9880438  0.507206E-02  0.211E-01    0.04       1.0  T
  24   -359.9995915 -0.115477E-01  0.183E-01    0.04       1.0  T
  25   -359.9968626  0.272887E-02  0.191E-01    0.04       1.0  T
  26   -360.0158652 -0.190025E-01  0.133E-01    0.05       1.0  T
  27   -360.0238057 -0.794057E-02  0.985E-02    0.05       1.0  T
  28   -360.0253495 -0.154381E-02  0.896E-02    0.05       1.0  T
  29   -360.0280634 -0.271387E-02  0.720E-02    0.05       1.0  T
  30   -360.0314591 -0.339570E-02  0.410E-02    0.05       1.0  T
  31   -360.0323007 -0.841601E-03  0.278E-02    0.06       1.0  T
  32   -360.0328648 -0.564084E-03  0.145E-02    0.05       1.0  T
  33   -360.0329835 -0.118763E-03  0.915E-03    0.05       1.0  T
  34   -360.0330391 -0.555048E-04  0.556E-03    0.05       1.3  T
  35   -360.0330446 -0.554246E-05  0.506E-03    0.05       1.4  T
  36   -360.0330647 -0.201088E-04  0.259E-03    0.05       2.8  T
  37   -360.0330703 -0.562183E-05  0.117E-03    0.05       6.1  T
  38   -360.0330715 -0.117058E-05  0.487E-04    0.06      14.7  T
  39   -360.0330717 -0.212363E-06  0.159E-04    0.06      45.1  T
  40   -360.0330717 -0.138819E-07  0.107E-04    0.06      67.1  T
     SCC iter.                  ...        0 min,  5.309 sec
     gradient                   ...        0 min,  0.443 sec
 * total energy  :  -354.4645364 Eh     change       -0.8101945E-01 Eh
   gradient norm :     0.1163571 Eh/α   predicted    -0.8781163E-01 (   8.38%)
   displ. norm   :     0.7873398 α      lambda       -0.5954869E-01
   maximum displ.:     0.5311834 α      in ANC's #108, #165, #62, ...

........................................................................
.............................. CYCLE    7 ..............................
........................................................................
   1   -360.0377188 -0.360038E+03  0.166E-01    0.05       0.0  T
   2   -339.3052552  0.207325E+02  0.426E+00    0.03       1.0  T
   3   -345.0600802 -0.575482E+01  0.371E+00    0.02       1.0  T
   4   -358.3801373 -0.133201E+02  0.129E+00    0.07       1.0  T
   5   -355.1524912  0.322765E+01  0.217E+00    0.01       1.0  T
   6   -349.0201322  0.613236E+01  0.316E+00    0.01       1.0  T
   7   -359.8853111 -0.108652E+02  0.416E-01    0.08       1.0  T
   8   -357.4598434  0.242547E+01  0.154E+00    0.02       1.0  T
   9   -353.5682801  0.389156E+01  0.244E+00    0.00       1.0  T
  10   -358.3154464 -0.474717E+01  0.131E+00    0.00       1.0  T
  11   -358.0684002  0.247046E+00  0.135E+00    0.00       1.0  T
  12   -355.2662496  0.280215E+01  0.214E+00    0.02       1.0  T
  13   -357.8320724 -0.256582E+01  0.148E+00    0.03       1.0  T
  14   -359.0986703 -0.126660E+01  0.963E-01    0.01       1.0  T
  15   -359.5665587 -0.467888E+00  0.695E-01    0.02       1.0  T
  16   -359.9496167 -0.383058E+00  0.337E-01    0.04       1.0  T
  17   -360.0515942 -0.101977E+00  0.105E-01    0.05       1.0  T
  18   -360.0436125  0.798169E-02  0.134E-01    0.05       1.0  T
  19   -360.0363710  0.724149E-02  0.151E-01    0.05       1.0  T
  20   -360.0339445  0.242653E-02  0.159E-01    0.04       1.0  T
  21   -359.8903706  0.143574E+00  0.407E-01    0.03       1.0  T
  22   -359.9965984 -0.106228E+00  0.252E-01    0.04       1.0  T
  23   -359.9896560  0.694236E-02  0.266E-01    0.04       1.0  T
  24   -360.0136147 -0.239587E-01  0.218E-01    0.04       1.0  T
  25   -360.0354339 -0.218193E-01  0.160E-01    0.05       1.0  T
  26   -360.0508453 -0.154114E-01  0.997E-02    0.05       1.0  T
  27   -360.0558381 -0.499283E-02  0.673E-02    0.05       1.0  T
  28   -360.0597752 -0.393709E-02  0.189E-02    0.06       1.0  T
  29   -360.0599518 -0.176556E-03  0.957E-03    0.06       1.0  T
  30   -360.0599517  0.693822E-07  0.813E-03    0.06       1.0  T
  31   -360.0599706 -0.188529E-04  0.667E-03    0.06       1.1  T
  32   -360.0599891 -0.185359E-04  0.512E-03    0.06       1.4  T
  33   -360.0600116 -0.224511E-04  0.214E-03    0.06       3.4  T
  34   -360.0600159 -0.434080E-05  0.375E-04    0.06      19.1  T
  35   -360.0600151  0.766709E-06  0.898E-04    0.06       8.0  T
  36   -360.0600132  0.197242E-05  0.164E-03    0.06       4.4  T
  37   -360.0600136 -0.457692E-06  0.151E-03    0.06       4.7  T
  38   -360.0600158 -0.218946E-05  0.481E-04    0.06      14.9  T
  39   -360.0600160 -0.228752E-06  0.881E-05    0.06      81.3  T
  40   -360.0600160  0.935870E-09  0.956E-05    0.06      74.9  T
     SCC iter.                  ...        0 min,  5.313 sec
     gradient                   ...        0 min,  0.446 sec
 * total energy  :  -354.5095694 Eh     change       -0.4503305E-01 Eh
   gradient norm :     0.0981910 Eh/α   predicted    -0.4823183E-01 (   7.10%)
   displ. norm   :     0.7253849 α      lambda       -0.4127559E-01
   maximum displ.:     0.4780816 α      in ANC's #108, #61, #26, ...

........................................................................
.............................. CYCLE    8 ..............................
........................................................................
   1   -360.0936398 -0.360094E+03  0.140E-01    0.08       0.0  T
   2   -356.5096562  0.358398E+01  0.201E+00    0.05       1.0  T
   3   -347.2857447  0.922391E+01  0.342E+00    0.02       1.0  T
   4   -357.3445803 -0.100588E+02  0.163E+00    0.04       1.0  T
   5   -357.9172197 -0.572639E+00  0.146E+00    0.00       1.0  T
   6   -356.4850691  0.143215E+01  0.185E+00    0.05       1.0  T
   7   -359.8340380 -0.334897E+01  0.495E-01    0.03       1.0  T
   8   -356.6763200  0.315772E+01  0.181E+00    0.05       1.0  T
   9   -357.6088418 -0.932522E+00  0.155E+00    0.03       1.0  T
  10   -359.2486969 -0.163986E+01  0.908E-01    0.01       1.0  T
  11   -359.5918148 -0.343118E+00  0.697E-01    0.01       1.0  T
  12   -360.0304799 -0.438665E+00  0.288E-01    0.04       1.0  T
  13   -359.7091120  0.321368E+00  0.614E-01    0.01       1.0  T
  14   -360.0229600 -0.313848E+00  0.302E-01    0.04       1.0  T
  15   -359.9398493  0.831108E-01  0.402E-01    0.03       1.0  T
  16   -360.0616266 -0.121777E+00  0.225E-01    0.04       1.0  T
  17   -360.0661094 -0.448270E-02  0.202E-01    0.04       1.0  T
  18   -360.1057139 -0.396045E-01  0.679E-02    0.05       1.0  T
  19   -360.0951016  0.106123E-01  0.115E-01    0.05       1.0  T
  20   -360.0963672 -0.126567E-02  0.109E-01    0.05       1.0  T
  21   -360.1008906 -0.452334E-02  0.873E-02    0.05       1.0  T
  22   -360.1041886 -0.329798E-02  0.674E-02    0.06       1.0  T
  23   -360.1058956 -0.170706E-02  0.538E-02    0.06       1.0  T
  24   -360.1081880 -0.229240E-02  0.249E-02    0.06       1.0  T
  25   -360.1081997 -0.116864E-04  0.242E-02    0.06       1.0  T
  26   -360.1082715 -0.718030E-04  0.224E-02    0.06       1.0  T
  27   -360.1082999 -0.283923E-04  0.214E-02    0.06       1.0  T
  28   -360.1084662 -0.166297E-03  0.168E-02    0.06       1.0  T
  29   -360.1085775 -0.111292E-03  0.130E-02    0.06       1.0  T
  30   -360.1086364 -0.588930E-04  0.104E-02    0.06       1.0  T
  31   -360.1086533 -0.169365E-04  0.950E-03    0.06       1.0  T
  32   -360.1087009 -0.476084E-04  0.655E-03    0.06       1.1  T
  33   -360.1087338 -0.328608E-04  0.306E-03    0.06       2.3  T
  34   -360.1087414 -0.758937E-05  0.130E-03    0.06       5.5  T
  35   -360.1087430 -0.164043E-05  0.345E-04    0.06      20.8  T
  36   -360.1087431 -0.939771E-07  0.172E-04    0.06      41.5  T
  37   -360.1087431 -0.264916E-07  0.616E-05    0.06     116.3  T
     SCC iter.                  ...        0 min,  4.910 sec
     gradient                   ...        0 min,  0.443 sec
 * total energy  :  -354.5414443 Eh     change       -0.3187488E-01 Eh
   gradient norm :     0.0798403 Eh/α   predicted    -0.3149707E-01 (  -1.19%)
   displ. norm   :     0.7527558 α      lambda       -0.2702841E-01
   maximum displ.:     0.4500960 α      in ANC's #108, #65, #62, ...

........................................................................
.............................. CYCLE    9 ..............................
........................................................................
   1   -360.1575054 -0.360158E+03  0.653E-02    0.08       0.0  T
   2   -356.9198172  0.323769E+01  0.194E+00    0.01       1.0  T
   3   -358.0367145 -0.111690E+01  0.142E+00    0.01       1.0  T
   4   -358.9691423 -0.932428E+00  0.106E+00    0.03       1.0  T
   5   -353.9438351  0.502531E+01  0.242E+00    0.00       1.0  T
   6   -359.3489360 -0.540510E+01  0.849E-01    0.02       1.0  T
   7   -360.1235811 -0.774645E+00  0.187E-01    0.09       1.0  T
   8   -358.9931359  0.113045E+01  0.106E+00    0.02       1.0  T
   9   -360.0772571 -0.108412E+01  0.278E-01    0.04       1.0  T
  10   -359.6164397  0.460817E+00  0.716E-01    0.02       1.0  T
  11   -359.6270649 -0.106252E-01  0.706E-01    0.03       1.0  T
  12   -359.6515274 -0.244625E-01  0.692E-01    0.03       1.0  T
  13   -359.9933476 -0.341820E+00  0.397E-01    0.04       1.0  T
  14   -360.1029598 -0.109612E+00  0.235E-01    0.05       1.0  T
  15   -360.0809292  0.220306E-01  0.278E-01    0.05       1.0  T
  16   -360.1312841 -0.503549E-01  0.172E-01    0.06       1.0  T
  17   -360.1252649  0.601920E-02  0.189E-01    0.05       1.0  T
  18   -360.1404479 -0.151830E-01  0.145E-01    0.06       1.0  T
  19   -360.1383870  0.206088E-02  0.151E-01    0.06       1.0  T
  20   -360.1533176 -0.149306E-01  0.888E-02    0.06       1.0  T
  21   -360.1529028  0.414789E-03  0.905E-02    0.06       1.0  T
  22   -360.1544802 -0.157745E-02  0.815E-02    0.06       1.0  T
  23   -360.1576433 -0.316301E-02  0.597E-02    0.06       1.0  T
  24   -360.1596957 -0.205245E-02  0.395E-02    0.06       1.0  T
  25   -360.1599754 -0.279652E-03  0.359E-02    0.06       1.0  T
  26   -360.1601704 -0.195058E-03  0.326E-02    0.06       1.0  T
  27   -360.1605726 -0.402186E-03  0.248E-02    0.06       1.0  T
  28   -360.1608394 -0.266776E-03  0.178E-02    0.06       1.0  T
  29   -360.1610111 -0.171724E-03  0.106E-02    0.06       1.0  T
  30   -360.1610976 -0.865221E-04  0.318E-03    0.06       2.2  T
  31   -360.1611050 -0.739238E-05  0.702E-04    0.06      10.2  T
  32   -360.1611053 -0.252101E-06  0.553E-04    0.06      12.9  T
  33   -360.1611054 -0.100440E-06  0.386E-04    0.06      18.5  T
  34   -360.1611055 -0.148667E-06  0.666E-05    0.06     107.5  T
  35   -360.1611055 -0.196667E-08  0.509E-05    0.06     140.8  T
     SCC iter.                  ...        0 min,  4.654 sec
     gradient                   ...        0 min,  0.444 sec
 * total energy  :  -354.5621294 Eh     change       -0.2068508E-01 Eh
   gradient norm :     0.0510526 Eh/α   predicted    -0.2117194E-01 (   2.35%)
   displ. norm   :     0.7453426 α      lambda       -0.1751850E-01
   maximum displ.:     0.3682446 α      in ANC's #108, #61, #26, ...

........................................................................
.............................. CYCLE   10 ..............................
........................................................................
   1   -360.1968074 -0.360197E+03  0.786E-02    0.06       0.0  T
   2   -346.9733384  0.132235E+02  0.352E+00    0.01       1.0  T
   3   -357.5436679 -0.105703E+02  0.165E+00    0.02       1.0  T
   4   -358.6819780 -0.113831E+01  0.120E+00    0.00       1.0  T
   5   -357.9011562  0.780822E+00  0.148E+00    0.02       1.0  T
   6   -358.0637235 -0.162567E+00  0.143E+00    0.00       1.0  T
   7   -360.0620147 -0.199829E+01  0.388E-01    0.10       1.0  T
   8   -359.8161235  0.245891E+00  0.598E-01    0.04       1.0  T
   9   -359.8448964 -0.287729E-01  0.588E-01    0.04       1.0  T
  10   -359.9941938 -0.149297E+00  0.438E-01    0.05       1.0  T
  11   -360.1085960 -0.114402E+00  0.296E-01    0.05       1.0  T
  12   -360.1691054 -0.605094E-01  0.183E-01    0.05       1.0  T
  13   -360.1287404  0.403650E-01  0.266E-01    0.04       1.0  T
  14   -360.1913010 -0.625606E-01  0.110E-01    0.06       1.0  T
  15   -360.1929660 -0.166492E-02  0.102E-01    0.05       1.0  T
  16   -360.2025886 -0.962262E-02  0.358E-02    0.06       1.0  T
  17   -360.2037916 -0.120303E-02  0.160E-02    0.06       1.0  T
  18   -360.2039522 -0.160627E-03  0.707E-03    0.06       1.0  T
  19   -360.2038253  0.126906E-03  0.132E-02    0.06       1.0  T
  20   -360.2037164  0.108922E-03  0.165E-02    0.06       1.0  T
  21   -360.2035758  0.140614E-03  0.201E-02    0.06       1.0  T
  22   -360.2036781 -0.102269E-03  0.175E-02    0.06       1.0  T
  23   -360.2037969 -0.118856E-03  0.140E-02    0.06       1.0  T
  24   -360.2038972 -0.100336E-03  0.995E-03    0.06       1.0  T
  25   -360.2039470 -0.497696E-04  0.714E-03    0.06       1.0  T
  26   -360.2039726 -0.256213E-04  0.511E-03    0.06       1.4  T
  27   -360.2039893 -0.166869E-04  0.315E-03    0.06       2.3  T
  28   -360.2039991 -0.974783E-05  0.791E-04    0.06       9.0  T
  29   -360.2039995 -0.429258E-06  0.490E-04    0.06      14.6  T
  30   -360.2039998 -0.255178E-06  0.711E-05    0.06     100.7  T
  31   -360.2039998 -0.497334E-08  0.180E-05    0.06     398.6  T
     SCC iter.                  ...        0 min,  4.115 sec
     gradient                   ...        0 min,  0.443 sec
 * total energy  :  -354.5735762 Eh     change       -0.1144679E-01 Eh
   gradient norm :     0.0486812 Eh/α   predicted    -0.1362534E-01 (  19.03%)
   displ. norm   :     0.6717978 α      lambda       -0.1227945E-01
   maximum displ.:     0.2255533 α      in ANC's #65, #108, #26, ...

........................................................................
.............................. CYCLE   11 ..............................
........................................................................
   1   -360.2284117 -0.360228E+03  0.937E-02    0.07       0.0  T
   2   -346.6277579  0.136007E+02  0.357E+00    0.01       1.0  T
   3   -357.9993211 -0.113716E+02  0.161E+00    0.03       1.0  T
   4   -359.0918083 -0.109249E+01  0.104E+00    0.01       1.0  T
   5   -358.9227485  0.169060E+00  0.112E+00    0.01       1.0  T
   6   -357.6902624  0.123249E+01  0.157E+00    0.01       1.0  T
   7   -359.0910745 -0.140081E+01  0.104E+00    0.01       1.0  T
   8   -354.6752117  0.441586E+01  0.226E+00    0.00       1.0  T
   9   -356.5935921 -0.191838E+01  0.184E+00    0.02       1.0  T
  10   -359.8974664 -0.330387E+01  0.580E-01    0.03       1.0  T
  11   -359.6487082  0.248758E+00  0.741E-01    0.03       1.0  T
  12   -360.2045078 -0.555800E+00  0.178E-01    0.05       1.0  T
  13   -360.2335339 -0.290261E-01  0.590E-02    0.07       1.0  T
  14   -360.2059440  0.275899E-01  0.168E-01    0.05       1.0  T
  15   -360.2232743 -0.173303E-01  0.113E-01    0.06       1.0  T
  16   -360.2360315 -0.127572E-01  0.399E-02    0.06       1.0  T
  17   -360.2355787  0.452825E-03  0.458E-02    0.06       1.0  T
  18   -360.2300843  0.549435E-02  0.868E-02    0.06       1.0  T
  19   -360.2315796 -0.149529E-02  0.780E-02    0.06       1.0  T
  20   -360.2316079 -0.282928E-04  0.777E-02    0.06       1.0  T
  21   -360.2318024 -0.194487E-03  0.764E-02    0.06       1.0  T
  22   -360.2313499  0.452538E-03  0.793E-02    0.06       1.0  T
  23   -360.2308120  0.537889E-03  0.827E-02    0.06       1.0  T
  24   -360.2326019 -0.178993E-02  0.710E-02    0.06       1.0  T
  25   -360.2344673 -0.186542E-02  0.561E-02    0.06       1.0  T
  26   -360.2360445 -0.157721E-02  0.393E-02    0.06       1.0  T
  27   -360.2371174 -0.107285E-02  0.202E-02    0.06       1.0  T
  28   -360.2374372 -0.319812E-03  0.745E-03    0.06       1.0  T
  29   -360.2373081  0.129069E-03  0.129E-02    0.06       1.0  T
  30   -360.2373832 -0.750572E-04  0.102E-02    0.06       1.0  T
  31   -360.2374527 -0.694668E-04  0.643E-03    0.06       1.1  T
  32   -360.2374861 -0.334080E-04  0.317E-03    0.06       2.3  T
  33   -360.2374946 -0.854474E-05  0.143E-03    0.06       5.0  T
  34   -360.2374966 -0.197199E-05  0.424E-04    0.06      16.9  T
  35   -360.2374967 -0.115254E-06  0.258E-04    0.06      27.8  T
  36   -360.2374967 -0.346811E-07  0.182E-04    0.06      39.3  T
  37   -360.2374968 -0.321156E-07  0.495E-05    0.06     144.8  T
     SCC iter.                  ...        0 min,  4.923 sec
     gradient                   ...        0 min,  0.446 sec
 * total energy  :  -354.5804066 Eh     change       -0.6830407E-02 Eh
   gradient norm :     0.0321572 Eh/α   predicted    -0.8910691E-02 (  30.46%)
   displ. norm   :     0.5890011 α      lambda       -0.6389956E-02
   maximum displ.:     0.2276914 α      in ANC's #26, #44, #65, ...

........................................................................
.............................. CYCLE   12 ..............................
........................................................................
   1   -360.2552577 -0.360255E+03  0.770E-02    0.06       0.0  T
   2   -345.6592625  0.145960E+02  0.368E+00    0.01       1.0  T
   3   -357.9216558 -0.122624E+02  0.148E+00    0.00       1.0  T
   4   -359.8788311 -0.195718E+01  0.593E-01    0.01       1.0  T
   5   -360.1340578 -0.255227E+00  0.362E-01    0.10       1.0  T
   6   -354.7668330  0.536722E+01  0.223E+00    0.00       1.0  T
   7   -358.6902638 -0.392343E+01  0.121E+00    0.02       1.0  T
   8   -354.6311705  0.405909E+01  0.228E+00    0.03       1.0  T
   9   -359.4657974 -0.483463E+01  0.877E-01    0.01       1.0  T
  10   -357.7783552  0.168744E+01  0.154E+00    0.01       1.0  T
  11   -360.0637512 -0.228540E+01  0.432E-01    0.08       1.0  T
  12   -360.1445397 -0.807885E-01  0.333E-01    0.05       1.0  T
  13   -359.9777477  0.166792E+00  0.522E-01    0.03       1.0  T
  14   -360.2268232 -0.249075E+00  0.182E-01    0.05       1.0  T
  15   -360.2431685 -0.163453E-01  0.134E-01    0.05       1.0  T
  16   -360.2561226 -0.129541E-01  0.755E-02    0.06       1.0  T
  17   -360.2585118 -0.238922E-02  0.526E-02    0.06       1.0  T
  18   -360.2589150 -0.403189E-03  0.479E-02    0.06       1.0  T
  19   -360.2582612  0.653775E-03  0.539E-02    0.06       1.0  T
  20   -360.2572923  0.968870E-03  0.616E-02    0.06       1.0  T
  21   -360.2561096  0.118273E-02  0.703E-02    0.06       1.0  T
  22   -360.2562892 -0.179585E-03  0.700E-02    0.06       1.0  T
  23   -360.2584716 -0.218240E-02  0.543E-02    0.06       1.0  T
  24   -360.2591758 -0.704232E-03  0.482E-02    0.06       1.0  T
  25   -360.2596540 -0.478210E-03  0.433E-02    0.06       1.0  T
  26   -360.2596375  0.165251E-04  0.435E-02    0.06       1.0  T
  27   -360.2600923 -0.454796E-03  0.380E-02    0.06       1.0  T
  28   -360.2607560 -0.663687E-03  0.277E-02    0.06       1.0  T
  29   -360.2611971 -0.441149E-03  0.180E-02    0.06       1.0  T
  30   -360.2614078 -0.210658E-03  0.106E-02    0.06       1.0  T
  31   -360.2614593 -0.514921E-04  0.775E-03    0.06       1.0  T
  32   -360.2614781 -0.188030E-04  0.635E-03    0.06       1.1  T
  33   -360.2614901 -0.119839E-04  0.528E-03    0.06       1.4  T
  34   -360.2615059 -0.158082E-04  0.345E-03    0.06       2.1  T
  35   -360.2615135 -0.762124E-05  0.208E-03    0.06       3.5  T
  36   -360.2615174 -0.389902E-05  0.645E-04    0.06      11.1  T
  37   -360.2615178 -0.360170E-06  0.246E-04    0.06      29.1  T
  38   -360.2615178 -0.576215E-07  0.101E-04    0.06      70.8  T
  39   -360.2615178 -0.926968E-08  0.425E-05    0.06     168.3  T
     SCC iter.                  ...        0 min,  5.182 sec
     gradient                   ...        0 min,  0.447 sec
 * total energy  :  -354.5831814 Eh     change       -0.2774813E-02 Eh
   gradient norm :     0.0361139 Eh/α   predicted    -0.4303387E-02 (  55.09%)
   displ. norm   :     0.5823411 α      lambda       -0.7454461E-02
   maximum displ.:     0.2563183 α      in ANC's #26, #65, #61, ...

........................................................................
.............................. CYCLE   13 ..............................
........................................................................
   1   -360.2791720 -0.360279E+03  0.965E-02    0.05       0.0  T
   2   -340.7495497  0.195296E+02  0.421E+00    0.08       1.0  T
   3   -360.1480867 -0.193985E+02  0.391E-01    0.12       1.0  T
   4   -358.7394188  0.140867E+01  0.121E+00    0.04       1.0  T
   5   -355.6072873  0.313213E+01  0.210E+00    0.00       1.0  T
   6   -352.7594205  0.284787E+01  0.262E+00    0.04       1.0  T
   7   -349.8895082  0.286991E+01  0.307E+00    0.03       1.0  T
   8   -360.2475811 -0.103581E+02  0.210E-01    0.09       1.0  T
   9   -359.3703127  0.877268E+00  0.939E-01    0.01       1.0  T
  10   -360.1407472 -0.770435E+00  0.376E-01    0.02       1.0  T
  11   -360.0662781  0.744692E-01  0.453E-01    0.01       1.0  T
  12   -360.2790373 -0.212759E+00  0.102E-01    0.05       1.0  T
  13   -360.2206537  0.583837E-01  0.261E-01    0.04       1.0  T
  14   -360.2259891 -0.533545E-02  0.250E-01    0.04       1.0  T
  15   -360.2517277 -0.257386E-01  0.195E-01    0.04       1.0  T
  16   -360.2549484 -0.322072E-02  0.188E-01    0.05       1.0  T
  17   -360.2540366  0.911861E-03  0.191E-01    0.05       1.0  T
  18   -360.2579045 -0.386789E-02  0.178E-01    0.05       1.0  T
  19   -360.2750118 -0.171073E-01  0.115E-01    0.06       1.0  T
  20   -360.2779440 -0.293225E-02  0.102E-01    0.06       1.0  T
  21   -360.2843632 -0.641917E-02  0.625E-02    0.06       1.0  T
  22   -360.2841383  0.224839E-03  0.638E-02    0.06       1.0  T
  23   -360.2880374 -0.389901E-02  0.133E-02    0.06       1.0  T
  24   -360.2880447 -0.739029E-05  0.120E-02    0.06       1.0  T
  25   -360.2879404  0.104379E-03  0.147E-02    0.06       1.0  T
  26   -360.2880577 -0.117316E-03  0.105E-02    0.06       1.0  T
  27   -360.2880934 -0.356779E-04  0.910E-03    0.06       1.0  T
  28   -360.2881008 -0.739470E-05  0.883E-03    0.06       1.0  T
  29   -360.2881368 -0.360304E-04  0.685E-03    0.06       1.0  T
  30   -360.2881671 -0.302949E-04  0.442E-03    0.06       1.6  T
  31   -360.2881868 -0.197048E-04  0.129E-03    0.06       5.5  T
  32   -360.2881887 -0.195797E-05  0.175E-04    0.06      41.0  T
  33   -360.2881887 -0.825753E-08  0.145E-04    0.06      49.5  T
  34   -360.2881888 -0.124692E-07  0.835E-05    0.06      85.8  T
     SCC iter.                  ...        0 min,  4.521 sec
     gradient                   ...        0 min,  0.446 sec
 * total energy  :  -354.5863459 Eh     change       -0.3164506E-02 Eh
   gradient norm :     0.0442359 Eh/α   predicted    -0.4991220E-02 (  57.73%)
   displ. norm   :     0.3845754 α      lambda       -0.3644455E-02
   maximum displ.:     0.1963513 α      in ANC's #26, #16, #65, ...

........................................................................
.............................. CYCLE   14 ..............................
........................................................................
   1   -360.3046116 -0.360305E+03  0.351E-02    0.07       0.0  T
   2   -352.2232154  0.808140E+01  0.276E+00    0.01       1.0  T
   3   -359.5690064 -0.734579E+01  0.913E-01    0.05       1.0  T
   4   -360.2045158 -0.635509E+00  0.312E-01    0.08       1.0  T
   5   -357.9462215  0.225829E+01  0.149E+00    0.00       1.0  T
   6   -360.0805227 -0.213430E+01  0.469E-01    0.08       1.0  T
   7   -359.7513093  0.329213E+00  0.720E-01    0.02       1.0  T
   8   -359.9776833 -0.226374E+00  0.562E-01    0.03       1.0  T
   9   -360.2367288 -0.259045E+00  0.257E-01    0.07       1.0  T
  10   -360.2477446 -0.110158E-01  0.231E-01    0.05       1.0  T
  11   -360.2904692 -0.427246E-01  0.122E-01    0.05       1.0  T
  12   -360.2368671  0.536021E-01  0.252E-01    0.06       1.0  T
  13   -360.2963891 -0.595220E-01  0.946E-02    0.06       1.0  T
  14   -360.3047615 -0.837240E-02  0.294E-02    0.06       1.0  T
  15   -360.3049513 -0.189822E-03  0.268E-02    0.06       1.0  T
  16   -360.3048095  0.141783E-03  0.295E-02    0.06       1.0  T
  17   -360.3054151 -0.605592E-03  0.174E-02    0.06       1.0  T
  18   -360.3054304 -0.152799E-04  0.168E-02    0.06       1.0  T
  19   -360.3054567 -0.262910E-04  0.154E-02    0.06       1.0  T
  20   -360.3055716 -0.114926E-03  0.930E-03    0.06       1.0  T
  21   -360.3055804 -0.872738E-05  0.758E-03    0.06       1.0  T
  22   -360.3056129 -0.325436E-04  0.464E-03    0.06       1.5  T
  23   -360.3056122  0.664472E-06  0.464E-03    0.06       1.5  T
  24   -360.3056130 -0.744730E-06  0.452E-03    0.06       1.6  T
  25   -360.3056212 -0.817113E-05  0.354E-03    0.06       2.0  T
  26   -360.3056257 -0.454896E-05  0.281E-03    0.06       2.5  T
  27   -360.3056317 -0.602486E-05  0.139E-03    0.06       5.2  T
  28   -360.3056335 -0.175228E-05  0.493E-04    0.06      14.5  T
  29   -360.3056337 -0.181115E-06  0.242E-04    0.06      29.6  T
  30   -360.3056337 -0.491535E-07  0.930E-05    0.06      77.0  T
  31   -360.3056337  0.714249E-08  0.123E-04    0.06      58.2  T
     SCC iter.                  ...        0 min,  4.120 sec
     gradient                   ...        0 min,  0.447 sec
 * total energy  :  -354.5883855 Eh     change       -0.2039592E-02 Eh
   gradient norm :     0.0253309 Eh/α   predicted    -0.2091742E-02 (   2.56%)
   displ. norm   :     0.5536495 α      lambda       -0.4085404E-02
   maximum displ.:     0.2899782 α      in ANC's #26, #16, #108, ...

........................................................................
.............................. CYCLE   15 ..............................
........................................................................
   1   -360.3211394 -0.360321E+03  0.165E-02    0.06       0.0  T
   2   -359.3964569  0.924683E+00  0.940E-01    0.02       1.0  T
   3   -360.2872777 -0.890821E+00  0.185E-01    0.08       1.0  T
   4   -359.8246796  0.462598E+00  0.693E-01    0.01       1.0  T
   5   -360.2571684 -0.432489E+00  0.268E-01    0.03       1.0  T
   6   -360.2339033  0.232651E-01  0.283E-01    0.06       1.0  T
   7   -360.2282585  0.564476E-02  0.296E-01    0.07       1.0  T
   8   -360.1618868  0.663718E-01  0.389E-01    0.04       1.0  T
   9   -360.2752254 -0.113339E+00  0.205E-01    0.05       1.0  T
  10   -360.3063519 -0.311265E-01  0.117E-01    0.06       1.0  T
  11   -360.3112532 -0.490131E-02  0.970E-02    0.06       1.0  T
  12   -360.3205468 -0.929359E-02  0.265E-02    0.06       1.0  T
  13   -360.3195832  0.963557E-03  0.402E-02    0.06       1.0  T
  14   -360.3208774 -0.129415E-02  0.194E-02    0.06       1.0  T
  15   -360.3211443 -0.266921E-03  0.108E-02    0.07       1.0  T
  16   -360.3211802 -0.359246E-04  0.914E-03    0.07       1.0  T
  17   -360.3212489 -0.687520E-04  0.424E-03    0.07       1.7  T
  18   -360.3212647 -0.157700E-04  0.175E-03    0.07       4.1  T
  19   -360.3212616  0.315963E-05  0.240E-03    0.07       3.0  T
  20   -360.3212656 -0.401254E-05  0.139E-03    0.07       5.1  T
  21   -360.3212655  0.101837E-06  0.141E-03    0.07       5.1  T
  22   -360.3212662 -0.742885E-06  0.111E-03    0.07       6.5  T
  23   -360.3212668 -0.576985E-06  0.815E-04    0.07       8.8  T
  24   -360.3212669 -0.141045E-06  0.727E-04    0.07       9.8  T
  25   -360.3212674 -0.454175E-06  0.311E-04    0.07      23.0  T
  26   -360.3212675 -0.858839E-07  0.123E-04    0.07      58.2  T
  27   -360.3212675 -0.150895E-07  0.300E-05    0.07     238.8  T
     SCC iter.                  ...        0 min,  3.602 sec
     gradient                   ...        0 min,  0.443 sec
 * total energy  :  -354.5883941 Eh     change       -0.8581498E-05 Eh
   gradient norm :     0.0448369 Eh/α   predicted    -0.2668848E-02 (*******%)
   displ. norm   :     0.2987944 α      lambda       -0.4117257E-02
   maximum displ.:     0.1652331 α      in ANC's #26, #16, #45, ...

........................................................................
.............................. CYCLE   16 ..............................
........................................................................
   1   -360.3272050 -0.360327E+03  0.433E-02    0.06       0.0  T
   2   -358.3783981  0.194881E+01  0.137E+00    0.00       1.0  T
   3   -356.0150267  0.236337E+01  0.204E+00    0.01       1.0  T
   4   -359.7250425 -0.371002E+01  0.754E-01    0.04       1.0  T
   5   -359.8597252 -0.134683E+00  0.664E-01    0.03       1.0  T
   6   -358.7880808  0.107164E+01  0.120E+00    0.01       1.0  T
   7   -356.4761610  0.231192E+01  0.189E+00    0.00       1.0  T
   8   -356.6235136 -0.147353E+00  0.186E+00    0.00       1.0  T
   9   -359.4811116 -0.285760E+01  0.897E-01    0.01       1.0  T
  10   -360.2086648 -0.727553E+00  0.335E-01    0.06       1.0  T
  11   -360.2789754 -0.703106E-01  0.214E-01    0.05       1.0  T
  12   -360.2813772 -0.240185E-02  0.211E-01    0.05       1.0  T
  13   -360.3251317 -0.437545E-01  0.577E-02    0.06       1.0  T
  14   -360.3277693 -0.263757E-02  0.298E-02    0.06       1.0  T
  15   -360.3284518 -0.682521E-03  0.154E-02    0.07       1.0  T
  16   -360.3267012  0.175060E-02  0.438E-02    0.07       1.0  T
  17   -360.3274521 -0.750906E-03  0.354E-02    0.07       1.0  T
  18   -360.3268865  0.565659E-03  0.428E-02    0.07       1.0  T
  19   -360.3261648  0.721674E-03  0.506E-02    0.06       1.0  T
  20   -360.3253682  0.796610E-03  0.580E-02    0.06       1.0  T
  21   -360.3256164 -0.248238E-03  0.557E-02    0.06       1.0  T
  22   -360.3272430 -0.162657E-02  0.380E-02    0.07       1.0  T
  23   -360.3283003 -0.105731E-02  0.192E-02    0.07       1.0  T
  24   -360.3286504 -0.350087E-03  0.357E-03    0.06       2.0  T
  25   -360.3286621 -0.117182E-04  0.534E-04    0.06      13.4  T
  26   -360.3286623 -0.169476E-06  0.319E-04    0.06      22.4  T
  27   -360.3286622  0.819674E-07  0.426E-04    0.06      16.8  T
  28   -360.3286622 -0.387425E-07  0.383E-04    0.06      18.7  T
  29   -360.3286623 -0.716486E-07  0.272E-04    0.06      26.3  T
  30   -360.3286623 -0.327724E-07  0.200E-04    0.06      35.8  T
  31   -360.3286623 -0.641438E-08  0.182E-04    0.06      39.4  T
  32   -360.3286623 -0.175305E-07  0.123E-04    0.06      58.3  T
     SCC iter.                  ...        0 min,  4.260 sec
     gradient                   ...        0 min,  0.443 sec
 * total energy  :  -354.5908477 Eh     change       -0.2453605E-02 Eh
   gradient norm :     0.0187966 Eh/α   predicted    -0.2242422E-02 (  -8.61%)
   displ. norm   :     0.4220478 α      lambda       -0.1782238E-02
   maximum displ.:     0.2669113 α      in ANC's #26, #16, #27, ...

........................................................................
.............................. CYCLE   17 ..............................
........................................................................
   1   -360.3360405 -0.360336E+03  0.159E-02    0.06       0.0  T
   2   -358.5887662  0.174727E+01  0.130E+00    0.00       1.0  T
   3   -360.2460237 -0.165726E+01  0.313E-01    0.11       1.0  T
   4   -360.0522198  0.193804E+00  0.509E-01    0.02       1.0  T
   5   -360.2887963 -0.236577E+00  0.207E-01    0.04       1.0  T
   6   -360.0047788  0.284018E+00  0.546E-01    0.03       1.0  T
   7   -360.2924464 -0.287668E+00  0.208E-01    0.08       1.0  T
   8   -360.2981733 -0.572693E-02  0.190E-01    0.05       1.0  T
   9   -360.3063527 -0.817937E-02  0.166E-01    0.05       1.0  T
  10   -360.3177958 -0.114431E-01  0.130E-01    0.06       1.0  T
  11   -360.3301342 -0.123384E-01  0.761E-02    0.06       1.0  T
  12   -360.3187727  0.113615E-01  0.128E-01    0.06       1.0  T
  13   -360.3251081 -0.633538E-02  0.102E-01    0.06       1.0  T
  14   -360.3338618 -0.875371E-02  0.468E-02    0.06       1.0  T
  15   -360.3361551 -0.229334E-02  0.922E-03    0.07       1.0  T
  16   -360.3361949 -0.398379E-04  0.698E-03    0.06       1.0  T
  17   -360.3362334 -0.384285E-04  0.368E-03    0.06       1.9  T
  18   -360.3362415 -0.811420E-05  0.243E-03    0.06       2.9  T
  19   -360.3362449 -0.340642E-05  0.167E-03    0.06       4.3  T
  20   -360.3362451 -0.202381E-06  0.163E-03    0.06       4.4  T
  21   -360.3362459 -0.847663E-06  0.134E-03    0.06       5.3  T
  22   -360.3362463 -0.328005E-06  0.121E-03    0.06       5.9  T
  23   -360.3362467 -0.403264E-06  0.102E-03    0.06       7.0  T
  24   -360.3362475 -0.859744E-06  0.455E-04    0.06      15.7  T
  25   -360.3362477 -0.174219E-06  0.183E-04    0.06      39.2  T
  26   -360.3362477 -0.249514E-07  0.951E-05    0.06      75.3  T
     SCC iter.                  ...        0 min,  3.457 sec
     gradient                   ...        0 min,  0.447 sec
 * total energy  :  -354.5913363 Eh     change       -0.4885622E-03 Eh
   gradient norm :     0.0209034 Eh/α   predicted    -0.1049853E-02 ( 114.89%)
   displ. norm   :     0.4318248 α      lambda       -0.2288280E-02
   maximum displ.:     0.2564358 α      in ANC's #26, #16, #40, ...

........................................................................
.............................. CYCLE   18 ..............................
........................................................................
   1   -360.3463005 -0.360346E+03  0.243E-02    0.06       0.0  T
   2   -356.9749530  0.337135E+01  0.180E+00    0.00       1.0  T
   3   -359.3818658 -0.240691E+01  0.958E-01    0.03       1.0  T
   4   -359.9546632 -0.572797E+00  0.621E-01    0.07       1.0  T
   5   -360.3270781 -0.372415E+00  0.144E-01    0.04       1.0  T
   6   -360.1909694  0.136109E+00  0.382E-01    0.05       1.0  T
   7   -360.3216961 -0.130727E+00  0.154E-01    0.06       1.0  T
   8   -360.3394105 -0.177143E-01  0.857E-02    0.05       1.0  T
   9   -360.3374425  0.196795E-02  0.934E-02    0.06       1.0  T
  10   -360.3445909 -0.714838E-02  0.468E-02    0.06       1.0  T
  11   -360.3467729 -0.218202E-02  0.104E-02    0.06       1.0  T
  12   -360.3459168  0.856139E-03  0.298E-02    0.06       1.0  T
  13   -360.3465697 -0.652937E-03  0.170E-02    0.06       1.0  T
  14   -360.3468434 -0.273724E-03  0.605E-03    0.06       1.2  T
  15   -360.3468402  0.323195E-05  0.612E-03    0.06       1.2  T
  16   -360.3468703 -0.301001E-04  0.298E-03    0.06       2.4  T
  17   -360.3468762 -0.592465E-05  0.188E-03    0.06       3.8  T
  18   -360.3468781 -0.188763E-05  0.127E-03    0.06       5.6  T
  19   -360.3468794 -0.133401E-05  0.559E-04    0.06      12.8  T
  20   -360.3468796 -0.127251E-06  0.424E-04    0.06      16.9  T
  21   -360.3468795  0.843229E-07  0.509E-04    0.06      14.1  T
  22   -360.3468795  0.212179E-08  0.510E-04    0.06      14.0  T
  23   -360.3468796 -0.770005E-07  0.428E-04    0.06      16.7  T
  24   -360.3468796 -0.224174E-07  0.402E-04    0.06      17.8  T
  25   -360.3468796 -0.556882E-07  0.326E-04    0.06      21.9  T
  26   -360.3468797 -0.106309E-06  0.559E-05    0.06     128.0  T
  27   -360.3468797 -0.307028E-08  0.112E-05    0.06     641.7  T
     SCC iter.                  ...        0 min,  3.600 sec
     gradient                   ...        0 min,  0.447 sec
 * total energy  :  -354.5924650 Eh     change       -0.1128706E-02 Eh
   gradient norm :     0.0259421 Eh/α   predicted    -0.1357494E-02 (  20.27%)
   displ. norm   :     0.4475146 α      lambda       -0.2123965E-02
   maximum displ.:     0.2564680 α      in ANC's #26, #16, #76, ...

........................................................................
.............................. CYCLE   19 ..............................
........................................................................
   1   -360.3512347 -0.360351E+03  0.325E-02    0.06       0.0  T
   2   -356.9163453  0.343489E+01  0.182E+00    0.00       1.0  T
   3   -358.3804017 -0.146406E+01  0.137E+00    0.00       1.0  T
   4   -359.9806191 -0.160022E+01  0.616E-01    0.07       1.0  T
   5   -360.2563384 -0.275719E+00  0.303E-01    0.03       1.0  T
   6   -359.7220876  0.534251E+00  0.768E-01    0.02       1.0  T
   7   -360.2793171 -0.557230E+00  0.275E-01    0.09       1.0  T
   8   -360.3275106 -0.481934E-01  0.154E-01    0.06       1.0  T
   9   -360.2699797  0.575309E-01  0.277E-01    0.05       1.0  T
  10   -360.3330590 -0.630794E-01  0.136E-01    0.05       1.0  T
  11   -360.3277557  0.530332E-02  0.153E-01    0.05       1.0  T
  12   -360.3453773 -0.176215E-01  0.797E-02    0.06       1.0  T
  13   -360.3484971 -0.311982E-02  0.602E-02    0.06       1.0  T
  14   -360.3488412 -0.344076E-03  0.572E-02    0.06       1.0  T
  15   -360.3501863 -0.134513E-02  0.446E-02    0.06       1.0  T
  16   -360.3512551 -0.106886E-02  0.313E-02    0.06       1.0  T
  17   -360.3516755 -0.420350E-03  0.240E-02    0.06       1.0  T
  18   -360.3520709 -0.395406E-03  0.139E-02    0.06       1.0  T
  19   -360.3522285 -0.157621E-03  0.609E-03    0.06       1.2  T
  20   -360.3522324 -0.385650E-05  0.566E-03    0.06       1.3  T
  21   -360.3522324 -0.479143E-07  0.563E-03    0.06       1.3  T
  22   -360.3522346 -0.214834E-05  0.538E-03    0.06       1.3  T
  23   -360.3522377 -0.308239E-05  0.509E-03    0.06       1.4  T
  24   -360.3522496 -0.119095E-04  0.376E-03    0.06       1.9  T
  25   -360.3522543 -0.474574E-05  0.307E-03    0.06       2.3  T
  26   -360.3522585 -0.422606E-05  0.229E-03    0.06       3.1  T
  27   -360.3522632 -0.464255E-05  0.783E-04    0.06       9.1  T
  28   -360.3522637 -0.530065E-06  0.295E-04    0.06      24.2  T
  29   -360.3522638 -0.696335E-07  0.144E-04    0.06      49.8  T
  30   -360.3522638 -0.211274E-07  0.198E-05    0.06     361.6  T
     SCC iter.                  ...        0 min,  3.989 sec
     gradient                   ...        0 min,  0.446 sec
 * total energy  :  -354.5929219 Eh     change       -0.4569213E-03 Eh
   gradient norm :     0.0176113 Eh/α   predicted    -0.1274668E-02 ( 178.97%)
   displ. norm   :     0.3742432 α      lambda       -0.2221521E-02
   maximum displ.:     0.2097040 α      in ANC's #26, #16, #27, ...

........................................................................
.............................. CYCLE   20 ..............................
........................................................................
   1   -360.3556364 -0.360356E+03  0.163E-02    0.06       0.0  T
   2   -358.8313718  0.152426E+01  0.121E+00    0.00       1.0  T
   3   -360.2404558 -0.140908E+01  0.359E-01    0.11       1.0  T
   4   -360.2533613 -0.129055E-01  0.308E-01    0.04       1.0  T
   5   -360.3124671 -0.591058E-01  0.205E-01    0.04       1.0  T
   6   -360.1822559  0.130211E+00  0.398E-01    0.03       1.0  T
   7   -360.3414626 -0.159207E+00  0.120E-01    0.07       1.0  T
   8   -360.3455841 -0.412147E-02  0.987E-02    0.05       1.0  T
   9   -360.3548613 -0.927727E-02  0.308E-02    0.06       1.0  T
  10   -360.3546901  0.171239E-03  0.326E-02    0.06       1.0  T
  11   -360.3551181 -0.428048E-03  0.267E-02    0.06       1.0  T
  12   -360.3557237 -0.605570E-03  0.121E-02    0.06       1.0  T
  13   -360.3557951 -0.714127E-04  0.886E-03    0.06       1.0  T
  14   -360.3558476 -0.524346E-04  0.535E-03    0.06       1.3  T
  15   -360.3558659 -0.183352E-04  0.337E-03    0.06       2.1  T
  16   -360.3558727 -0.680717E-05  0.220E-03    0.06       3.3  T
  17   -360.3558766 -0.386584E-05  0.109E-03    0.06       6.6  T
  18   -360.3558778 -0.120589E-05  0.265E-04    0.06      27.0  T
  19   -360.3558778  0.887644E-08  0.281E-04    0.06      25.5  T
  20   -360.3558778 -0.194388E-07  0.244E-04    0.06      29.3  T
  21   -360.3558778 -0.418816E-07  0.139E-04    0.06      51.4  T
  22   -360.3558778 -0.732717E-08  0.110E-04    0.06      64.9  T
     SCC iter.                  ...        0 min,  2.923 sec
     gradient                   ...        0 min,  0.445 sec
 * total energy  :  -354.5940385 Eh     change       -0.1116634E-02 Eh
   gradient norm :     0.0229853 Eh/α   predicted    -0.1266332E-02 (  13.41%)
   displ. norm   :     0.4423767 α      lambda       -0.1505130E-02
   maximum displ.:     0.2615103 α      in ANC's #26, #16, #27, ...
 * RMSD in coord.:     0.5362133 α      energy gain  -0.1891366E+01 Eh

generating ANC from model Hessian ...
Using Lindh-Hessian (1995)
 Shifting diagonal of input Hessian by    1.0020989418468395E-002
 Lowest  eigenvalues of input Hessian
    0.010000    0.010004    0.010007    0.010009    0.010015    0.010017
    0.000000    0.000000    0.000000    0.000000    0.000000    0.000000
    0.010026    0.010029    0.010033    0.010043    0.010130    0.010140
 Highest eigenvalues
    2.471929    2.472940    2.788380    2.789354    3.006550    3.007102


........................................................................
.............................. CYCLE   21 ..............................
........................................................................
   1   -360.3615642 -0.360362E+03  0.883E-03    0.06       0.0  T
   2   -359.6602180  0.701346E+00  0.825E-01    0.04       1.0  T
   3   -360.3522363 -0.692018E+00  0.102E-01    0.08       1.0  T
   4   -360.3306456  0.215907E-01  0.174E-01    0.04       1.0  T
   5   -360.1119981  0.218648E+00  0.482E-01    0.02       1.0  T
   6   -360.2691222 -0.157124E+00  0.288E-01    0.05       1.0  T
   7   -360.3489202 -0.797980E-01  0.111E-01    0.07       1.0  T
   8   -360.3521135 -0.319326E-02  0.952E-02    0.07       1.0  T
   9   -360.3580247 -0.591123E-02  0.577E-02    0.05       1.0  T
  10   -360.3580259 -0.119595E-05  0.589E-02    0.06       1.0  T
  11   -360.3571686  0.857259E-03  0.646E-02    0.05       1.0  T
  12   -360.3595328 -0.236413E-02  0.440E-02    0.06       1.0  T
  13   -360.3598746 -0.341847E-03  0.405E-02    0.06       1.0  T
  14   -360.3615946 -0.172000E-02  0.485E-03    0.06       1.5  T
  15   -360.3615887  0.588016E-05  0.553E-03    0.06       1.3  T
  16   -360.3616130 -0.242523E-04  0.267E-03    0.06       2.7  T
  17   -360.3616179 -0.487262E-05  0.152E-03    0.06       4.7  T
  18   -360.3616171  0.731081E-06  0.170E-03    0.06       4.2  T
  19   -360.3616176 -0.493507E-06  0.153E-03    0.06       4.7  T
  20   -360.3616165  0.109021E-05  0.181E-03    0.06       4.0  T
  21   -360.3616181 -0.156839E-05  0.131E-03    0.06       5.5  T
  22   -360.3616197 -0.160085E-05  0.382E-04    0.06      18.7  T
  23   -360.3616198 -0.872545E-07  0.245E-04    0.06      29.2  T
  24   -360.3616198 -0.346640E-07  0.166E-04    0.06      43.0  T
  25   -360.3616199 -0.269148E-07  0.504E-05    0.06     142.0  T
     SCC iter.                  ...        0 min,  3.327 sec
     gradient                   ...        0 min,  0.446 sec
 * total energy  :  -354.5947705 Eh     change       -0.7319991E-03 Eh
   gradient norm :     0.0120227 Eh/α   predicted     0.0000000E+00 (-100.00%)
   displ. norm   :     0.1698110 α      lambda       -0.7516869E-03
   maximum displ.:     0.0799269 α      in ANC's #31, #14, #38, ...

........................................................................
.............................. CYCLE   22 ..............................
........................................................................
   1   -360.3626287 -0.360363E+03  0.647E-03    0.06       0.0  T
   2   -359.5370528  0.825576E+00  0.893E-01    0.03       1.0  T
   3   -360.3567170 -0.819664E+00  0.792E-02    0.07       1.0  T
   4   -360.3234858  0.332312E-01  0.194E-01    0.03       1.0  T
   5   -360.2204433  0.103042E+00  0.368E-01    0.02       1.0  T
   6   -360.3451833 -0.124740E+00  0.126E-01    0.06       1.0  T
   7   -360.3408641  0.431925E-02  0.140E-01    0.05       1.0  T
   8   -360.3621491 -0.212850E-01  0.240E-02    0.06       1.0  T
   9   -360.3608955  0.125362E-02  0.403E-02    0.06       1.0  T
  10   -360.3615519 -0.656388E-03  0.330E-02    0.05       1.0  T
  11   -360.3624005 -0.848605E-03  0.158E-02    0.06       1.0  T
  12   -360.3623495  0.509449E-04  0.173E-02    0.06       1.0  T
  13   -360.3624803 -0.130750E-03  0.133E-02    0.06       1.0  T
  14   -360.3626032 -0.122880E-03  0.777E-03    0.06       1.0  T
  15   -360.3626633 -0.601476E-04  0.187E-03    0.06       3.8  T
  16   -360.3626638 -0.511957E-06  0.174E-03    0.06       4.1  T
  17   -360.3626654 -0.153066E-05  0.126E-03    0.06       5.7  T
  18   -360.3626669 -0.149574E-05  0.441E-04    0.06      16.2  T
  19   -360.3626671 -0.204403E-06  0.845E-05    0.06      84.7  T
  20   -360.3626671  0.578996E-08  0.110E-04    0.06      64.9  T
     SCC iter.                  ...        0 min,  2.660 sec
     gradient                   ...        0 min,  0.444 sec
 * total energy  :  -354.5949379 Eh     change       -0.1674087E-03 Eh
   gradient norm :     0.0098374 Eh/α   predicted    -0.3866887E-03 ( 130.98%)
[...]
   142   6 C    3.914 --   144 C    1.321   143 N    1.206   141 C    1.182
   143   7 N    3.368 --   139 C    1.247   142 C    1.206   137 Fe   0.648
   144   6 C    3.914 --   153 C    1.322   142 C    1.321   145 C    1.031
   145   6 C    3.986 --   152 C    1.384   146 C    1.381   144 C    1.031
   146   6 C    3.987 --   147 C    1.470   145 C    1.381   180 H    0.972
                           151 C    0.100
   147   6 C    3.988 --   146 C    1.470   148 C    1.371   181 H    0.967
                           152 C    0.101
   148   6 C    3.984 --   151 C    1.380   147 C    1.371   149 C    1.047
   149   6 C    3.864 --   150 O    1.811   148 C    1.047   182 H    0.942
   150   8 O    2.006 --   149 C    1.811
   151   6 C    3.993 --   152 C    1.464   148 C    1.380   183 H    0.971
                           146 C    0.100
   152   6 C    3.987 --   151 C    1.464   145 C    1.384   184 H    0.972
                           147 C    0.101
   153   6 C    3.914 --   144 C    1.322   156 N    1.205   154 C    1.182
   154   6 C    3.958 --   155 C    1.635   153 C    1.182   185 H    0.973
   155   6 C    3.959 --   154 C    1.635   157 C    1.190   186 H    0.973
   156   7 N    3.368 --   157 C    1.248   153 C    1.205   137 Fe   0.649
   157   6 C    3.902 --   156 N    1.248   158 C    1.246   155 C    1.190
   158   6 C    3.907 --   159 C    1.246   157 C    1.246   129 C    1.210
   159   6 C    3.903 --   163 N    1.247   158 C    1.246   160 C    1.190
   160   6 C    3.959 --   161 C    1.634   159 C    1.190   187 H    0.973
   161   6 C    3.958 --   160 C    1.634   162 C    1.182   188 H    0.973
   162   6 C    3.914 --   164 C    1.320   163 N    1.206   161 C    1.182
   163   7 N    3.368 --   159 C    1.247   162 C    1.206   137 Fe   0.648
   164   6 C    3.914 --   173 C    1.323   162 C    1.320   165 C    1.031
   165   6 C    3.986 --   166 C    1.384   172 C    1.381   164 C    1.031
   166   6 C    3.987 --   167 C    1.464   165 C    1.384   189 H    0.972
                           171 C    0.101
   167   6 C    3.993 --   166 C    1.464   168 C    1.380   190 H    0.971
                           172 C    0.100
   168   6 C    3.984 --   167 C    1.380   171 C    1.371   169 C    1.047
   169   6 C    3.864 --   170 O    1.811   168 C    1.047   191 H    0.942
   170   8 O    2.006 --   169 C    1.811
   171   6 C    3.988 --   172 C    1.470   168 C    1.371   192 H    0.967
                           166 C    0.101
   172   6 C    3.987 --   171 C    1.470   165 C    1.381   193 H    0.972
                           167 C    0.100
   173   6 C    3.914 --   164 C    1.323   177 N    1.204   174 C    1.182
   174   6 C    3.957 --   175 C    1.635   173 C    1.182   194 H    0.973
   175   6 C    3.959 --   174 C    1.635   176 C    1.190   195 H    0.973
   176   6 C    3.902 --   177 N    1.249   138 C    1.244   175 C    1.190
   177   7 N    3.368 --   176 C    1.249   173 C    1.204   137 Fe   0.649
   178   1 H    1.001 --   140 C    0.973
   179   1 H    1.003 --   141 C    0.973
   180   1 H    1.004 --   146 C    0.972
   181   1 H    1.004 --   147 C    0.967
   182   1 H    1.010 --   149 C    0.942
   183   1 H    1.000 --   151 C    0.971
   184   1 H    1.003 --   152 C    0.972
   185   1 H    1.003 --   154 C    0.973
   186   1 H    1.001 --   155 C    0.973
   187   1 H    1.001 --   160 C    0.973
   188   1 H    1.003 --   161 C    0.973
   189   1 H    1.003 --   166 C    0.972
   190   1 H    1.000 --   167 C    0.971
   191   1 H    1.010 --   169 C    0.942
   192   1 H    1.004 --   171 C    0.967
   193   1 H    1.004 --   172 C    0.972
   194   1 H    1.003 --   174 C    0.973
   195   1 H    1.001 --   175 C    0.973
 ---------------------------------------------------------------------------

Topologies differ in total number of bonds
Writing topology from bond orders to xtbtopo.mol

 dipole moment from electron density (au)
     X       Y       Z   
  -0.1032  -0.2140  -2.3594  total (Debye):    6.027

           -------------------------------------------------
          |                Geometry Summary                 |
           -------------------------------------------------

      molecular mass/u    :     1905.3238195
   center of mass at/Å    :       45.4883838      -0.0162094       0.0131175
  moments of inertia/u·Å² :        0.4043660E+05   0.4183061E+06   0.4566249E+06
rotational constants/cm⁻¹ :        0.4168904E-03   0.4029975E-04   0.3691790E-04

 * 184 selected distances

     #   Z          #   Z                                           value/Å
     2   6 C        3   6 C                                       1.3792694
     3   6 C        4   6 C                                       1.4318277
     4   6 C        5   6 C                                       1.3534059
     5   6 C        6   6 C                                       1.4347558
     3   6 C        7   7 N                                       1.3703729
     6   6 C        7   7 N                                       1.3683436
     6   6 C        8   6 C                                       1.3908411
     9   6 C       10   6 C                                       1.3976822
    10   6 C       11   6 C                                       1.3816594
    11   6 C       12   6 C                                       1.3987589
    13   6 C       14   8 O                                       1.2042589
    12   6 C       15   6 C                                       1.3968444
     9   6 C       16   6 C                                       1.3970800
    15   6 C       16   6 C                                       1.3837432
     8   6 C       17   6 C                                       1.3871426
    17   6 C       18   6 C                                       1.4331236
    18   6 C       19   6 C                                       1.3542236
    17   6 C       20   7 N                                       1.3749977
    19   6 C       21   6 C                                       1.4296629
    20   7 N       21   6 C                                       1.3628608
    21   6 C       22   6 C                                       1.4006342
    22   6 C       23   6 C                                       1.4003484
    23   6 C       24   6 C                                       1.4295455
    24   6 C       25   6 C                                       1.3544478
    25   6 C       26   6 C                                       1.4329847
    23   6 C       27   7 N                                       1.3633434
    26   6 C       27   7 N                                       1.3746544
    26   6 C       28   6 C                                       1.3877039
    29   6 C       30   6 C                                       1.3976648
    30   6 C       31   6 C                                       1.3834509
    31   6 C       32   6 C                                       1.3969114
    33   6 C       34   8 O                                       1.2042675
    32   6 C       35   6 C                                       1.3987914
    29   6 C       36   6 C                                       1.3979722
    35   6 C       36   6 C                                       1.3816540
    28   6 C       37   6 C                                       1.3911025
    37   6 C       38   6 C                                       1.4347738
    38   6 C       39   6 C                                       1.3535769
     2   6 C       40   6 C                                       1.3792637
    39   6 C       40   6 C                                       1.4317201
    37   6 C       41   7 N                                       1.3682408
    40   6 C       41   7 N                                       1.3703968
     2   6 C       42   1 H                                       1.0841578
     4   6 C       43   1 H                                       1.0783484
     5   6 C       44   1 H                                       1.0778313
    10   6 C       45   1 H                                       1.0840883
    11   6 C       46   1 H                                       1.0847141
    15   6 C       48   1 H                                       1.0851644
    16   6 C       49   1 H                                       1.0841411
    18   6 C       50   1 H                                       1.0777129
    19   6 C       51   1 H                                       1.0779975
    24   6 C       52   1 H                                       1.0780247
    25   6 C       53   1 H                                       1.0777289
    30   6 C       54   1 H                                       1.0841827
    31   6 C       55   1 H                                       1.0851662
    35   6 C       57   1 H                                       1.0847164
    36   6 C       58   1 H                                       1.0841050
    38   6 C       59   1 H                                       1.0778640
    39   6 C       60   1 H                                       1.0783568
    62   6 C       63   6 C                                       1.3791658
    63   6 C       64   6 C                                       1.4318657
    64   6 C       65   6 C                                       1.3533618
    65   6 C       66   6 C                                       1.4347313
    63   6 C       67   7 N                                       1.3703743
    66   6 C       67   7 N                                       1.3684233
    66   6 C       68   6 C                                       1.3905551
    69   6 C       70   6 C                                       1.3976607
    70   6 C       71   6 C                                       1.3816670
    71   6 C       72   6 C                                       1.3987615
    73   6 C       74   8 O                                       1.2042964
    72   6 C       75   6 C                                       1.3968700
    69   6 C       76   6 C                                       1.3970590
    75   6 C       76   6 C                                       1.3837357
    68   6 C       77   6 C                                       1.3871263
    77   6 C       78   6 C                                       1.4330690
    78   6 C       79   6 C                                       1.3541949
    77   6 C       80   7 N                                       1.3749220
    79   6 C       81   6 C                                       1.4295856
    80   7 N       81   6 C                                       1.3631884
    81   6 C       82   6 C                                       1.4002787
    82   6 C       83   6 C                                       1.3998822
    83   6 C       84   6 C                                       1.4295799
    84   6 C       85   6 C                                       1.3543388
    85   6 C       86   6 C                                       1.4329670
    83   6 C       87   7 N                                       1.3635269
    86   6 C       87   7 N                                       1.3745689
    86   6 C       88   6 C                                       1.3877355
    89   6 C       90   6 C                                       1.3976764
    90   6 C       91   6 C                                       1.3834222
    91   6 C       92   6 C                                       1.3969179
    93   6 C       94   8 O                                       1.2042797
    92   6 C       95   6 C                                       1.3987928
    89   6 C       96   6 C                                       1.3979141
    95   6 C       96   6 C                                       1.3816989
    88   6 C       97   6 C                                       1.3908244
    97   6 C       98   6 C                                       1.4347935 (max)
    98   6 C       99   6 C                                       1.3534898
    62   6 C      100   6 C                                       1.3792030
    99   6 C      100   6 C                                       1.4317344
    97   6 C      101   7 N                                       1.3684346
   100   6 C      101   7 N                                       1.3703822
    62   6 C      102   1 H                                       1.0841549
    64   6 C      103   1 H                                       1.0783557
    65   6 C      104   1 H                                       1.0778430
    70   6 C      105   1 H                                       1.0840890
    71   6 C      106   1 H                                       1.0847103
    75   6 C      108   1 H                                       1.0851714
    76   6 C      109   1 H                                       1.0841403
    78   6 C      110   1 H                                       1.0777151
    79   6 C      111   1 H                                       1.0780051
    84   6 C      112   1 H                                       1.0780161
    85   6 C      113   1 H                                       1.0777136
    90   6 C      114   1 H                                       1.0841896
    91   6 C      115   1 H                                       1.0851733
    95   6 C      117   1 H                                       1.0847163
    96   6 C      118   1 H                                       1.0840983
    98   6 C      119   1 H                                       1.0778629
    99   6 C      120   1 H                                       1.0783572
   121   6 C      122   6 C                                       1.2267460
   123   6 C      124   6 C                                       1.2332654
   125   6 C      126   6 C                                       1.2334045
   127   6 C      128   6 C                                       1.2271604
   129   6 C      130   6 C                                       1.2269036
   131   6 C      132   6 C                                       1.2331040
   133   6 C      134   6 C                                       1.2329587
   135   6 C      136   6 C                                       1.2264548
   138   6 C      139   6 C                                       1.4014701
   139   6 C      140   6 C                                       1.4288833
   140   6 C      141   6 C                                       1.3553834
   141   6 C      142   6 C                                       1.4321114
   139   6 C      143   7 N                                       1.3629587
   142   6 C      143   7 N                                       1.3731029
   142   6 C      144   6 C                                       1.3895864
   145   6 C      146   6 C                                       1.3979237
   146   6 C      147   6 C                                       1.3816657
   147   6 C      148   6 C                                       1.3986527
   149   6 C      150   8 O                                       1.2039685
   148   6 C      151   6 C                                       1.3967595
   145   6 C      152   6 C                                       1.3974473
   151   6 C      152   6 C                                       1.3836032
   144   6 C      153   6 C                                       1.3893400
   153   6 C      154   6 C                                       1.4323117
   154   6 C      155   6 C                                       1.3551553
   153   6 C      156   7 N                                       1.3735306
   155   6 C      157   6 C                                       1.4289769
   156   7 N      157   6 C                                       1.3627878
   157   6 C      158   6 C                                       1.4013363
   158   6 C      159   6 C                                       1.4012121
   159   6 C      160   6 C                                       1.4288780
   160   6 C      161   6 C                                       1.3553397
   161   6 C      162   6 C                                       1.4321369
   159   6 C      163   7 N                                       1.3630064
   162   6 C      163   7 N                                       1.3731820
   162   6 C      164   6 C                                       1.3896319
   165   6 C      166   6 C                                       1.3973532
   166   6 C      167   6 C                                       1.3836798
   167   6 C      168   6 C                                       1.3967873
   169   6 C      170   8 O                                       1.2040181
   168   6 C      171   6 C                                       1.3986638
   165   6 C      172   6 C                                       1.3980332
   171   6 C      172   6 C                                       1.3815654
   164   6 C      173   6 C                                       1.3892569
   173   6 C      174   6 C                                       1.4322458
   174   6 C      175   6 C                                       1.3552719
   138   6 C      176   6 C                                       1.4016715
   175   6 C      176   6 C                                       1.4288775
   173   6 C      177   7 N                                       1.3735469
   176   6 C      177   7 N                                       1.3626630
   140   6 C      178   1 H                                       1.0779995
   141   6 C      179   1 H                                       1.0777408
   146   6 C      180   1 H                                       1.0840709
   147   6 C      181   1 H                                       1.0847161
   151   6 C      183   1 H                                       1.0851267
   152   6 C      184   1 H                                       1.0841583
   154   6 C      185   1 H                                       1.0776660 (min)
   155   6 C      186   1 H                                       1.0779712
   160   6 C      187   1 H                                       1.0780054
   161   6 C      188   1 H                                       1.0777290
   166   6 C      189   1 H                                       1.0841417
   167   6 C      190   1 H                                       1.0851239
   171   6 C      192   1 H                                       1.0847129
   172   6 C      193   1 H                                       1.0840944
   174   6 C      194   1 H                                       1.0776886
   175   6 C      195   1 H                                       1.0779798

 * 4 distinct bonds (by element types)

   Z      Z             #   av. dist./Å        max./Å        min./Å
   1 H    6 C          50     1.0813508     1.0851733     1.0776660
   6 C    6 C         104     1.3844657     1.4347935     1.2264548
   6 C    7 N          24     1.3688254     1.3749977     1.3626630
   6 C    8 O           6     1.2041815     1.2042964     1.2039685


optimized geometry written to: xtbopt.xyz


           -------------------------------------------------
          | TOTAL ENERGY             -354.597966331657 Eh   |
          | GRADIENT NORM               0.000785035010 Eh/α |
          | HOMO-LUMO GAP               0.054578036431 eV   |
           -------------------------------------------------

------------------------------------------------------------------------
 * finished run on 2022/07/29 at 16:56:13.885     
------------------------------------------------------------------------
 total:
 * wall-time:     0 d,  0 h,  3 min, 46.429 sec
 *  cpu-time:     0 d,  0 h,  3 min, 45.340 sec
 * ratio c/w:     0.995 speedup
 SCF:
 * wall-time:     0 d,  0 h,  0 min, 14.295 sec
 *  cpu-time:     0 d,  0 h,  0 min, 14.225 sec
 * ratio c/w:     0.995 speedup
 ANC optimizer:
 * wall-time:     0 d,  0 h,  3 min, 31.935 sec
 *  cpu-time:     0 d,  0 h,  3 min, 30.921 sec
 * ratio c/w:     0.995 speedup

