195
 energy: -354.597966331657 gnorm: 0.000785035010 xtb: 6.5.1 (b24c23e)
Fe          26.93024532052797        0.00463733125825       -0.04602254138265
C           23.54083582964259        0.06650919628632       -0.14860614083507
C           24.20555295891583        1.27421121882960       -0.10398814712408
C           23.53937563398546        2.54142531759198       -0.08148604917909
C           24.50006315152952        3.48130862823594        0.07790678107087
C           25.75411494696968        2.78684754175405        0.13792052089658
N           25.56112139813884        1.43801980608093        0.01229792731190
C           26.97470441808257        3.40835487616747        0.37943381966670
C           26.99030746300914        4.87644316814463        0.58282050559126
C           27.35435513815719        5.41139252405228        1.82169646207991
C           27.35890564420978        6.77939646039732        2.01541522963786
C           27.00545641501771        7.64269924286274        0.97315425659364
C           27.01795496371877        9.09883576784929        1.20519494870138
O           27.31948881294869        9.60639356836653        2.25481476214556
C           26.64688454805267        7.10848147730169       -0.26668911150454
C           26.63717239911133        5.73814790881482       -0.45861728898482
C           28.17720939311883        2.71924892734887        0.43669703322659
C           29.44857807340951        3.35153404708415        0.63081047615014
C           30.38851770931090        2.38427945011122        0.50893649653632
N           28.34328962626108        1.37286456813942        0.21245436500699
C           29.69011872236315        1.16622290103607        0.23965458885551
C           30.34175781320888       -0.04795182813827       -0.01118803571911
C           29.65642313463508       -1.24532533682055       -0.25116380926377
C           30.31926706857127       -2.48361428698607       -0.51739379778635
C           29.35311505621873       -3.42803973547932       -0.61299447917949
C           28.10229261092499       -2.76257038925505       -0.39842830731072
N           28.30448854350260       -1.41615595081786       -0.20879914676285
C           26.87534748019385       -3.41045859445234       -0.37458697006153
C           26.84832497871778       -4.88396047918992       -0.52019938168117
C           26.19510197184972       -5.47178700446403       -1.60704170917818
C           26.16585867274995       -6.84789659224690       -1.74633718485987
C           26.78501499551318       -7.66430908515313       -0.79687570332408
C           26.76282322443541       -9.13358213423266       -0.91921099564828
O           27.27963810551109       -9.87882307635175       -0.12688642817458
C           27.43782324258816       -7.07615109649099        0.29148481893257
C           27.47217017648165       -5.70156138411085        0.42672816462439
C           25.66647193839950       -2.73678302808478       -0.23335370177177
C           24.38874887795543       -3.38698111974490       -0.17641827419576
C           23.45430240375083       -2.40897570378663       -0.12656495187956
C           24.16243711458722       -1.16467692213044       -0.13593898439777
N           25.51565339952999       -1.37838248097251       -0.16944648554161
H           22.45732457913268        0.08614632095681       -0.18047485059077
H           22.47217318994356        2.67290546815994       -0.16289208418661
H           24.38116180886647        4.54930391275502        0.16138528362551
H           27.61796331861434        4.74345131441329        2.63386176345848
H           27.63359093380451        7.20343514460184        2.97528170957678
H           26.72184899158223        9.70379234306779        0.32173871789932
H           26.37545109504082        7.77154819289108       -1.08170320262793
H           26.36854553464842        5.32606670046056       -1.42473860382942
H           29.59362012488129        4.40299065591201        0.81753682888327
H           31.46021304637572        2.47351096688682        0.58367072461927
H           31.38660064196869       -2.59909048988230       -0.61538049501139
H           29.46617994482342       -4.48003186342036       -0.81800258223062
H           25.72316333984184       -4.83999405731564       -2.35106022269261
H           25.66084036113428       -7.29579956231166       -2.59599876306055
H           26.22216332507794       -9.50828724485816       -1.81443492388389
H           27.91323575217429       -7.71831979345164        1.02511399877857
H           27.96866867892656       -5.24877190157357        1.27746575413761
H           24.23895283413443       -4.45436841473321       -0.17041453879685
H           22.38084709180762       -2.50148010034997       -0.08195858436947
Fe          64.04867351472173       -0.02281423652024       -0.06527684797266
C           67.43930218826614       -0.06883471374752       -0.16002027789954
C           66.77595856893811       -1.27227723105785       -0.27749068083858
C           67.44430478684943       -2.53073480646638       -0.41833388311262
C           66.48417075491203       -3.48420562986334       -0.39335596391411
C           65.22827419932031       -2.80469836210991       -0.25390283883754
N           65.41990361975633       -1.45110770375074       -0.19346663470588
C           64.00525119355265       -3.45344828082204       -0.12358978773407
C           63.98833393296670       -4.93564280771117       -0.12828485355037
C           63.60340271220365       -5.63806167259208        1.01709309684232
C           63.59682755194869       -7.01971282256526        1.01751285853161
C           63.96861395687952       -7.72924550467752       -0.12916564302262
C           63.95316708329377       -9.20345236053570       -0.10366042911028
O           63.63398178481511       -9.85266740071835        0.85913239440172
C           64.34772837733037       -7.02735680572204       -1.27584341410211
C           64.35984357988632       -5.64367561546876       -1.27390414147105
C           62.79988625098171       -2.77873168623188        0.00278988036338
C           61.52658173237273       -3.43286544758843        0.06980502858487
C           60.58632837870348       -2.45831008673387        0.06679325597909
N           62.63479133469001       -1.41404496596529       -0.02521096919873
C           61.28662691397395       -1.21379058264050       -0.00004794751631
C           60.63654380724918        0.02486703371859       -0.06249241783655
C           61.32212494591371        1.24510297528956       -0.08842516966756
C           60.65897762669235        2.50993740054225       -0.15267401658772
C           61.62465405733676        3.45766976093770       -0.09346568370331
C           62.87565262830989        2.76680211485543        0.01188350003979
N           62.67384335891460        1.40735027964852       -0.01267352888050
C           64.10319823327504        3.40408132892051        0.12509281008506
C           64.12979300552531        4.88322749497090        0.19606317680376
C           64.77006302199912        5.62296863471122       -0.80210329315716
C           64.79615383022274        7.00485928203700       -0.74248748661801
C           64.18658388149395        7.67460140442337        0.32111448221901
C           64.20374885122226        9.14629945344566        0.40950559634432
O           63.69367463928813        9.76892266351265        1.30530351209156
C           63.54764591395738        6.93426977487677        1.32125863450052
C           63.51664333501533        5.55436645148492        1.25803466790086
C           65.31250475787031        2.71773479779931        0.15506271772731
C           66.59072784602174        3.35417568862633        0.29549276401151
C           67.52523618158956        2.37974326210276        0.20004701645284
C           66.81680345480154        1.14874422400051        0.01941643576256
N           65.46344859394831        1.36406763933126        0.02310012725417
H           68.52285554714186       -0.08300418985128       -0.19323247773337
H           68.51238399988137       -2.64926828955442       -0.50781763331455
H           66.60415622046361       -4.55373947842457       -0.45206022909117
H           63.32476243797915       -5.08979507243135        1.90984836532627
H           63.30620028873820       -7.57342335497535        1.90381791602001
H           64.26431952119411       -9.67918551646047       -1.05812177186854
H           64.63311854034653       -7.57036809301762       -2.17099032992226
H           64.64457685211288       -5.10091364930255       -2.16816163637819
H           61.38135345562264       -4.50041495496099        0.09656988842594
H           59.51343736412548       -2.55741808430893        0.10110587193772
H           59.59178137131551        2.63954896934211       -0.23274515772058
H           61.51109013302853        4.52885657360105       -0.12705862509648
H           65.23395211047857        5.10592127926772       -1.63453100884316
H           65.29071137078482        7.57167075896939       -1.52462456245160
H           64.73252497379399        9.64709506788058       -0.42941878743188
H           63.07986293132789        7.46303150858634        2.14478722250225
H           63.03046805495853        4.98257855404891        2.04031411461264
H           66.74065028907475        4.40998263394475        0.45228297238069
H           68.59895742927296        2.46565370638002        0.25099996287698
C           31.74210009399114       -0.06452021624343       -0.01352085890702
C           32.96882770458884       -0.07098603609199       -0.01175813810162
C           34.30786627521482       -0.07883046792802       -0.00652719557658
C           35.54112441867883       -0.07711951504597       -0.00270524796589
C           36.87508880666771       -0.07109767745238        0.00582880427896
C           38.10843853531869       -0.06008396796903        0.00951177435606
C           39.44702920147671       -0.05526978660529        0.01330994140893
C           40.67415887290228       -0.04771596016997        0.01754761760279
C           50.30408215186593        0.02353258516852       -0.13798293631331
C           51.53083724199804        0.03519427132817       -0.15309048968195
C           52.86987208940352        0.04278012442863       -0.16109124842799
C           54.10294769006538        0.05083336172422       -0.15889421159812
C           55.43743088709878        0.05408852561112       -0.15138873332601
C           56.67030471680497        0.05460237648391       -0.13693766330668
C           58.00964913462305        0.05125661568668       -0.11263319118035
C           59.23583645902326        0.04207505383690       -0.08872970647946
Fe          45.48952621412026       -0.02155424265576       -0.02242573438576
C           42.07306743904176       -0.04081046116214        0.01588504958704
C           42.74070994349216        1.17561773952303        0.21254211713853
C           42.06378265025072        2.42031324645993        0.39750073125950
C           43.01628706658891        3.33936205673009        0.68930274451129
C           44.27038885557838        2.64787369977343        0.68538451579377
N           44.08793329196569        1.32860173325665        0.35125490837436
C           45.48296311737386        3.23578031090054        1.02447073871890
C           45.47777337204005        4.64190110743469        1.48922264564833
C           46.15813530863962        5.62896777247493        0.77019744756673
C           46.15119656259962        6.93927789222295        1.20841999947185
C           45.47082807150797        7.29044434901008        2.37889420783729
C           45.48496521897142        8.69525124276216        2.82895475937113
O           46.05287229985171        9.57927378256177        2.24114059211762
C           44.79220349283003        6.30434736648474        3.09862892945795
C           44.79238852366866        4.99375476059543        2.65511512579160
C           46.69981183784438        2.57012848217395        0.94414607032469
C           47.95573826272279        3.14818696899472        1.31833005467031
C           48.91264078745374        2.24652235030363        0.99002543090454
N           46.88655476739460        1.30598747564799        0.44049889738516
C           48.23633881335135        1.11838980155703        0.43153885825310
C           48.90498479216696        0.01103787438181       -0.10737420181752
C           48.23130310418524       -1.11306613759764       -0.60329558495199
C           48.90006684457344       -2.23633304968248       -1.18011304588417
C           47.94735311248746       -3.16698596748320       -1.43144379982179
C           46.70191048218781       -2.60855550008678       -0.99780359355251
N           46.88786354809633       -1.33109449492942       -0.52967622297498
C           45.49579047926936       -3.29869426851806       -1.00551146262273
C           45.49775826095519       -4.71587547820310       -1.43539085582890
C           46.22464239111459       -5.67012777069452       -0.71870570372949
C           46.22490153112958       -6.99487932825034       -1.11820863877398
C           45.50452106132241       -7.38907668483760       -2.24810899965855
C           45.49244694526504       -8.79375644624210       -2.69851146972335
O           44.89039294023698       -9.17936697329288       -3.66727090513012
C           44.78041931099921       -6.43299561654281       -2.96772390565740
C           44.77355103344481       -5.11182219272239       -2.56377307929400
C           44.28677903423856       -2.72087221661261       -0.63884065368183
C           43.04057677213208       -3.42577220336283       -0.60110925769226
C           42.08284683359849       -2.50857853379680       -0.32134043159926
C           42.74968930187880       -1.25315434958066       -0.17669708336446
N           44.09601584323001       -1.39587090636686       -0.33125065981718
H           40.99765695379341        2.55736496150135        0.31579706754623
H           42.89104525509643        4.39189092303830        0.88429626502382
H           46.67775365583731        5.36095742959402       -0.14269719890966
H           46.67144025205936        7.71286548749811        0.65387728223929
H           44.92149563874991        8.87875692977452        3.76847218922872
H           44.26422519696679        6.56788435252483        4.00928080935764
H           44.27381544489224        4.22770057795474        3.22048392463015
H           48.08010098010568        4.11683554129969        1.77398083622360
H           49.98111993593177        2.32448848861357        1.10958860736143
H           49.96119372301759       -2.29209370932437       -1.36176084682414
H           48.06725442848052       -4.14228932039593       -1.87405709073868
H           46.77647346789132       -5.36783190465318        0.16416617247513
H           46.78621333626251       -7.73116535225949       -0.55225324050713
H           46.09134325228650       -9.48128028843059       -2.06413632385408
H           44.22715899488684       -6.74793224182535       -3.84597202282885
H           44.22013284692167       -4.37050333304773       -3.12895897283248
H           42.92329771355948       -4.48433171816806       -0.76575978776591
H           41.01964387618055       -2.65433590227600       -0.21938732256890
