184
 energy: -318.666883078256 gnorm: 0.653039875897 xtb: 6.5.1 (b24c23e)
C           25.67978100000000        0.01328500000000        0.06235100000000
C           26.40464900000000        1.20661300000000       -0.63202700000000
C           25.78984400000000        2.23196800000000       -1.31375200000000
C           26.81085800000000        3.12391700000000       -1.73213400000000
C           28.01525800000000        2.61532200000000       -1.28603000000000
N           27.75905600000000        1.42255900000000       -0.65702000000000
C           29.44186700000000        3.28973500000000       -1.44039000000000
C           29.48763800000000        4.68753900000000       -1.93088900000000
C           29.75330100000000        4.94699300000000       -3.28217200000000
C           29.78908300000000        6.25954800000000       -3.75565200000000
C           29.55528200000000        7.31082800000000       -2.87162400000000
O           29.58293400000000        8.60816000000000       -3.29910100000000
C           29.28769900000000        7.07066400000000       -1.52804000000000
C           29.25377500000000        5.75656700000000       -1.05680600000000
C           30.57167500000000        2.60890800000000       -1.10703700000000
C           31.88068600000000        3.22612300000000       -1.17122700000000
C           32.78284100000000        2.33936800000000       -0.76795600000000
N           30.76497600000000        1.32809700000000       -0.66000700000000
C           32.09932300000000        1.10386300000000       -0.43892700000000
C           32.76730600000000        0.00282100000000       -0.00223300000000
C           31.98721700000000       -1.34306000000000        0.31389400000000
C           32.52425600000000       -2.61571600000000        0.30908000000000
C           31.49946400000000       -3.51427900000000        0.69621000000000
C           30.36180200000000       -2.76729000000000        0.91541500000000
N           30.65521000000000       -1.45376800000000        0.63246600000000
C           28.95302200000000       -3.32361800000000        1.38761600000000
C           28.91933200000000       -4.63703600000000        2.06966900000000
C           29.29804300000000       -4.74816100000000        3.41310300000000
C           29.27834500000000       -5.99120900000000        4.04946600000000
C           28.88145900000000       -7.11930400000000        3.33942100000000
O           28.87222800000000       -8.31924100000000        3.99256000000000
C           28.50428400000000       -7.02838900000000        2.00134700000000
C           28.52605700000000       -5.78478400000000        1.36784800000000
C           27.82935500000000       -2.59451100000000        1.16052700000000
C           26.50913000000000       -3.03543900000000        1.57559500000000
C           25.62431400000000       -2.11719100000000        1.19895000000000
C           26.34475400000000       -1.05437900000000        0.54178000000000
N           27.66467099999999       -1.38144700000000        0.55177700000000
H           24.60313900000000        0.06800000000000        0.17041700000000
H           24.72814700000000        2.33517400000000       -1.47671800000000
H           26.67877000000000        4.04660100000000       -2.27686000000000
H           28.46307900000000        0.80076900000000       -0.26655600000000
H           29.93585700000000        4.10987800000000       -3.95299900000000
H           29.99998700000000        6.43105800000000       -4.80464400000000
H           29.80041200000000        8.59416700000000       -4.24452500000000
H           29.10777800000000        7.89465500000000       -0.84634100000000
H           29.04833800000000        5.54968100000000       -0.00894900000000
H           32.09560600000000        4.23498700000000       -1.47535000000000
H           33.83899900000000        2.52801100000000       -0.70737300000000
H           33.54411400000000       -2.87255100000000        0.06645700000000
H           31.58317500000000       -4.58485800000000        0.80706700000000
H           29.97458000000000       -0.69861900000000        0.61032000000000
H           29.60534600000000       -3.85571800000000        3.95356800000000
H           29.57096800000000       -6.07040100000000        5.09070500000000
H           28.56297100000000       -8.98747600000000        3.36089800000000
H           28.19230300000000       -7.89801800000000        1.43509000000000
H           28.23389100000000       -5.68885700000000        0.32395100000000
H           26.28106300000000       -3.94453100000000        2.10217800000000
H           24.56238300000000       -2.14957000000000        1.36185200000000
C           62.53905499999999        0.05147400000000        0.04151100000000
C           61.81418700000000       -1.17814500000000        0.66938600000000
C           62.42899299999999       -2.30624200000000        1.16284500000000
C           61.40797799999999       -3.14069000000000        1.68659400000000
C           60.20357799999999       -2.49034400000000        1.50023900000000
N           60.45978100000000       -1.31600400000000        0.83747200000000
C           58.77696899999999       -2.98505300000000        1.98389400000000
C           58.73119799999999       -4.15384700000000        2.89404100000000
C           58.46553500000000       -5.43063700000000        2.38112000000000
C           58.42975300000000       -6.53899300000000        3.22878100000000
C           58.66355400000000       -6.36433800000000        4.59120200000000
O           58.63590200000000       -7.42577000000000        5.45095200000000
C           58.93113699999999       -5.10446000000000        5.11618100000000
C           58.96506200000000       -3.99715900000000        4.26600800000000
C           57.64716200000000       -2.33634300000000        1.59169100000000
C           56.33815000000000       -2.72427300000000        2.07603000000000
C           55.43599499999999       -1.90534400000000        1.54847300000000
N           57.45385999999999       -1.26740600000000        0.75641400000000
C           56.11951299999999       -0.96015800000000        0.68745300000000
C           55.45153000000000        0.00282100000000       -0.00223300000000
C           56.23161900000000        0.99687700000000       -0.96305800000000
C           55.69458000000000        1.68140600000000       -2.03595000000000
C           56.71937200000000        2.49315000000000       -2.58217000000000
C           57.85703400000000        2.27333600000000       -1.83536000000000
N           57.56362600000000        1.32469100000000       -0.88379700000000
C           59.26581400000000        2.97145500000000       -2.04773800000000
C           59.29950400000000        4.25568500000000       -2.78327600000000
C           58.92079300000000        5.44562000000000       -2.14985800000000
C           58.94049100000000        6.65335100000000       -2.85093600000000
C           59.33737700000000        6.66657500000000       -4.18382300000000
O           59.34660800000000        7.86508900000000       -4.83957000000000
C           59.71455200000000        5.49208300000000       -4.83133800000000
C           59.69277900000000        4.28645800000000       -4.12824100000000
C           60.38948100000000        2.38598900000000       -1.55743600000000
C           61.70970599999999        2.97362200000000       -1.70367600000000
C           62.59452200000000        2.16004500000000       -1.13522700000000
C           61.87408299999999        1.03233300000000       -0.59698300000000
N           60.55416499999999        1.21770300000000       -0.86663400000000
H           63.61569700000000        0.11275200000000        0.14599500000000
H           63.49068900000000       -2.49913500000000        1.16146500000000
H           61.54006600000000       -4.09802100000000        2.16783100000000
H           59.75575700000000       -0.65120500000000        0.52581800000000
H           58.28297999999999       -5.54186800000000        1.31416200000000
H           58.21884900000000       -7.51397800000000        2.80545600000000
H           58.41842500000000       -8.21328800000000        4.92765700000000
H           59.11105800000000       -4.97698600000000        6.17798400000000
H           59.17049799999999       -3.00398800000000        4.65896900000000
H           56.12323000000000       -3.52588900000000        2.75992300000000
H           54.37983700000000       -1.95646100000000        1.73989800000000
H           54.67472300000000        1.61632600000000       -2.38321800000000
H           56.63566100000000        3.16562300000000       -3.42253300000000
H           58.24425600000000        0.89748900000000       -0.26070900000000
H           58.61349000000000        5.41728200000000       -1.10690400000000
H           58.64786800000000        7.57186700000000       -2.35416700000000
H           59.65586499999999        7.69542200000000       -5.74331100000000
H           60.02653299999999        5.48638600000000       -5.86906100000000
H           59.98494600000000        3.35665400000000       -4.61237500000000
H           61.93777299999999        3.90834100000000       -2.18329900000000
H           63.65645300000000        2.31456300000000       -1.07431900000000
C           36.44800200000000        0.01555300000000        0.00029200000000
C           35.19573199999999       -0.00362800000000       -0.00405700000000
C           37.76167100000000        0.01478700000000        0.00222400000000
C           39.26480400000000       -0.00362800000000       -0.00405700000000
C           50.29237200000000        0.01555300000000        0.00029200000000
C           49.04010200000000       -0.00362800000000       -0.00405700000000
C           51.60604000000000        0.01478700000000        0.00222400000000
C           53.10917400000000       -0.00362800000000       -0.00405700000000
C           40.54203900000000       -0.00523900000000        0.00510300000000
C           41.34618100000000       -1.03681100000000       -0.90021400000000
C           40.83541000000000       -1.76801700000000       -1.95749300000000
C           41.87125000000000       -2.58531200000000       -2.45428600000000
C           42.99119300000000       -2.33137200000000       -1.68250900000000
N           42.68016299999999       -1.33444900000000       -0.79128600000000
C           44.39451100000000       -3.06576000000000       -1.81705100000000
C           44.39704800000000       -4.40984200000000       -2.43521900000000
C           44.86966499999999       -4.58265900000000       -3.74435100000000
C           44.87459700000000       -5.84668200000000       -4.33429800000000
C           44.39497699999999       -6.93508300000000       -3.60940100000000
O           44.37856000000000       -8.18790600000000       -4.15535700000000
C           43.90393300000000       -6.78206200000000       -2.31859300000000
C           43.90490300000000       -5.51666000000000       -1.73168200000000
C           45.52430400000000       -2.46523600000000       -1.36646700000000
C           46.81787599999999       -3.11299900000000       -1.43379600000000
C           47.73031200000000       -2.27611300000000       -0.94240400000000
N           45.72628699999999       -1.24533700000000       -0.79397900000000
C           47.05686699999999       -1.06144600000000       -0.53371900000000
C           47.71278600000000       -0.00523900000000        0.00510300000000
C           46.91277600000000        1.30005900000000        0.43589800000000
C           47.45774600000000        2.55183800000000        0.63859200000000
C           46.43652999999999        3.38421500000000        1.13757400000000
C           45.27517600000000        2.63582800000000        1.17415400000000
N           45.57265699999999        1.37366800000000        0.72119100000000
C           43.85938000000000        3.13443500000000        1.70957000000000
C           43.82965500000000        4.35151000000000        2.55442300000000
C           43.97798300000000        5.61172600000000        1.96316400000000
C           43.93821000000000        6.77033200000000        2.74415900000000
C           43.71262299999999        6.66486000000000        4.11514400000000
O           43.61812800000000        7.81252300000000        4.84756200000000
C           43.56973499999999        5.41787600000000        4.72410400000000
C           43.64095000000000        4.26141700000000        3.94118300000000
C           42.72213700000000        2.44607100000000        1.39739100000000
C           41.42266700000000        2.86362300000000        1.88148300000000
C           40.51646300000000        1.99233100000000        1.43557900000000
C           41.19431600000000        1.01081500000000        0.62084300000000
N           42.52355200000000        1.34217700000000        0.63301500000000
H           39.82110700000000       -1.72571600000000       -2.31996000000000
H           41.81256500000000       -3.29826700000000       -3.26940500000000
H           43.34460299999999       -0.87302200000000       -0.17390100000000
H           45.23925700000000       -3.71635100000000       -4.29359800000000
H           45.26750700000000       -5.95090700000000       -5.33301900000000
H           44.67973500000000       -8.10313300000000       -5.07395400000000
H           43.51673500000000       -7.63506200000000       -1.77914100000000
H           43.52139399999999       -5.37322700000000       -0.72357200000000
H           47.02633700000000       -4.10268000000000       -1.80772300000000
H           48.77955000000000       -2.49147200000000       -0.86297700000000
H           48.49149300000000        2.82589900000000        0.49451000000000
H           46.54244900000000        4.41283500000000        1.45949200000000
H           44.90008000000000        0.62395800000000        0.60911100000000
H           44.12613100000000        5.67615100000000        0.88717900000000
H           44.06356700000000        7.74494400000000        2.28995000000000
H           43.00587300000000        7.61585800000000        5.58417400000000
H           43.40407100000000        5.32524300000000        5.78933800000000
H           43.52593899999999        3.27930700000000        4.38967400000000
H           41.20653400000000        3.72214300000000        2.49256200000000
H           39.46047500000000        2.04983300000000        1.63402500000000
184
 energy: -318.893668766499 gnorm: 0.429151745893 xtb: 6.5.1 (b24c23e)
C           25.70891080347865        0.04376782810748        0.04427962468645
C           26.40245633922117        1.19103667522183       -0.62367522178611
C           25.79582954792027        2.23883866811944       -1.31223289295243
C           26.80930719687910        3.12357910370936       -1.72617545747768
C           28.03488836754388        2.61823387646466       -1.28598378500302
N           27.76106618194128        1.42305665458153       -0.65414309864038
C           29.40759974241826        3.26378283728422       -1.43272488414729
C           29.47486678630997        4.67518915500927       -1.92914634405994
C           29.75220253129012        4.94415143421393       -3.27627118056561
C           29.78921697836814        6.25278862460630       -3.75072288903872
C           29.55530222782143        7.30819219647637       -2.87069312345723
O           29.58381936665259        8.60190334853265       -3.30102506231409
C           29.28826738817642        7.06322762086052       -1.52633079079065
C           29.25177988460486        5.75194875771023       -1.06029655545693
C           30.57370294815432        2.59853001666975       -1.10083938938917
C           31.88303781177026        3.23189704235302       -1.17266674557597
C           32.79412494083041        2.34033301963226       -0.76742644562684
N           30.76120045325757        1.31702841706723       -0.65307434111478
C           32.10768181555196        1.09846415479232       -0.43653891278058
C           32.75346170476521       -0.03456998935552       -0.00185113101565
C           32.00099126531352       -1.32505654610887        0.30573253977863
C           32.52426886226839       -2.61749234270207        0.31651778937815
C           31.50375678274827       -3.50832759617243        0.70000350403966
C           30.34539150867457       -2.76617860555283        0.91905523061141
N           30.66008863677646       -1.44956250124332        0.63563222708549
C           28.98799286265866       -3.30235010715799        1.37333854090046
C           28.93318102106329       -4.62874291569222        2.06041371436228
C           29.30022702455476       -4.74797304184546        3.40738560406272
C           29.27756592183081       -5.98485287160532        4.04548534319902
C           28.88144962401125       -7.11685133643181        3.33816590733077
O           28.87088374539070       -8.31627827534235        3.98679621769742
C           28.50413796790293       -7.02018625000462        1.99975766046007
C           28.52709054285200       -5.77874959184399        1.36964788882922
C           27.83060060983892       -2.58563537031908        1.15936804580883
C           26.50873570674705       -3.04376774090341        1.57963750645900
C           25.61900199208176       -2.12034026413190        1.20166930001024
C           26.35518336185729       -1.05398852619375        0.54352096113428
N           27.67770494992167       -1.37344263046375        0.54800812461466
H           24.62310365638315        0.08248928111275        0.15692663935751
H           24.73307973992935        2.33906441067936       -1.47855868249162
H           26.67668937758181        4.04391324834891       -2.27546572205807
H           28.46286117347657        0.80150259112327       -0.26660575196986
H           29.93476365582443        4.11283766346171       -3.95168270178866
H           29.99929309684499        6.43224798918755       -4.80112068490408
H           29.79994490695864        8.59954473605248       -4.24484172795826
H           29.10874195095742        7.89175634719745       -0.84871092482806
H           29.04826221032459        5.55102966034640       -0.01217941222931
H           32.09091094334594        4.24188308995141       -1.47863172360032
H           33.85013264418984        2.52193345277094       -0.70471772752692
H           33.54235912567625       -2.87500393287469        0.06881360834358
H           31.58580584586224       -4.58054035905787        0.80632145185021
H           29.97838599234734       -0.69847696976336        0.61056878430421
H           29.60516100550280       -3.85897720982914        3.95239367783146
H           29.56953029108470       -6.07010048131064        5.08721976105828
H           28.56362230743337       -8.99142385163691        3.36452905818722
H           28.19345472776438       -7.89636774290530        1.43819853081960
H           28.23524408248315       -5.68999999594931        0.32679868627432
H           26.28552503992006       -3.95371101924437        2.10565258337616
H           24.55577776583858       -2.14736093188870        1.36112834000202
C           62.50990687800291        0.01977291413636        0.05737744297111
C           61.81639388152394       -1.16269613680445        0.66081003868059
C           62.42301588942018       -2.30868747623122        1.16945033655038
C           61.40950418030700       -3.13548979917797        1.68950902307021
C           60.18394567153688       -2.49181782095374        1.50263683786774
N           60.45776305797195       -1.31384424664919        0.83943519573629
C           58.81085440881718       -2.96424167030365        1.96602906391064
C           58.74386612128859       -4.14557455401440        2.88452761313044
C           58.46662427661652       -5.42409529382389        2.38190393677059
C           58.42962544311241       -6.53116654581686        3.22575012415938
C           58.66353262931376       -6.36213500135844        4.58949081066071
O           58.63501853327246       -7.42395949873218        5.44461092009061
C           58.93057393188691       -5.09898070050453        5.11082902089079
C           58.96705379012631       -3.99756646559172        4.26020618100461
C           57.64479045632530       -2.32495248468263        1.58601805191194
C           56.33566679099083       -2.72852304751465        2.08005463894387
C           55.42417081377457       -1.90570540140036        1.54977967714230
N           57.45582617672387       -1.25447078475517        0.75025339932286
C           56.10842280084582       -0.95501091278299        0.68388323737752
C           55.45731275899107        0.02301882547006       -0.03378981107732
C           56.21597192814740        0.98054596286931       -0.95189462698924
C           55.69423564899764        1.68863628807223       -2.03354785399058
C           56.71503527535239        2.49303682472025       -2.57503702017548
C           57.87313902500384        2.27551637310473       -1.83226878405292
N           57.55777760361283        1.32469503690772       -0.87816321021049
C           59.23075423690192        2.94786821288959       -2.03755507645639
C           59.28561686691831        4.24338733281805       -2.78129643300234
C           58.91858158238836        5.44071258822130       -2.15278040355271
C           58.94127400054268        6.64655441185045       -2.84773442328768
C           59.33738480415725        6.66420878881516       -4.18245331720080
O           59.34796368305943        7.85856859025107       -4.84015886848736
C           59.71469868020601        5.48629253378723       -4.82529174205220
C           59.69175861372973        4.28469104749340       -4.12218868997485
C           60.38822337698076        2.38020562816625       -1.55060691472116
C           61.71008906669397        2.98152429224339       -1.70849737002848
C           62.59982685216842        2.16404299880617       -1.13640884818453
C           61.86366414658700        1.03360051304962       -0.59571815185058
N           60.54111729332347        1.21017997981183       -0.86194438299589
H           63.59571984943555        0.09356941146361        0.15087968585744
H           63.48575723896659       -2.50278980690794        1.16374709363143
H           61.54212648897803       -4.09537879894828        2.16631813531152
H           59.75597535259717       -0.65163288622673        0.52642322530918
H           58.28406812200787       -5.54235971656740        1.31735214831377
H           58.21954649814308       -7.51163847562087        2.80835373417344
H           58.41889481229494       -8.21646625764821        4.93202295734975
H           59.11009219517786       -4.97739968414858        6.17424654333062
H           59.17056864551643       -3.00742612905741        4.65835798525502
H           56.12800560073455       -3.53234375183118        2.76391634114054
H           54.36832537703736       -1.95112384745447        1.73637068095897
H           54.67628133274703        1.61972182408053       -2.38413789687835
H           56.63308182093296        3.16261039732568       -3.41924074080679
H           58.23997323362573        0.89740367502842       -0.26031884144361
H           58.61367051033922        5.41806416883329       -1.11027151908926
H           58.64930827680018        7.56875925803152       -2.35579382885440
H           59.65520313946197        7.70063127049348       -5.74466491844166
H           60.02537870327424        5.48808723102524       -5.86597945922803
H           59.98359313936805        3.35965745281072       -4.61180091996519
H           61.93329671727676        3.91621907230526       -2.18913302699491
H           63.66304203207130        2.31275813008120       -1.07285233924036
C           36.45535315426622        0.01438560813670       -0.00021964689511
C           35.19042374514166       -0.00307289798555       -0.00332580073811
C           37.81406734166609        0.00879185787173        0.00036843556480
C           39.16844678480419       -0.02024296804960       -0.01445627057278
C           50.34043285953247        0.02024799002622        0.00380177509933
C           49.07481955443257        0.01330227796127        0.00589077376082
C           51.69361439199398        0.01450639363198       -0.00073613459610
C           53.04128676102285       -0.00476264298315       -0.00293081120358
C           40.52792842353692       -0.01846235763818       -0.02889151329321
C           41.33940043631924       -1.02528701011755       -0.89507835580889
C           40.83651360456964       -1.77260509305772       -1.95311348361674
C           41.87118848744937       -2.58847343493102       -2.44583816395130
C           43.00870081647831       -2.33593911204860       -1.68323767529228
N           42.67775345565485       -1.33880838916727       -0.78752867736602
C           44.36144918474264       -3.04212147718812       -1.81016947483204
C           44.38439938222000       -4.39726290559816       -2.43501241275957
C           44.86979738408454       -4.57985130044466       -3.73776835361944
C           44.87554130274975       -5.84038175497499       -4.32763597788570
C           44.39394674794803       -6.93299508304402       -3.60938071625137
O           44.37922884785347       -8.18201867908601       -4.15745014002982
C           43.90440225199657       -6.77475775217478       -2.31658596875084
C           43.90289195953776       -5.51145011290662       -1.73467964717805
C           45.52309877498251       -2.46187022705717       -1.36139479978510
C           46.81877580736735       -3.12216979497867       -1.43808334512953
C           47.73396011862486       -2.28006068548319       -0.94269519789341
N           45.71512962436506       -1.23429282237359       -0.78745103204359
C           47.03913105558679       -1.07104965912353       -0.53405914104664
C           47.70042366404112        0.03032592255144        0.00129260277000
C           46.91746392744333        1.28775771526318        0.43204809357813
C           47.45677111984617        2.54993674854347        0.64898204543141
C           46.43540822211703        3.38135394726000        1.13991556733410
C           45.25781671395482        2.63846194157028        1.18220418650044
N           45.57274552842836        1.37426969703972        0.72354900257014
C           43.89171759560101        3.11405772589265        1.69463488370516
C           43.84075759328774        4.34303392138220        2.54620636031604
C           43.98377543793762        5.60869017146133        1.96461031358973
C           43.93851902996433        6.76328503564678        2.74147377762997
C           43.71169305450993        6.66096813020821        4.11203137075533
O           43.61100428165282        7.80749572121293        4.84692415497722
C           43.56980640202816        5.41160714271150        4.71558330732765
C           43.63970127525467        4.26052821103280        3.93263747016309
C           42.72468744985586        2.44187265812672        1.39633924768084
C           41.42310758067217        2.87115386004505        1.88831456930168
C           40.51220648101712        1.99755955784642        1.43775622504287
C           41.20714713761473        1.01747397821411        0.62930948587787
N           42.53131296657342        1.32458536780639        0.63120539619012
H           39.82268059213563       -1.72764041110799       -2.31986810677234
H           41.81089838990049       -3.29464312513629       -3.26430946069722
H           43.34082809792114       -0.87487985571644       -0.17484582882555
H           45.23790747462311       -3.71936878182941       -4.29157623810453
H           45.26547842766865       -5.95257289141171       -5.33227522362521
H           44.68037519156511       -8.10894329736268       -5.07467984217393
H           43.51852104179127       -7.63290642273751       -1.77924261555246
H           43.52221489796010       -5.37451655530450       -0.72630982812693
H           47.02150806441040       -4.10994354189003       -1.81230908922890
H           48.78639529114788       -2.48599047499009       -0.86038895141133
H           48.48914095372295        2.82641732270744        0.49593458929399
H           46.54249389628372        4.40997750364728        1.45540616596680
H           44.90115843044018        0.62483933948247        0.60717596138996
H           44.12628751096435        5.67804628447873        0.89005853050948
H           44.06197754336969        7.74172116005123        2.29046902380497
H           43.01282147316549        7.62158392451229        5.58863261280585
H           43.40420957327427        5.32595889587809        5.78527621716347
H           43.52707664941377        3.28187524628318        4.38922010588426
H           41.21151714280923        3.72967098857987        2.49834670054899
H           39.45442443111921        2.04515552726761        1.63146376962705
184
 energy: -318.991609108359 gnorm: 0.358032760785 xtb: 6.5.1 (b24c23e)
C           25.74794255351123        0.08182212017037        0.02146120044193
C           26.40044319414350        1.16958047618761       -0.61046597037400
C           25.80625445570741        2.25027376194863       -1.31090662900327
C           26.80519079369731        3.12105466391874       -1.71781736471225
C           28.06494128332831        2.62355087340206       -1.28420905544841
N           27.76481961243690        1.42257470931798       -0.65376520129480
C           29.36283592922494        3.22862697269056       -1.42167248030317
C           29.46181444968440        4.65903208034895       -1.92680630707678
C           29.74931855447110        4.93863422214387       -3.26918599589284
C           29.78963138414803        6.24399314981727       -3.74457773245620
C           29.55554316154973        7.30530742493699       -2.86978613954728
O           29.58454753350955        8.59365304077582       -3.30286222137334
C           29.28911247266269        7.05401404809632       -1.52437047203446