264
 energy: -527.804880890675 gnorm: 0.613970562414 xtb: 6.5.1 (b24c23e)
Ni          44.42859700000000       -0.05747400000000       -0.02905500000000
C           41.09545700000000        0.09353800000000        0.07735400000000
C           41.76226999999999        1.25048400000000        0.05595500000000
C           41.11389800000000        2.55610200000000        0.05475000000000
C           42.05753900000000        3.47817300000000        0.04678900000000
C           43.36268600000000        2.80312300000000        0.04472100000000
N           43.18270300000000        1.38689700000000        0.04975700000000
C           44.55663600000000        3.42801400000000        0.07463800000000
C           44.59416000000000        4.90671800000000        0.08215300000000
C           44.38482000000000        5.62199200000000       -1.10482100000000
C           44.40647500000000        7.02033100000000       -1.10188300000000
O           44.19219799999999        7.70150900000000       -2.30027100000000
C           44.63953900000000        7.71599000000000        0.09826800000000
O           44.65516700000000        9.11152300000000        0.09420300000000
C           44.85331400000000        6.99997700000000        1.29036000000000
O           45.08616000000000        7.68267500000000        2.48300100000000
C           44.83083800000000        5.59874700000000        1.27696700000000
C           45.85484300000000        2.70390900000000        0.11299400000000
C           47.15411700000000        3.37343500000000        0.24441800000000
C           48.08844200000000        2.44626600000000        0.22976300000000
N           45.98946700000000        1.41613500000000        0.01240900000000
C           47.39533800000000        1.17236400000000        0.07823500000000
C           47.99054600000000       -0.02834500000000       -0.03016100000000
C           47.23758700000000       -1.29387600000000       -0.21031200000000
C           47.80287599999999       -2.45581700000000       -0.51544000000000
C           46.75538100000000       -3.45487700000000       -0.54563700000000
C           45.61369100000000       -2.84071000000000       -0.25958100000000
N           45.82744199999999       -1.44399200000000       -0.03329200000000
C           44.30458000000000       -3.53442400000000       -0.14111200000000
C           44.28576500000000       -5.01320500000000       -0.15971800000000
C           44.43239400000000       -5.73120800000000        1.03369000000000
C           44.41110999999999       -7.12966900000000        1.02483300000000
O           44.55283900000000       -7.81495400000000        2.23156400000000
C           44.24778300000000       -7.82163600000000       -0.18915200000000
O           44.23095300000000       -9.21707000000000       -0.19016800000000
C           44.10587900000000       -7.10185500000000       -1.38969600000000
O           43.94843900000000       -7.78125800000000       -2.59690600000000
C           44.12405200000000       -5.70054300000000       -1.36968200000000
C           43.14190700000000       -2.86924900000000       -0.01901800000000
C           41.81797700000000       -3.47742000000000        0.09969800000000
C           40.95896600000000       -2.47877600000000        0.15143300000000
C           41.72507600000000       -1.23614500000000        0.07143900000000
N           42.99980899999999       -1.45089800000000       -0.02900500000000
H           40.01257400000000        0.12632300000000        0.10197400000000
H           40.04927100000000        2.75186200000000        0.06386400000000
H           41.87385800000000        4.54482200000000        0.05334700000000
H           44.20108900000000        5.09167000000000       -2.03151200000000
H           44.19717199999999        8.71294900000000       -2.35324600000000
H           44.80554100000000        9.65177800000000        0.93720900000000
H           45.24247300000000        7.19035000000000        3.35492200000000
H           44.99356400000000        5.04814700000000        2.19562700000000
H           47.33768299999999        4.43599500000000        0.33433100000000
H           49.15223000000000        2.62944200000000        0.30451900000000
H           48.85252899999999       -2.64072600000000       -0.69741300000000
H           46.89027400000000       -4.50964300000000       -0.74858100000000
H           44.55957000000000       -5.20345200000000        1.97113900000000
H           44.53452300000000       -8.82602000000000        2.28193200000000
H           44.11706000000000       -9.75518700000000       -1.04059500000000
H           43.84860100000000       -7.28695900000000       -3.47632300000000
H           44.01371200000000       -5.14706000000000       -2.29472700000000
H           41.56608500000000       -4.52957900000000        0.13419100000000
H           39.88396699999999       -2.57658000000000        0.23487800000000
Ni          95.74396799999998        0.00047200000000       -0.02576100000000
C           99.07710799999998       -0.16162800000000        0.06284600000000
C           98.41029600000000       -1.30869300000000       -0.08955000000000
C           99.05866700000000       -2.60576100000000       -0.23873300000000
C           98.11502600000000       -3.52098700000000       -0.35115500000000
C           96.80988000000001       -2.85005300000000       -0.27669600000000
N           96.98986199999999       -1.44352400000000       -0.11117000000000
C           95.61593000000001       -3.47430800000000       -0.31780000000000
C           95.57840500000000       -4.94433400000000       -0.47793800000000
C           95.78774500000000       -5.52046000000000       -1.73833600000000
C           95.76609100000000       -6.91012100000000       -1.89391300000000
O           95.98036700000000       -7.45107800000000       -3.16178600000000
C           95.53302599999999       -7.73732900000000       -0.78034500000000
O           95.51739800000000       -9.12340800000000       -0.94256200000000
C           95.31925099999999       -7.16104800000000        0.48522100000000
O           95.08640600000000       -7.97452700000000        1.59279600000000
C           95.34172799999999       -5.76733000000000        0.63073800000000
C           94.31772199999999       -2.75921700000000       -0.19761800000000
C           93.01844900000000       -3.43932400000000       -0.14292800000000
C           92.08412299999999       -2.51646900000000       -0.05239800000000
N           94.18309900000000       -1.46834000000000       -0.15159100000000
C           92.77722799999999       -1.23360100000000       -0.05855800000000
C           92.18201900000000       -0.02834500000000       -0.03016100000000
C           92.93497799999999        1.24945000000000       -0.06570900000000
C           92.36968899999999        2.43848900000000       -0.23716900000000
C           93.41718500000000        3.43453300000000       -0.15393300000000
C           94.55887400000000        2.79190100000000        0.06066700000000
N           94.34512299999999        1.37853500000000        0.12718600000000
C           95.86798499999999        3.46771600000000        0.25700200000000
C           95.88680099999999        4.93907600000000        0.40612900000000
C           95.74017100000000        5.51718400000000        1.67322900000000
C           95.76145499999998        6.90763800000000        1.82293800000000
O           95.61972600000000        7.45172800000000        3.09956600000000
C           95.92478199999998        7.73274500000000        0.69520800000000
O           95.94161299999999        9.11930100000000        0.85236400000000
C           96.06668600000000        7.15367900000000       -0.57918400000000
O           96.22412600000000        7.96553600000000       -1.70160600000000
C           96.04851299999999        5.75912800000000       -0.71813200000000
C           97.03065900000000        2.79298900000000        0.30291400000000
C           98.35458900000000        3.38378400000000        0.48979800000000
C           99.21359900000000        2.38571300000000        0.42800800000000
C           98.44748899999999        1.16015700000000        0.20768400000000
N           97.17275600000001        1.38491000000000        0.13222800000000
H          100.15999200000000       -0.19699200000000        0.08359200000000
H          100.12329400000000       -2.80129200000000       -0.25186600000000
H           98.29870699999998       -4.58150500000000       -0.46553900000000
H           95.97147600000000       -4.88852000000000       -2.59894600000000
H           95.97539399999998       -8.44999400000000       -3.32906200000000
H           95.36702400000000       -9.75573200000000       -0.16622400000000
H           94.93009300000000       -7.58420300000000        2.51490100000000
H           95.17900199999998       -5.32440500000000        1.60588500000000
H           92.83488300000000       -4.50522800000000       -0.17403100000000
H           91.02033500000000       -2.70693800000000        0.00111300000000
H           91.32003699999999        2.64283100000000       -0.39701100000000
H           93.28229100000000        4.50550400000000       -0.23601600000000
H           95.61299600000000        4.88657400000000        2.54481800000000
H           95.63804300000000        8.45057000000000        3.26420900000000
H           96.05550500000000        9.75034300000000        0.06841100000000
H           96.32396400000000        7.57410000000000       -2.63138300000000
H           96.15885299999998        5.31406200000000       -1.69994900000000
H           98.60648100000000        4.42525300000000        0.64332700000000
H          100.28859799999999        2.47342800000000        0.52200100000000
C           54.39728800000000       -0.02724200000000       -0.02167100000000
C           53.18834799999999       -0.04069700000000       -0.03011800000000
C           51.76682000000000       -0.03187800000000       -0.04210100000000
C           50.55514999999999       -0.02443900000000       -0.03123800000000
C           55.81389200000000       -0.03391700000000       -0.02113800000000
C           57.03458800000000       -0.02443900000000       -0.03123800000000
C           70.69012700000000       -0.02724200000000       -0.02167100000000
C           69.48118700000001       -0.04069700000000       -0.03011800000000
C           68.05965799999998       -0.03187800000000       -0.04210100000000
C           66.84798900000000       -0.02443900000000       -0.03123800000000
C           72.10673100000000       -0.03391700000000       -0.02113800000000
C           73.32742700000000       -0.02443900000000       -0.03123800000000
C           86.98296499999998       -0.02724200000000       -0.02167100000000
C           85.77402600000001       -0.04069700000000       -0.03011800000000
C           84.35249700000000       -0.03187800000000       -0.04210100000000
C           83.14082799999998       -0.02443900000000       -0.03123800000000
C           88.39957000000000       -0.03391700000000       -0.02113800000000
C           89.62026600000000       -0.02443900000000       -0.03123800000000
Ni          61.89906600000000       -0.05245800000000       -0.06146300000000
C           58.48943600000000        0.03241500000000        0.03526400000000
C           59.14590199999999        1.20105200000000        0.15483500000000
C           58.50431300000000        2.50010900000000        0.36726600000000
C           59.44237200000000        3.42652100000000        0.38951600000000
C           60.74118500000000        2.77502800000000        0.19221700000000
N           60.56325300000000        1.36342000000000        0.05079800000000
C           61.92613900000000        3.41925200000000        0.14018100000000
C           61.95585899999999        4.89491500000000        0.24345300000000
C           62.41835499999999        5.50787200000000        1.41688300000000
C           62.46099000000000        6.90502600000000        1.51567300000000
O           62.91392799999999        7.51560500000000        2.68559800000000
C           62.04598500000000        7.69586200000000        0.43483000000000
O           62.09850500000000        9.08525500000000        0.55058900000000
C           61.58360000000000        7.08487000000000       -0.74626500000000
O           61.17213799999999        7.86790500000000       -1.82369700000000
C           61.53948900000000        5.68676900000000       -0.83657800000000
C           63.22719899999999        2.72081300000000       -0.01306100000000
C           64.50057700000001        3.41252400000000       -0.24812500000000
C           65.45435300000000        2.50370500000000       -0.27760500000000
N           63.39331800000000        1.43895200000000        0.09282800000000
C           64.79570800000000        1.22141000000000       -0.06570500000000
C           65.41075499999999        0.03241500000000        0.03526400000000
C           64.66180600000000       -1.22642600000000        0.23365300000000
C           65.19998600000000       -2.35799700000000        0.67002500000000
C           64.16752500000000       -3.37495200000000        0.61090400000000
C           63.06928200000000       -2.79516800000000        0.14020600000000
N           63.29096400000000       -1.40992200000000       -0.11940600000000
C           61.81058399999999       -3.51359100000000       -0.17201200000000
C           61.87251100000000       -4.97846500000000       -0.39494900000000
C           62.60728700000000       -5.49252700000000       -1.47029600000000
C           62.67865999999999       -6.87119500000000       -1.68569300000000
O           63.40989999999999       -7.34134900000000       -2.77717300000000
C           62.01995100000000       -7.75991500000000       -0.81384500000000
O           62.11421100000000       -9.13096300000000       -1.06717800000000
C           61.28777000000000       -7.24344800000000        0.28381500000000
O           60.61603100000000       -8.06074100000000        1.19642000000000
C           61.22368299999999       -5.85952000000000        0.48126200000000
C           60.63427100000000       -2.86512200000000       -0.27561500000000
C           59.35284900000000       -3.46702600000000       -0.62931700000000
C           58.46359100000000       -2.49670800000000       -0.57132700000000
C           59.16566099999999       -1.26745900000000       -0.18636400000000
N           60.43477299999999       -1.47544800000000       -0.01392000000000
H           57.44791099999999        2.69877500000000        0.49217900000000
H           59.25751099999999        4.48246400000000        0.53744400000000
H           62.74359700000000        4.90023000000000        2.25324000000000
H           63.20468600000000        6.97115200000000        3.49380100000000
H           61.80589499999999        9.70024500000000       -0.20260200000000
H           60.81229800000000        7.45368500000000       -2.67602200000000
H           61.18576800000000        5.21680400000000       -1.74795700000000
H           64.65207400000000        4.47674600000000       -0.37374300000000
H           66.50775000000000        2.70171200000000       -0.42722300000000
H           66.22504300000000       -2.50938800000000        0.98265000000000
H           64.28481600000001       -4.41980100000000        0.86782700000000
H           63.12059399999999       -4.81996100000000       -2.14819500000000
H           63.49285699999999       -8.32898600000000       -2.98787300000000
H           61.66415200000000       -9.84446300000000       -0.51007600000000
H           60.60711400000000       -9.06921700000000        1.15373200000000
H           60.66741000000000       -5.46871700000000        1.32545500000000
H           59.14563900000000       -4.49483100000000       -0.89606600000000
H           57.40868900000000       -2.61091500000000       -0.78479000000000
Ni          78.19190500000001       -0.05245800000000       -0.06146300000000
C           74.78227400000000        0.03241500000000        0.03526400000000
C           75.43874099999999        1.20105200000000        0.15483500000000
C           74.79715199999998        2.50010900000000        0.36726600000000
C           75.73521100000001        3.42652100000000        0.38951600000000
C           77.03402300000000        2.77502800000000        0.19221700000000
N           76.85609199999999        1.36342000000000        0.05079800000000
C           78.21897800000001        3.41925200000000        0.14018100000000
C           78.24869800000000        4.89491500000000        0.24345300000000
C           78.71119400000001        5.50787200000000        1.41688300000000
C           78.75382899999998        6.90502600000000        1.51567300000000
O           79.20676700000000        7.51560500000000        2.68559800000000
C           78.33882400000000        7.69586200000000        0.43483000000000
O           78.39134400000000        9.08525500000000        0.55058900000000
C           77.87643900000000        7.08487000000000       -0.74626500000000
O           77.46497700000000        7.86790500000000       -1.82369700000000
C           77.83232799999999        5.68676900000000       -0.83657800000000
C           79.52003700000000        2.72081300000000       -0.01306100000000
C           80.79341599999998        3.41252400000000       -0.24812500000000
C           81.74719200000000        2.50370500000000       -0.27760500000000
N           79.68615699999999        1.43895200000000        0.09282800000000
C           81.08854700000001        1.22141000000000       -0.06570500000000
C           81.70359400000000        0.03241500000000        0.03526400000000
C           80.95464500000000       -1.22642600000000        0.23365300000000
C           81.49282499999998       -2.35799700000000        0.67002500000000
C           80.46036399999998       -3.37495200000000        0.61090400000000
C           79.36212100000000       -2.79516800000000        0.14020600000000
N           79.58380300000000       -1.40992200000000       -0.11940600000000
C           78.10342300000001       -3.51359100000000       -0.17201200000000
C           78.16534999999999       -4.97846500000000       -0.39494900000000
C           78.90012600000000       -5.49252700000000       -1.47029600000000
C           78.97149899999998       -6.87119500000000       -1.68569300000000
O           79.70273899999999       -7.34134900000000       -2.77717300000000
C           78.31279000000001       -7.75991500000000       -0.81384500000000
O           78.40705000000000       -9.13096300000000       -1.06717800000000
C           77.58060900000000       -7.24344800000000        0.28381500000000
O           76.90886999999999       -8.06074100000000        1.19642000000000
C           77.51652199999998       -5.85952000000000        0.48126200000000
C           76.92711000000000       -2.86512200000000       -0.27561500000000
C           75.64568799999999       -3.46702600000000       -0.62931700000000
C           74.75642900000000       -2.49670800000000       -0.57132700000000
C           75.45849999999999       -1.26745900000000       -0.18636400000000
N           76.72761199999999       -1.47544800000000       -0.01392000000000
H           73.74074999999999        2.69877500000000        0.49217900000000
H           75.55034999999999        4.48246400000000        0.53744400000000
H           79.03643599999999        4.90023000000000        2.25324000000000
H           79.49752400000000        6.97115200000000        3.49380100000000
H           78.09873399999998        9.70024500000000       -0.20260200000000
H           77.10513700000000        7.45368500000000       -2.67602200000000
H           77.47860700000000        5.21680400000000       -1.74795700000000
H           80.94491300000000        4.47674600000000       -0.37374300000000
H           82.80058899999999        2.70171200000000       -0.42722300000000
H           82.51788200000000       -2.50938800000000        0.98265000000000
H           80.57765499999999       -4.41980100000000        0.86782700000000
H           79.41343199999999       -4.81996100000000       -2.14819500000000
H           79.78569600000000       -8.32898600000000       -2.98787300000000
H           77.95699100000000       -9.84446300000000       -0.51007600000000
H           76.89995300000000       -9.06921700000000        1.15373200000000
H           76.96024800000001       -5.46871700000000        1.32545500000000
H           75.43847799999999       -4.49483100000000       -0.89606600000000
H           73.70152800000000       -2.61091500000000       -0.78479000000000
264
 energy: -528.004579215130 gnorm: 0.352973100988 xtb: 6.5.1 (b24c23e)
Ni          44.44351396005477       -0.04742909200064       -0.02235290661356
C           41.09527926337957        0.07432538711587        0.07760536962880
C           41.76990453791711        1.24868566790862        0.05495258633081
C           41.11600714669611        2.54700789371453        0.05478580630100
C           42.07139296225477        3.47787923784744        0.04638282920716
C           43.36519688549247        2.79287423995753        0.04273490289606
N           43.16766278244297        1.39672165027211        0.05041481302910
C           44.57521286790206        3.42415204813544        0.07405313587817
C           44.60025613992457        4.91368033171381        0.08064116510275
C           44.38491621878797        5.63297705345732       -1.10140428243269
C           44.40707907466057        7.03478140217139       -1.09690299823958
O           44.19325281629330        7.69607010945852       -2.29251012678506
C           44.64184531636008        7.72577043460284        0.11066416765201
O           44.65394970063892        9.11183253062718        0.08848914223162
C           44.85489197460728        6.99876883919981        1.29808360749870
O           45.08475416645514        7.68879124092216        2.47756211978607
C           44.83264622870077        5.60188810196001        1.27527761719962
C           45.84694722196003        2.71744639997997        0.11307230523149
C           47.13840320879880        3.38304857781443        0.24289583550563
C           48.08625654652956        2.43720330576034        0.22952498805534
N           45.99821084949380        1.40617108282084        0.01338883056337
C           47.40731249327718        1.16337295765254        0.07791625378571
C           47.98985339872712       -0.04819526292892       -0.03445640344295
C           47.23585406179978       -1.27857831632000       -0.20413207693952
C           47.80673524414199       -2.48005315489111       -0.51860421889098
C           46.77989621941502       -3.45574756953121       -0.54642038505075
C           45.60372469418785       -2.82372194617149       -0.25254930885883
N           45.82925988983171       -1.44087107473807       -0.03883894686354
C           44.32383122437408       -3.52252354131716       -0.14022756100339
C           44.29651095756459       -5.01617405436090       -0.15978870826854
C           44.43311539925592       -5.74110240442820        1.03024257773323
C           44.40974378559775       -7.14350365485762        1.01970055404908
O           44.55138351999986       -7.80907509589211        2.22355820695890
C           44.24644926211062       -7.83093638502160       -0.20172774518041
O           44.23134100513091       -9.21708304379127       -0.18440130754014
C           44.10501337614562       -7.09952743372093       -1.39711586186199
O           43.94852639390582       -7.78661149927895       -2.59078900214330
C           44.12557836710289       -5.70175524627319       -1.36776816297670
C           43.14599029069909       -2.86216412294747       -0.01804042876108
C           41.82957178835813       -3.47198330248079        0.09875122215118
C           40.95053371590388       -2.46303268542705        0.15096388513813
C           41.70685971460998       -1.22362424156022        0.07145648590534
N           43.00574283133641       -1.45127503657339       -0.02681224741529
H           40.01280853781778        0.11747248117357        0.10254362836694
H           40.05114904659338        2.73979245161580        0.06377555121066
H           41.88982653182165        4.54430644003288        0.05272331936067
H           44.20218952049412        5.09845983243432       -2.02868635743415
H           44.20205686315474        8.68540131047209       -2.32567940734671
H           44.80362059037910        9.61603322275596        0.92632799141717
H           45.23567902003413        7.18859142733533        3.31832061599192
H           44.99347034743194        5.04937796643966        2.19424325068356
H           47.32447136907361        4.44149198973918        0.33395317524991
H           49.15018398253942        2.61497333125691        0.30348230274978
H           48.85493208679315       -2.64907698216666       -0.69859173290059
H           46.89830772959869       -4.50897233761194       -0.74982088090432
H           44.55953913930395       -5.21025432010949        1.96859831132832
H           44.53192780059695       -8.79826506125923        2.25408879940057
H           44.11902770673356       -9.71924205116256       -1.02948590125977
H           43.85330023789417       -7.28515732529974       -3.43910214091434
H           44.01418714979394       -5.14777980734164       -2.29312821535243
H           41.58153258809128       -4.52569026391743        0.13318266331830
H           39.88001955578292       -2.56543924414779        0.23515600254084
Ni          95.72904821505225       -0.01025864662310       -0.02025471092307
C           99.07728561186096       -0.14257906317800        0.06527353491114
C           98.40267341272511       -1.30678919361388       -0.09034155233051
C           99.05655935507943       -2.59672859953024       -0.23766668932162
C           98.10117024633388       -3.52064354548002       -0.35152586804403
C           96.80736767121030       -2.83962852756096       -0.27750586854703
N           97.00489687148959       -1.45336233167265       -0.11162078344710
C           95.59733373479031       -3.47040061685449       -0.31792257637443
C           95.57230063485352       -4.95107888053372       -0.48023180898231
C           95.78764958967373       -5.53175969737823       -1.73618773592092
C           95.76548454676740       -6.92504102679872       -1.89061078072700
O           95.97932830701927       -7.44655240810233       -3.15343864163441
C           95.53071611480443       -7.74844562854657       -0.76913969658709
O           95.51861974944474       -9.12307920296747       -0.94827011491927
C           95.31767219999686       -7.16072116424117        0.49302517334068
O           95.08780951420655       -7.98000112527665        1.58671244271596
C           95.33991820016371       -5.77026010467509        0.62870433575679
C           94.32561152760705       -2.77268791381288       -0.19908089266425
C           93.03413956488792       -3.44869724339302       -0.14553944237650
C           92.08628200618564       -2.50744341952272       -0.05157121009892
N           94.17437758326984       -1.45854485162153       -0.14958852686788
C           92.76527254014565       -1.22463642714033       -0.05783736284236
C           92.18327505540071       -0.00798105779009       -0.03196680661773
C           92.93679754277110        1.23365589739938       -0.06132925028358
C           92.36584008960628        2.46297666188181       -0.23759506618619
C           93.39267130115620        3.43550071410934       -0.15460907218218
C           94.56885183442395        2.77424463634165        0.06572494644997
N           94.34338165645113        1.37609156199661        0.12141853325242
C           95.84874509876916        3.45581839954345        0.25652463024436
C           95.87605361771379        4.94205324670999        0.40639520292543
C           95.73944709244428        5.52741071907974        1.67093441556268
C           95.76281157499497        6.92198584580777        1.81941956014192
O           95.62122286507010        7.44677116882131        3.09092015447337
C           95.92610677225623        7.74344179708296        0.68376301719610
O           95.94127456635339        9.11859753022008        0.85808566664963
C           96.06754164828533        7.15222050733764       -0.58683344610960
O           96.22407234092127        7.97012462919868       -1.69489897957275
C           96.04698783025040        5.76011802723024       -0.71610545211447
C           97.02656885554100        2.78584175797946        0.30308006655969
C           98.34298949846938        3.37848617986457        0.48824410516797
C           99.22202631018814        2.37012579563519        0.42575653971246
C           98.46570040310085        1.14772097616248        0.20628083236440
N           97.16682615427811        1.38502800519823        0.13444981108730
H          100.15975578938271       -0.18826674535908        0.08515895604682
H          100.12141527080914       -2.78929155828608       -0.25058613707026
H           98.28273430019979       -4.58091879068639       -0.46610049203828
H           95.97037280265661       -4.89558691343908       -2.59690916321059
H           95.97049970971612       -8.42574078093903       -3.29856090118767
H           95.36894563799829       -9.71897726445263       -0.17297918916454
H           94.93688971291843       -7.57829386348807        2.47873315673647
H           95.17909435024140       -5.32547232946161        1.60437331928458
H           92.84808010401549       -4.51063862160834       -0.17503614203276
H           91.02236855625587       -2.69246481023131        0.00172777514329
H           91.31762750953553        2.65125534361118       -0.39723094965709
H           93.27425550789842        4.50497681379643       -0.23732086542085
H           95.61302499617905        4.89362016745442        2.54306946386816