120
 energy: -204.067705762394 gnorm: 0.669255645659 xtb: 6.5.1 (b24c23e)
Ni          13.82340300000000        0.03119900000000       -0.00149000000000
C           10.48886000000000       -0.09496600000000       -0.04314900000000
C           11.14975100000000       -1.25636600000000       -0.04238100000000
C           10.49786700000000       -2.55904700000000        0.00801600000000
C           11.43656100000000       -3.48593700000000       -0.04684000000000
C           12.74144600000000       -2.81792900000000       -0.14609200000000
N           12.56584700000000       -1.40054300000000       -0.13171500000000
C           13.93188300000000       -3.44413500000000       -0.26095500000000
C           13.98312600000000       -4.92478300000000       -0.31023500000000
C           13.51242400000000       -5.58543800000000       -1.37904900000000
C           13.50156400000000       -7.09107800000000       -1.45324000000000
N           14.30522500000000       -7.70854000000000       -0.39511400000000
C           14.75197800000000       -6.98025700000000        0.75321400000000
C           14.60279600000000       -5.65890700000000        0.80984500000000
C           15.22227400000000       -2.70959000000000       -0.33814300000000
C           16.50255400000000       -3.33912400000000       -0.68561800000000
C           17.43705900000000       -2.41165500000000       -0.62534000000000
N           15.36804400000000       -1.44648500000000       -0.07889400000000
C           16.76106000000000       -1.17945400000000       -0.23952900000000
C           17.35707100000000        0.00022500000000        0.00006400000000
C           16.59304800000000        1.20950600000000        0.37540200000000
C           17.11718100000000        2.27111200000000        0.97533300000000
C           16.07507200000000        3.27696200000000        1.05866000000000
C           14.98514100000000        2.76322400000000        0.49890600000000
N           15.22328800000000        1.43138100000000        0.04134400000000
C           13.71401600000000        3.50398300000000        0.29829200000000
C           13.75323600000000        4.98787800000000        0.30362300000000
C           13.07657000000000        5.68631600000000        1.23063800000000
C           13.05214100000000        7.19337200000000        1.24191600000000
N           14.05892900000000        7.77649700000000        0.35132600000000
C           14.73521200000000        7.00810600000000       -0.64973200000000
C           14.59665200000000        5.68477700000000       -0.68762400000000
C           12.55267200000000        2.85558700000000        0.08474100000000
C           11.25123400000000        3.46858000000000       -0.17672400000000
C           10.38792700000000        2.47432800000000       -0.26111500000000
C           11.12982600000000        1.22939400000000       -0.06901700000000
N           12.39183800000000        1.43947000000000        0.13325500000000
H            9.40563300000000       -0.11995700000000       -0.02833500000000
H            9.43497000000000       -2.75007600000000        0.08114100000000
H           11.24722900000000       -4.55068000000000       -0.02403700000000
H           13.06539600000000       -5.03536300000000       -2.19928800000000
H           13.89886600000000       -7.40716600000000       -2.44149700000000
H           12.45304600000000       -7.44511400000000       -1.36464100000000
H           14.45604000000000       -8.74143300000000       -0.42187000000000
H           15.23372100000000       -7.50506700000000        1.56874000000000
H           14.96199200000000       -5.11688600000000        1.67688900000000
H           16.66995600000000       -4.37574300000000       -0.94776200000000
H           18.48820700000000       -2.56671500000000       -0.82667200000000
H           18.13861100000000        2.38463300000000        1.31363700000000
H           16.17906100000000        4.27219000000000        1.47180300000000
H           12.47695900000000        5.16422900000000        1.96728400000000
H           13.23709100000000        7.54675900000000        2.27800800000000
H           12.04448100000000        7.53692200000000        0.92640700000000
H           14.20160700000000        8.81030100000000        0.36748600000000
H           15.37603000000000        7.50524400000000       -1.36725500000000
H           15.12508200000000        5.11413100000000       -1.44190100000000
H           11.01308400000000        4.51844000000000       -0.28439200000000
H            9.32550200000000        2.57673000000000       -0.44264000000000
Ni          27.46397700000000       -0.02969400000000       -0.00810200000000
C           30.79852000000000        0.10247200000000       -0.02171000000000
C           30.13762800000000        1.23663900000000        0.22832300000000
C           30.78951300000000        2.49814200000000        0.55715300000000
C           29.85081900000000        3.41520200000000        0.70252300000000
C           28.54593400000000        2.78406700000000        0.46220300000000
N           28.72153200000000        1.39663000000000        0.17201700000000
C           27.35549600000000        3.42033200000000        0.48442600000000
C           27.30425300000000        4.87704900000000        0.75410100000000
C           27.77495500000000        5.75171600000000       -0.14799900000000
C           27.78581500000000        7.23818900000000        0.10270900000000
N           26.98215400000000        7.61414400000000        1.26870600000000
C           26.53540100000000        6.65635800000000        2.23395100000000
C           26.68458400000000        5.35364900000000        2.00564800000000
C           26.06510500000000        2.71947600000000        0.25137400000000
C           24.78482500000000        3.40891900000000        0.04712100000000
C           23.85032000000000        2.49012800000000       -0.09307700000000
N           25.91933500000000        1.43016400000000        0.23346800000000
C           24.52631900000000        1.20383500000000        0.01926200000000
C           23.93030800000000        0.00022500000000        0.00006400000000
C           24.69433099999999       -1.26143400000000        0.10709400000000
C           24.17019800000000       -2.42706700000000        0.46517900000000
C           25.21230700000000       -3.42736000000000        0.33066800000000
C           26.30223800000000       -2.80545000000000       -0.10577100000000
N           26.06409200000000       -1.40643600000000       -0.26680200000000
C           27.57336300000000       -3.48588400000000       -0.46070500000000
C           27.53414300000000       -4.93633800000000       -0.77400200000000
C           28.21081000000000       -5.81747200000000       -0.01850500000000
C           28.23523900000000       -7.29182500000000       -0.33096500000000
N           27.22845000000000       -7.67020200000000       -1.32596100000000
C           26.55216700000000       -6.70485300000000       -2.13875900000000
C           26.69072700000000       -5.40423400000000       -1.89172800000000
C           28.73470700000000       -2.80676300000000       -0.53010800000000
C           30.03614600000000       -3.34934800000000       -0.91705100000000
C           30.89945300000000       -2.36015500000000       -0.78607000000000
C           30.15755300000000       -1.18546900000000       -0.33123600000000
N           28.89554100000000       -1.43406400000000       -0.17876900000000
H           31.88174600000000        0.12370100000000       -0.00187700000000
H           31.85240900000000        2.66902300000000        0.66957600000000
H           30.04015000000000        4.45023500000000        0.95333100000000
H           28.22198300000000        5.39051800000000       -1.06719000000000
H           27.38851300000000        7.75903000000000       -0.79466900000000
H           28.83433300000000        7.56495700000000        0.26523400000000
H           26.83133900000000        8.62870700000000        1.46427400000000
H           26.05365800000000        6.99389100000000        3.14311600000000
H           26.32538700000000        4.63815800000000        2.73614500000000
H           24.61742300000000        4.47764500000000        0.01358700000000
H           22.79917200000000        2.68478800000000       -0.25643500000000
H           23.14876800000000       -2.61055600000000        0.77123200000000
H           25.10831800000000       -4.48806900000000        0.52056700000000
H           28.81042000000000       -5.46566700000000        0.81303200000000
H           28.05028900000000       -7.85936200000000        0.60512900000000
H           29.24289900000000       -7.55964700000000       -0.71286000000000
H           27.08577200000000       -8.68338000000000       -1.53207300000000
H           25.91134900000000       -7.03639500000000       -2.94626400000000
H           26.16229700000000       -4.68499000000000       -2.50594200000000
H           30.27429500000000       -4.35163000000000       -1.24755200000000
H           31.96187700000000       -2.42120800000000       -0.98534400000000
C           19.90642700000000        0.01266100000000        0.00250500000000
C           18.65415600000000       -0.00652000000000       -0.00184300000000
C           21.22009500000000        0.01189500000000        0.00443800000000
C           22.72322900000000       -0.00652000000000       -0.00184300000000
120
 energy: -204.245537515720 gnorm: 0.335530166744 xtb: 6.5.1 (b24c23e)
Ni          13.83372108560448        0.02156008774020       -0.00106131163807
C           10.48896029416054       -0.07594375580446       -0.04398889006676
C           11.15709831700133       -1.25527583317383       -0.04140396064233
C           10.49966341346354       -2.55001882747946        0.00815042210763
C           11.44999613496206       -3.48583137613770       -0.04750700165817
C           12.74250941375454       -2.80815483443502       -0.14334496401108
N           12.55029491697870       -1.41150754494196       -0.13187944675482
C           13.94913063695435       -3.44030167633339       -0.25934408111623
C           13.99093469304312       -4.92262525776749       -0.30960337347870
C           13.51240908283205       -5.58669905371301       -1.37093603302069
C           13.50442690985194       -7.09336006301473       -1.44773589549460
N           14.31426013639908       -7.70472842919993       -0.38516948922260
C           14.74512315525589       -6.98492882698150        0.73838782280175
C           14.60184660147931       -5.65334496055508        0.80375143698757
C           15.20974132112557       -2.73026886770221       -0.33848392525096
C           16.48185638686711       -3.35437646770609       -0.68243119197497
C           17.42624538208180       -2.40446834492365       -0.62272943089046
N           15.36612653494914       -1.43911695958260       -0.09338830428399
C           16.74187039276429       -1.18868712918326       -0.24353348176205
C           17.34355882851891        0.01497537736627        0.00884490376671
C           16.57458790562829        1.20760119557046        0.36535440076698
C           17.11681904140931        2.29632177642406        0.97981229251601
C           16.09733140445774        3.28116159110928        1.05963717547619
C           14.97553067354266        2.75272479862266        0.48655266013285
N           15.21546134697564        1.42718184996854        0.05841761034635
C           13.73232233753846        3.49293410802375        0.29400485977039
C           13.76448147013313        4.97994950024427        0.30535962805412
C           13.07904318657079        5.68421812545197        1.22111885455512
C           13.05686592250864        7.19374561082416        1.23701829150402
N           14.06965589063309        7.77170767559405        0.34352161814647
C           14.72449410860858        7.01217892798819       -0.63685237193104
C           14.59421885715148        5.67804734588682       -0.68166380307307
C           12.55560452669328        2.84981113010622        0.08207727280600
C           11.26179185596180        3.46309370042064       -0.17444651301507
C           10.37812053355220        2.45887271351030       -0.25876247859410
C           11.11080107318143        1.21836193020638       -0.06840636898356
N           12.39933491877785        1.44086788881306        0.12154489897524
H            9.40590988774848       -0.11098191929415       -0.03015132423152
H            9.43655118440019       -2.73772442464498        0.08103281822155
H           11.26340806515248       -4.55070444273114       -0.02487465546533
H           13.06773905737735       -5.04253715479854       -2.19902125640839
H           13.89612833215593       -7.40961652718336       -2.43344797554390
H           12.45705791362164       -7.44781180851129       -1.36837892320039
H           14.45242730241412       -8.71908454136091       -0.41695216242822
H           15.22814200764514       -7.51702376686984        1.55327816930950
H           14.95941308101043       -5.11399112641965        1.67284858983769
H           16.65632418669976       -4.38414996145428       -0.94649500455139
H           18.48117527004245       -2.55162135073624       -0.82251115894785
H           18.13750536376673        2.39225555140706        1.31689848122439
H           16.18729747489115        4.27252511517855        1.47454314047951
H           12.47930418072181        5.17083719738847        1.96688230328687
H           13.23605350232594        7.54881633994837        2.26965722305117
H           12.04844123446040        7.53887609831076        0.93056215461190
H           14.19897595611070        8.78751287043526        0.36310251548352
H           15.36711764189324        7.51705165802030       -1.35328829122998
H           15.12223724291271        5.11101337688121       -1.43846966882171
H           11.02830316873251        4.51466032734935       -0.28202549115472
H            9.32069371234152        2.56543467342650       -0.44254704203065
Ni          27.45325815222177       -0.02025024741396       -0.00556823904903
C           30.79846841991871        0.08401157397755       -0.02662155390560
C           30.13024717185277        1.23540754095903        0.22907099707711
C           30.78769722566005        2.48923991106638        0.55532627960882
C           29.83726926996469        3.41523771198889        0.70189798125138
C           28.54490145812919        2.77405460255390        0.46277741639198
N           28.73712147451259        1.40725371569082        0.17424035563139
C           27.33814649608932        3.41618016313572        0.48505951075085
C           27.29648370097803        4.87471733228226        0.75425673926931
C           27.77499448201454        5.75116794279266       -0.13979148099198
C           27.78294078221652        7.23921633630907        0.10857252716921
N           26.97312802010217        7.60828848023357        1.27759689164926
C           26.54226487110333        6.66407182410469        2.22046693039101
C           26.68555408699486        5.34949820730738        1.99850148974972
C           26.07704025725080        2.74040663900408        0.25546850478719
C           24.80673659696814        3.42394585930788        0.05376528312686
C           23.86133159847702        2.48282257124834       -0.09238222870060
N           25.91836823368608        1.42532089758334        0.21817299760540
C           24.54337300717873        1.21742805641267        0.01679289525406
C           23.92800635438982       -0.01689033602530        0.00457359357252
C           24.71224655867909       -1.25985302546872        0.09796389920697
C           24.17093312435005       -2.45291495924580        0.46496437012830
C           25.19079937174360       -3.43210256276804        0.33064229186275
C           26.31177955213845       -2.79284152488605       -0.11561381542258
N           26.07095016079059       -1.40598339284030       -0.24990086763669
C           27.55532446275900       -3.47423320158466       -0.46253337467741
C           27.52295739691292       -4.92895643864360       -0.77064628099286
C           28.20834901594664       -5.81338450876902       -0.02735942813254
C           28.23051185760753       -7.29113862097004       -0.33582833319691
N           27.21772283535516       -7.66385448605122       -1.33255131522902
C           26.56287995559292       -6.71159112981396       -2.12705396475926
C           26.69315765543876       -5.39894193441237       -1.88446302306906
C           28.73181547681058       -2.80063036082738       -0.53142666203759
C           30.02562952727930       -3.34449179138584       -0.91368194019186
C           30.90925602299293       -2.34558573491955       -0.78047038140312
C           30.17655061672778       -1.17481285402245       -0.32828046970262
N           28.88803656406265       -1.43283752103716       -0.19047442757505
H           31.88149707546882        0.11530225303993       -0.00558730330284
H           31.85081394249278        2.65695188793021        0.66680481207437
H           30.02393735239483        4.45043702191194        0.95251328871081
H           28.21963953842507        5.39746552008161       -1.06539719700023
H           27.39124898433177        7.75969175087067       -0.78628285408956
H           28.83031679728633        7.56838476122427        0.26215740901502
H           26.83494937095878        8.60582240419673        1.46427534528093
H           26.05923959337659        7.00887188818286        3.13057304713067
H           26.32795379303631        4.63618760063047        2.73156752210581
H           24.63151592957853        4.48600336162698        0.01667355784111
H           22.80615342946229        2.66882267073131       -0.25558112671076
H           23.14982001857904       -2.61858555688281        0.77276508800301
H           25.10031608606751       -4.48921067953275        0.52310422687674
H           28.80807760753345       -5.47203734827382        0.81121979397803
H           28.05132592985760       -7.85957947253423        0.59653182753182
H           29.23893702214792       -7.56244747266868       -0.70922070120217
H           27.08840535750948       -8.66018497600226       -1.53146345107731
H           25.92026245862425       -7.05092573969930       -2.93516210699259
H           26.16513909862368       -4.68268179299970       -2.50192199944062
H           30.25910180067557       -4.34846092672842       -1.24444093051493
H           31.96668690003083       -2.41019829282667       -0.98282883662472
C           19.95281404003775        0.01898920564788        0.00317153502986
C           18.69927440729959        0.01176328781630       -0.00017776590402
C           21.27558929038591        0.00567671193346        0.00196305546778
C           22.59620990312135       -0.02485111212605       -0.00161567733861
120
 energy: -204.300798108580 gnorm: 0.256431096207 xtb: 6.5.1 (b24c23e)
Ni          13.85146714591160        0.01250496532691       -0.01008965443711
C           10.49322793496504       -0.05590803773616       -0.04558601417200
C           11.16740445774432       -1.25540395305435       -0.03920677310102
C           10.50569992366939       -2.53894838500143        0.00857737100308
C           11.46688873024796       -3.48184034779911       -0.04723112007506
C           12.74264819033175       -2.79531641214210       -0.13954576144948
N           12.53416835338471       -1.42357420015010       -0.12844326042553
C           13.96872393312510       -3.43076821883318       -0.25820914415797
C           13.99893937726123       -4.91745299850884       -0.30845587861295
C           13.51141794914026       -5.58600954680019       -1.36294125122879
C           13.50638294593204       -7.09293209879046       -1.44205998057629
N           14.32217819133051       -7.69510844867351       -0.37506264089030
C           14.73731879090106       -6.98581520280199        0.71969739857612
C           14.60219812547728       -5.64605070060673        0.79749016834315
C           15.19697102711955       -2.74627776497218       -0.33908263334784
C           16.46010777268247       -3.36228946704110       -0.67386885314350
C           17.40919079365553       -2.39455095089118       -0.61819261790432
N           15.36838040763421       -1.42231576014950       -0.11161939797096
C           16.72624631279236       -1.18720261665964       -0.25032346067511
C           17.33843420379574        0.03368992821482        0.02003248208267
C           16.56426433177429        1.20032880604646        0.35591528381245
C           17.11666990302401        2.32655224695299        0.97680804938403
C           16.12628859972900        3.28194381176201        1.05141010054772
C           14.96928932051940        2.73788055443588        0.47379358872866
N           15.21597432081090        1.41843754255793        0.09017544203876
C           13.75888643996030        3.47319019222434        0.28950945333404
C           13.78144844642873        4.96604420744627        0.31008796168006
C           13.08257953484740        5.67756207755327        1.21170979940229
C           13.06084152540123        7.18915681953013        1.23100794965304
N           14.07948994579459        7.75993657989508        0.33546990753235
C           14.71209033954515        7.01143328505715       -0.62014803062651
C           14.59491864525607        5.66820484144961       -0.67395667632869
C           12.55972982254207        2.83432219900074        0.07330777082014
C           11.27615698806351        3.44916248525996       -0.17172606919498
C           10.37377830679834        2.44226851070471       -0.25225932711363
C           11.09224159258861        1.20535790625467       -0.06882351061732
N           12.41011395005156        1.44068106320072        0.10559681290232
H            9.40920623459294       -0.10246166746277       -0.03551320814113
H            9.44189262337089       -2.71988086816551        0.08044828532753
H           11.28761220803337       -4.54752737382159       -0.02591757004420
H           13.07010124237136       -5.05253181931587       -2.19995551693899
H           13.89622447316217       -7.41376483317900       -2.42228054278641
H           12.46289856486037       -7.45445768202835       -1.36941724028726
H           14.44718447928966       -8.69529155022488       -0.41050315976052
H           15.21973849104231       -7.53096041324187        1.53018265262020
H           14.95703419156540       -5.11108120703724        1.66871175606327
H           16.63775782118447       -4.39008633328228       -0.94141606778788
H           18.46617641662198       -2.53201394506184       -0.81616696741047
H           18.13622537973642        2.40115684043254        1.31873487912640
H           16.19502079733525        4.27126383941590        1.47389521867041
H           12.48207974663148        5.17886948653738        1.96730593383506
H           13.23839933599083        7.55039892385207        2.25804137981365
H           12.05496138413633        7.54283507872442        0.93194892847783
H           14.19482476288217        8.76210540338666        0.35703508634826
H           15.35316211013201        7.53015374537761       -1.33276356017065
H           15.12051484133932        5.10743917006343       -1.43526576848449
H           11.05142700733371        4.50346436405123       -0.27820988436224
H            9.31826704385258        2.55168961252395       -0.43974646445361
Ni          27.43429016533897       -0.00967625479731       -0.01254572784158
C           30.79407500705402        0.06482240999813       -0.03247323476468
C           30.11969817914087        1.23499302393827        0.23121939280931
C           30.78134934372746        2.47833858979678        0.55335127302128
C           29.81990634984800        3.41114560624518        0.70117770752742
C           28.54408763321939        2.76014878827017        0.46373246463267
N           28.75289239114563        1.41795862979722        0.18022684935012
C           27.31697087613492        3.40492242610871        0.48399329830552
C           27.28772384474114        4.86857410108978        0.75396977023155
C           27.77575932500258        5.74830040209774       -0.13206621341179
C           27.78096546976853        7.23728545155176        0.11406138347908
N           26.96521025574285        7.59659686738237        1.28538722481827
C           26.55011883422178        6.66878747126627        2.20234965954614
C           26.68509311005932        5.34348089568376        1.99072916451537
C           26.08750160768791        2.75275027262501        0.25806228282651
C           24.82686221270577        3.42822837387626        0.06347809010103
C           23.87541430541248        2.47202640479016       -0.09008217708718
N           25.91060687517788        1.40907544129590        0.19606528310407
C           24.55027896961926        1.21233819458403        0.01134171401197
C           23.91787093531258       -0.03541118660630        0.01201946067472
C           24.71459813138785       -1.24596525202574        0.08862817314543
C           24.16823126448793       -2.48073561934414        0.45502835835843
C           25.16054696396118       -3.42963643201734        0.32278674587352
C           26.31612168748530       -2.77315131175635       -0.12506506934450
N           26.06515841892208       -1.40097327526581       -0.21654467658606
C           27.52746014373394       -3.45286357162143       -0.46265483309189
C           27.50549987815323       -4.91585775001029       -0.76279274095663
C           28.20463788679689       -5.80453482650245       -0.03513534111309
C           28.22649633632377       -7.28517260945563       -0.34070209818017
N           27.20789084178809       -7.65055685460859       -1.33786464846228
C           26.57532054640376       -6.71435140868242       -2.11055274721135
C           26.69239984188729       -5.39084606645846       -1.87478031189152
C           28.72719921162765       -2.78326872660888       -0.53667511660938
C           30.01092815153002       -3.33140438833390       -0.90790550838272
C           30.91343068457513       -2.33076166725508       -0.77049409112881
C           30.19497662806434       -1.16199926831155       -0.32586208914729
N           28.87706579805067       -1.42906005335599       -0.20604313135538
H           31.87810950805137        0.10819143147641       -0.01263051551244
H           31.84521096078024        2.63972183060410        0.66241686695979
H           29.99945660518922        4.44742951472923        0.95076295649649
H           28.21721107404787        5.40726404415410       -1.06414002006335
H           27.39118141126032        7.76119218605506       -0.77442874154180
H           28.82443576568542        7.57495135026818        0.26258932323225
H           26.84021914238252        8.58110237773288        1.46545132808348
H           26.06769982705927        7.02735270311811        3.11095799250797
H           26.33027278300852        4.63416329705585        2.72695867457847
H           24.64987452365763        4.48980518238539        0.02279552053617
H           22.81929320520257        2.65035669531769       -0.25390242936094
H           23.14960507327333       -2.62888737682387        0.77316769084030
H           25.09250114876658       -4.48694694759036        0.52292133490566
H           28.80524670703121       -5.47984908825036        0.80989473751235
H           28.04898274697709       -7.85854552117284        0.58482638149009
H           29.23237619300453       -7.56651513437046       -0.70870173200500
H           27.09257682881161       -8.63401221591219       -1.53191569325165
H           25.93425142294309       -7.06808273091511       -2.91789626564935
H           26.16680343290985       -4.67984051963708       -2.49805608532680
H           30.23574808359141       -4.33828465469427       -1.23823380021570
H           31.96897994807221       -2.39740265408413       -0.97712324431491
C           19.98337931218039        0.02534032993762        0.00246329014981
C           18.74610881544290        0.03409464631715        0.00845419473346
C           21.35547376001463       -0.00589528353409        0.00304168971631
C           22.50879987871388       -0.04286697335287        0.00068035228670
120
 energy: -204.326320399553 gnorm: 0.076841219066 xtb: 6.5.1 (b24c23e)
Ni          13.86160346701762        0.00481451901406       -0.01601061596965
C           10.49413666441273       -0.04944710595247       -0.04767385615587
C           11.17114521102757       -1.25465071465230       -0.03702730538563
C           10.51169501389177       -2.53203763063081        0.01014372225147
C           11.47810990014908       -3.47713583411802       -0.04494425503745
C           12.74246576607799       -2.78872467914172       -0.13513656177625
N           12.52862028801009       -1.42713961925608       -0.12518526494486
C           13.97205237752734       -3.42718281240228       -0.25734622865373
C           14.00250236039805       -4.91347785471995       -0.30919146363689
C           13.50905209558248       -5.58581389658462       -1.35867221531106
C           13.50597391379655       -7.09140670748300       -1.43896836358668
N           14.32537608826011       -7.68443393656220       -0.37431756446167
C           14.73447570003786       -6.98072533090214        0.70923809064602
C           14.60501134692704       -5.63916149824022        0.79371309856590
C           15.18338225696425       -2.75086045291397       -0.34388920897210
C           16.44167309407717       -3.36489434496457       -0.66512113098156
C           17.38557019941493       -2.38524156821457       -0.61446759711655
N           15.35244623397440       -1.41239833289818       -0.13299940997847
C           16.69973052462266       -1.17908670872691       -0.25846347169761
C           17.30908914885937        0.04741718455613        0.02737765415524