196
 energy: -360.453679173341 gnorm: 0.000901419863 xtb: 6.5.1 (b24c23e)
C           32.29062124827074       -0.08250442227652        0.01347665080412
C           32.90237348432983       -1.31880183800685       -0.14791315829013
C           32.25342676541515       -2.57849322230777       -0.28250697203674
C           33.21740353636366       -3.53529628053560       -0.43032701927551
C           34.48665620892727       -2.88953098169647       -0.39873109961916
N           34.24589383601871       -1.55740533585090       -0.21792051867617
C           35.75098746738068       -3.48067741908091       -0.49927371891399
C           36.96634282769565       -2.79694451925420       -0.41264431002942
C           38.26534249810142       -3.42814518514986       -0.56537045025664
C           39.18382230619731       -2.45044447711689       -0.42497434898266
N           37.11724618856444       -1.46073952709197       -0.20400497452109
C           38.44490585795609       -1.22265338738950       -0.20000034488935
C           39.07780829619685        0.02278151653769       -0.02070306115598
C           38.44146108865470        1.26497924267571        0.15464226523175
C           39.08494709015535        2.51438535062439        0.36141820371696
C           38.11712471869509        3.47037665328482        0.49643773498410
C           36.85109956873098        2.83421762896510        0.36643536046651
C           35.58722971484545        3.42705923353783        0.45771835113090
C           35.55105426757603        4.89287352163518        0.67098368999801
C           36.11803919443254        5.76197366967428       -0.26523633495573
C           36.08098245223704        7.12898029817905       -0.06099428523198
C           35.48175139582109        7.65331204030238        1.08591190735666
C           35.47136523327439        9.12506278106587        1.26272227882458
O           34.87476859157800        9.52550690893684        2.39598986529811
O           35.94644061944047        9.90779199784349        0.47974304859701
C           34.91602389833963        6.79006866756820        2.02486396465680
C           34.94942065777911        5.42268563237973        1.81572395893726
C           34.37142297338949        2.74031638785888        0.36780971378358
C           33.06524578649341        3.38018850103083        0.40768162503721
C           32.15351466725197        2.39495151249789        0.28475509130163
C           32.90121901840308        1.15601117873566        0.15898226763781
N           34.23344293990016        1.40359005198988        0.20513091392661
N           37.09919829058747        1.50217266059150        0.16705054817384
C           35.78313561532040       -4.94630978667011       -0.72090942131574
C           35.21261173673209       -5.49660500139586       -1.87158240467580
C           35.24446855648716       -6.86295308469266       -2.08881293167241
C           35.84395083471844       -7.70400712275136       -1.15081806912376
C           35.90529533527859       -9.17357872426504       -1.33696635727875
O           35.32948847757765       -9.59560916086799       -2.47289535507406
O           36.41581786742673       -9.93698373633636       -0.55689843972463
C           36.41033737335885       -7.15910578648692        0.00319114180183
C           36.38272738113201       -5.79301067734013        0.21512009182691
H           31.20539525947802       -0.09486750664645        0.02208655360620
H           31.18473914205425       -2.72058572610553       -0.26165668568950
H           33.06939587232718       -4.59718115950438       -0.54188672531049
H           34.96998956396344       -0.85067856899507       -0.14378119880544
H           38.43001622342216       -4.47437496750462       -0.76568636744594
H           40.25831404689919       -2.52445791797243       -0.47475327931458
H           40.15317741037988        2.65225712299801        0.40680550149972
H           38.26392784256429        4.52199527410317        0.68105611075963
H           36.57123815095375        5.35846508994724       -1.16366188313824
H           36.51360107722093        7.80913265188484       -0.78656555662500
H           34.91050043392684       10.49497186751005        2.43551377317106
H           34.45304185931467        7.19232230956533        2.91816503379246
H           34.52209435783397        4.75141835462352        2.55203038181048
H           32.89451781942424        4.44051525174462        0.50177275379408
H           31.07744543207148        2.46839381362020        0.26823572170779
H           36.37723444719742        0.79741026928658        0.05862788266740
H           34.75895507268239       -4.84180656485161       -2.60722164081493
H           34.80671245916890       -7.28105237100622       -2.98758477583204
H           35.41408782721865      -10.56177602610456       -2.51932618547756
H           36.86980347446335       -7.82265027595815        0.72753409902651
H           36.81298848652010       -5.37305298429455        1.11709162768772
C           65.93196028938551        0.07143140322080        0.06015387978637
C           65.31677415795124        1.25371591242255        0.45049668001360
C           65.96134367030388        2.44618261275832        0.88494283634857
C           64.99470065266850        3.37272898204874        1.15632629797716
C           63.72819769207204        2.77917531364654        0.88640694537509
N           63.97304012118262        1.49984187485597        0.47564015223524
C           62.46244462946400        3.35953290802507        1.02364675803504
C           61.25011793748404        2.70768700818339        0.78230511314310
C           59.95163188343955        3.35205355900681        0.87019052144217
C           59.03545166115718        2.40610200064739        0.57839476830857
N           61.10210013071872        1.40434513306079        0.42121418517631
C           59.77548209520096        1.18918842479587        0.30387182761679
C           59.14475133171519       -0.02950188979712       -0.01359076771737
C           59.78440932027659       -1.23976542620166       -0.33646313238499
C           59.14582761945517       -2.47066557783970       -0.64415946906852
C           60.11658678099205       -3.38912420997316       -0.93269774714669
C           61.37931032618598       -2.74369057313864       -0.81712355499450
C           62.64454410912024       -3.30745298197325       -1.01494959418307
C           62.68370867205185       -4.72087888312962       -1.45732544048854
C           62.08833749724970       -5.10170064434633       -2.66326456548841
C           62.13138142121350       -6.41992226736301       -3.07791489045525
C           62.76525410634648       -7.38439727053286       -2.29212473406115
C           62.78289813935555       -8.78477422999149       -2.77774356609955
O           63.41652714787900       -9.63161116072629       -1.95211573095317
O           62.28302962032785       -9.15315274416380       -3.81031803649179
C           63.35782805700836       -7.01056878800952       -1.08548365900289
C           63.31812096837004       -5.68965809567570       -0.67506058751628
C           63.85846487738603       -2.63747170921750       -0.82688364596858
C           65.16560259966998       -3.22181240235063       -1.08603899298223
C           66.07474889333696       -2.27506475606824       -0.77914494117690
C           65.32430383145284       -1.10913261660935       -0.34632402765351
N           63.99309629148277       -1.36047242620553       -0.39811101137621
N           61.12699911060989       -1.45051017792723       -0.44413631277886
C           62.42246622107898        4.77562589470557        1.45992476771212
C           63.02166403342481        5.77229011178170        0.68543750888112
C           62.98281580784897        7.09567377168732        1.08854740185799
C           62.34715127756433        7.44294334643741        2.28102127366810
C           62.27788414539560        8.84514773116382        2.75736284210629
O           62.88408209957167        9.72045981799779        1.94109450452209
O           61.73570355418532        9.19101558374220        3.77631215544750
C           61.75074413925469        6.44980546691525        3.06041182840575
C           61.78558170227559        5.12923222432838        2.65265159898752
H           67.01714521299687        0.08131575791845        0.07438151788490
H           67.02903487125106        2.56427812413722        0.97880911037976
H           65.13926600069630        4.37714888768142        1.51989688409896
H           63.25142495689702        0.83143878973012        0.22711494931012
H           59.78617090943833        4.39013571641614        1.10873086404037
H           57.96203151527698        2.49899328893612        0.53830553038994
H           58.07873567729924       -2.62404225366393       -0.63931262377663
H           59.97439113892204       -4.42532773760368       -1.19282353065186
H           61.60860794492712       -4.35221857820498       -3.28258325349233
H           61.67759679152191       -6.72036618677722       -4.01601338360155
H           63.38320285819001      -10.52123038311889       -2.33975667400594
H           63.84701579885711       -7.75650344191493       -0.47031808041963
H           63.76673661431531       -5.40218216648760        0.26910107374424
H           65.33879104562013       -4.21648799253372       -1.46406705016653
H           67.15055873447731       -2.32686947212001       -0.83866327536339
H           61.84613031499502       -0.75585241034425       -0.27107983227693
H           63.50301464519905        5.50478969097826       -0.24856728820934
H           63.44310378233374        7.86371077670471        0.47826934261671
H           62.79123405624761       10.60928000618122        2.32090190350667
H           61.26293939017658        6.73053469273424        3.98746882964739
H           61.33206039990084        4.35806746574085        3.26484689914748
C           41.70736266340870        0.05580703583044       -0.00325416172728
C           40.48612307789589        0.04048220092535       -0.01498521341736
C           43.05825123711548        0.06633784696705        0.01101823068640
C           44.27959598242595        0.07035727319146        0.03012134294148
C           55.16384198166418       -0.04927590936242        0.01489317387781
C           53.94262481750980       -0.03112884896227        0.02942531134275
C           56.51495368024018       -0.05480817449796        0.00028242308479
C           57.73627298795950       -0.04849417243696       -0.01085087858079
C           45.68716620466637        0.07104086762015        0.04702791161227
C           46.32081294752514        1.03222838425947       -0.76170773859651
C           45.67834981716696        1.97427174721827       -1.60702161204377
C           46.64725093555688        2.72703741291664       -2.21131896394864
C           47.91090994937981        2.27132173043198       -1.74488956596815
N           47.66284396541069        1.24094992389805       -0.87845786317268
C           49.17432787517205        2.75210090364912       -2.10927001507294
C           50.39532784282589        2.23770133764962       -1.66765765032038
C           51.68680848368228        2.80063977144092       -2.02064189359827
C           52.61654046304026        2.02996543685481       -1.41969681718768
N           50.56089757760964        1.16353556986480       -0.84943789134500
C           51.89174494315309        1.00598374754111       -0.69284886802572
C           52.53512872120059       -0.00523905309665        0.04593957366646
C           51.90062043508031       -0.99795009086301        0.81488497591741
C           52.54140473558366       -2.01964972972246        1.56334131120008
C           51.57263682182774       -2.74457559619954        2.20125204485778
C           50.31099557355240       -2.18237416603856        1.86369413753028
C           49.04899570944787       -2.61620017923456        2.28738109185480
C           49.02916920224843       -3.73606101274944        3.25913120194216
C           48.40982590125145       -4.94677661428946        2.93803911690188
C           48.39181420635850       -5.98493156832435        3.85122256479126
C           48.98814980593485       -5.83082106153088        5.10421606770452
C           48.93800004505255       -6.97005269546014        6.05161095947672
O           49.53589787316949       -6.71799940494950        7.22610517478210
O           48.41770513875919       -8.03026552250117        5.81406195598742
C           49.60777522904665       -4.62393660406512        5.42984915903549
C           49.62977058630984       -3.58840086295136        4.51220112758728
C           47.82744411362579       -2.07993198005258        1.87521649407277
C           46.53641873089406       -2.53183249510679        2.36358955371086
C           45.60664230077899       -1.78948313330567        1.72824309622215
C           46.33114282962260       -0.87520505544576        0.86710058134174
N           47.66153831470287       -1.06635472973147        0.98268849641269
N           50.55936998790687       -1.13796771993325        1.01462090498762
C           49.19841275240403        3.89819454335515       -3.04951247209942
C           48.60613026979469        5.11511746100002       -2.70125093119696
C           48.62846368362666        6.17992197876313       -3.58306401790203
C           49.23855726700576        6.04687551681997       -4.83181171754349
C           49.23192061369374        7.21502775944039       -5.74465675155533
O           49.84732128293443        6.98571644582984       -6.91442688122208
O           48.72828288733367        8.27821963255659       -5.48499805694850
C           49.83020440156852        4.83367018993586       -5.18500734799069
C           49.81091637397753        3.77089670434647       -4.29901819909495
H           44.61093832452922        2.05421790127782       -1.73485346315994
H           46.50151248266090        3.52092163568380       -2.92541529087554
H           48.38114998657620        0.70644939831782       -0.40142918397941
H           51.83945371740234        3.67476249098537       -2.63258194896499
H           53.68998988479183        2.12840730055266       -1.44316382258020
H           53.60767396215111       -2.17378530474724        1.60132743013176
H           51.71631747488945       -3.59987901565048        2.84106601215865
H           47.95662824895805       -5.07260210862264        1.96140530875148
H           47.91661902195500       -6.92869053219878        3.60710476254219
H           49.45817547539523       -7.50753375797189        7.78594368593575
H           50.06907705636795       -4.49850208887751        6.40227927846424
H           50.09956224619405       -2.64601195693460        4.77067510970454
H           46.38362098473351       -3.30361274127322        3.10029743834505
H           44.53343139570809       -1.82856080011941        1.82404269877024
H           49.84234582056683       -0.55408178009355        0.59726227212283
H           48.14376006863490        5.22549371908119       -1.72689740935071
H           48.17541727094356        7.12865516147051       -3.31700811221192
H           49.79938744822135        7.79365987979737       -7.45084596181999
H           50.30207772230957        4.72480741856636       -6.15434279575424
H           50.25879576359591        2.82406661618472       -4.57873707180141
