242
 energy: -441.331973105785 gnorm: 0.763734901205 xtb: 6.5.1 (b24c23e)
Cu          44.79285200000000        0.02787600000000       -0.03230500000000
C           41.46256700000000       -0.12285400000000       -0.18210200000000
C           42.12868900000000       -1.27991700000000       -0.14892400000000
C           41.47959900000000       -2.58520400000000       -0.13758600000000
C           42.41933399999999       -3.50552300000000       -0.03436100000000
C           43.72390900000000       -2.83038000000000        0.01835500000000
N           43.54612200000000       -1.41535800000000       -0.05737400000000
C           44.91259700000000       -3.45078200000000        0.16607200000000
C           44.94757200000000       -4.92585600000000        0.27907200000000
C           44.75495299999999       -5.72699700000000       -0.85696000000000
C           44.78070899999999       -7.12032000000000       -0.74625200000000
C           45.00346700000000       -7.72328500000000        0.49962800000000
O           45.02926300000000       -9.11035100000000        0.62226700000000
C           45.20076800000000       -6.92574600000000        1.63229600000000
C           45.17157499999999       -5.53213200000000        1.52459100000000
C           46.20802200000000       -2.72215100000000        0.22920800000000
C           47.50201200000000       -3.37763900000000        0.45623900000000
C           48.43713300000000       -2.45137400000000        0.41301300000000
N           46.34751700000000       -1.44374600000000        0.04665200000000
C           47.74999999999999       -1.19274800000000        0.15062300000000
C           48.34676400000000       -0.00181600000000       -0.02843600000000
C           47.59157700000000        1.24351100000000       -0.30546300000000
C           48.14809700000000        2.37054100000000       -0.73003200000000
C           47.10374100000000        3.37271700000000       -0.79305500000000
C           45.97560600000000        2.79439200000000       -0.40096800000000
N           46.19216899999999        1.41937700000000       -0.07550700000000
C           44.67795700000000        3.50576500000000       -0.26751600000000
C           44.68721400000000        4.98722100000000       -0.21735600000000
C           45.30221499999999        5.64927500000000        0.85717500000000
C           45.31999700000000        7.04593100000000        0.90673500000000
C           44.73284900000000        7.79258400000000       -0.11884800000000
O           44.75248900000000        9.18331600000000       -0.05248000000000
C           44.13180699999999        7.13562400000000       -1.20259200000000
C           44.11033399999999        5.73921300000000       -1.25259900000000
C           43.50934800000000        2.84269000000000       -0.18145400000000
C           42.18681800000000        3.44443200000000       -0.01990200000000
C           41.32726000000000        2.44461400000000       -0.00842700000000
C           42.09108200000000        1.20674300000000       -0.14883400000000
N           43.36443100000000        1.42576100000000       -0.25113200000000
H           40.37940799999999       -0.15530400000000       -0.20848000000000
H           40.41620499999999       -2.78145400000000       -0.18673000000000
H           42.23140599999999       -4.57035500000000        0.01330900000000
H           44.58185600000000       -5.27149000000000       -1.82448900000000
H           44.62716899999999       -7.72983700000000       -1.62778500000000
H           44.88340700000000       -9.71519100000000       -0.17820100000000
H           45.37479600000000       -7.38668100000000        2.59669000000000
H           45.32359500000000       -4.92554000000000        2.40911300000000
H           47.68251200000000       -4.43153500000000        0.62315300000000
H           49.49781400000000       -2.62572400000000        0.53859200000000
H           49.19111300000000        2.53137600000000       -0.96615100000000
H           47.23073600000000        4.40548100000000       -1.08909800000000
H           45.75836399999999        5.08308500000000        1.65918000000000
H           45.78574500000000        7.54855100000000        1.74588300000000
H           44.32913700000000        9.75272600000000       -0.77685600000000
H           43.68289900000000        7.70595000000000       -2.00552800000000
H           43.64736800000000        5.24303400000000       -2.09794400000000
H           41.93432300000000        4.49196200000000        0.07714200000000
H           40.25428400000000        2.53823600000000        0.09746800000000
Cu          88.95180999999999       -0.03175600000000       -0.02800500000000
C           92.28209500000000        0.09592400000000       -0.19787800000000
C           91.61597300000000        1.24577500000000       -0.33105300000000
C           92.26506299999998        2.53918400000000       -0.50710800000000
C           91.32532900000000        3.46479300000000       -0.53699200000000
C           90.02075300000000        2.80419800000000       -0.38795700000000
N           90.19853999999998        1.39295100000000       -0.25988200000000
C           88.83206500000000        3.43937400000000       -0.33077900000000
C           88.79709099999998        4.91540000000000       -0.43058400000000
C           88.98970899999999        5.54526100000000       -1.66980600000000
C           88.96395400000000        6.94005200000000       -1.76014900000000
C           88.74119500000000        7.71553100000000       -0.61367000000000
O           88.71539900000001        9.10584300000000       -0.69130800000000
C           88.54389500000001        7.08875200000000        0.62170600000000
C           88.57308800000000        5.69410400000000        0.71506300000000
C           87.53664000000001        2.72734000000000       -0.16375600000000
C           86.24265000000000        3.40862000000000       -0.03312000000000
C           85.30752900000000        2.48573600000000        0.05699700000000
N           87.39714499999999        1.43596900000000       -0.16100500000000
C           85.99466200000001        1.20248600000000       -0.02209800000000
C           85.39789800000000       -0.00181600000000       -0.02843600000000
C           86.15308500000000       -1.27400500000000       -0.12392400000000
C           85.59656600000000       -2.45028900000000       -0.38240100000000
C           86.64092100000001       -3.45113900000000       -0.30098500000000
C           87.76905599999999       -2.82254200000000        0.00407100000000
N           87.55249300000000       -1.41505800000000        0.12888500000000
C           89.06670600000000       -3.50740800000000        0.23820600000000
C           89.05744799999999       -4.96634100000000        0.50039900000000
C           88.44244699999999       -5.46737800000000        1.65880000000000
C           88.42466600000000       -6.84247300000000        1.90823200000000
C           89.01181400000000       -7.72854600000000        1.00038600000000
O           88.99217400000001       -9.09536800000000        1.26560100000000
C           89.61285499999998       -7.23387300000000       -0.16640300000000
C           89.63432899999999       -5.85908400000000       -0.41624200000000
C           90.23531399999999       -2.83884600000000        0.22824300000000
C           91.55784500000000       -3.41118500000000        0.47445900000000
C           92.41740199999998       -2.42006400000000        0.34236600000000
C           91.65358099999999       -1.21514400000000        0.02580900000000
N           90.38023099999999       -1.44657400000000       -0.04400700000000
H           93.36525399999998        0.12425300000000       -0.22863900000000
H           93.32845700000000        2.72635400000000       -0.58389900000000
H           91.51325699999998        4.52544700000000       -0.64259200000000
H           89.16280600000000        4.95565100000000       -2.56197200000000
H           89.11749399999999        7.41678500000000       -2.72001300000000
H           88.86125600000000        9.58957800000000       -1.57027300000000
H           88.36986600000000        7.68328400000000        1.50999000000000
H           88.42106800000001        5.22069400000000        1.67746500000000
H           86.06215000000000        4.47556000000000       -0.01914000000000
H           84.24684900000000        2.67630000000000        0.15626100000000
H           84.55355000000000       -2.64333700000000       -0.59300100000000
H           86.51392600000000       -4.51569300000000       -0.44578900000000
H           87.98629800000001       -4.79197800000000        2.37127400000000
H           87.95891700000000       -7.21949600000000        2.81081100000000
H           89.41552599999999       -9.76281600000000        0.63041500000000
H           90.06176300000000       -7.91349900000000       -0.87920500000000
H           90.09729400000001       -5.48932400000000       -1.32403100000000
H           91.81034000000000       -4.43395300000000        0.72079200000000
H           93.49037800000001       -2.49752400000000        0.46059800000000
C           52.14099599999999        0.01091600000000       -0.02591100000000
C           50.88872599999999       -0.00826500000000       -0.03025900000000
C           53.45466499999999        0.01015000000000       -0.02397800000000
C           54.95779800000000       -0.00826500000000       -0.03025900000000
C           66.13310000000000        0.01091600000000       -0.02591100000000
C           64.88083000000000       -0.00826500000000       -0.03025900000000
C           67.44676900000000        0.01015000000000       -0.02397800000000
C           68.94990199999999       -0.00826500000000       -0.03025900000000
C           80.12520499999999        0.01091600000000       -0.02591100000000
C           78.87293400000000       -0.00826500000000       -0.03025900000000
C           81.43887300000000        0.01015000000000       -0.02397800000000
C           82.94200600000001       -0.00826500000000       -0.03025900000000
Cu          59.85218400000000        0.02176100000000       -0.04178400000000
C           56.43058900000000        0.00271800000000        0.03212000000000
C           57.08752999999999        0.98309600000000        0.67974100000000
C           56.44811300000000        2.03731900000000        1.47022500000000
C           57.38785200000000        2.84371400000000        1.92341600000000
C           58.68468800000000        2.35406100000000        1.44876300000000
N           58.50461700000000        1.17285500000000        0.66386400000000
C           59.86931100000000        2.94956000000000        1.69641400000000
C           59.90008400000000        4.20789400000000        2.47102900000000
C           60.20238400000000        4.18373300000000        3.84414600000000
C           60.24489600000000        5.37691400000000        4.57325200000000
C           59.99348400000000        6.59990300000000        3.93475100000000
O           60.04251099999999        7.78152900000000        4.67173800000000
C           59.69478800000000        6.62535300000000        2.56144400000000
C           59.64804600000000        5.43348200000000        1.83192100000000
C           61.16804299999999        2.40936400000000        1.22496700000000
C           62.43806200000000        3.13992300000000        1.31930600000000
C           63.39157500000000        2.35088400000000        0.86689900000000
N           61.33572600000000        1.21966300000000        0.73575600000000
C           62.73617400000000        1.10733300000000        0.48142700000000
C           63.35228000000000        0.00271800000000        0.03212000000000
C           62.60289100000000       -1.21216300000000       -0.35584300000000
C           63.14202400000000       -2.41858500000000       -0.48104500000000
C           62.10849399999999       -3.29876200000000       -0.99163600000000
C           61.00927299999999       -2.56843300000000       -1.14689700000000
N           61.23106900000000       -1.21602700000000       -0.75032600000000
C           59.75104000000000       -3.06405200000000       -1.75715900000000
C           59.81388300000000       -4.26085700000000       -2.63145000000000
C           59.13676000000000       -5.44153900000000       -2.27734100000000
C           59.20289200000000       -6.56622900000000       -3.10656200000000
C           59.94645499999999       -6.52218400000000       -4.29469800000000
O           60.01537500000000       -7.63402100000000       -5.13102300000000
C           60.62751400000000       -5.35100200000000       -4.64526500000000
C           60.56649199999999       -4.22590000000000       -3.81604300000000
C           58.57579800000000       -2.43333500000000       -1.56345000000000
C           57.29894900000000       -2.78803000000000       -2.17818300000000
C           56.41068400000000       -1.94658100000000       -1.68987600000000
C           57.10841400000000       -1.04621100000000       -0.76393300000000
N           58.37446700000000       -1.32284600000000       -0.68783500000000
H           55.39191700000000        2.16290200000000        1.66551800000000
H           57.20579499999999        3.71410300000000        2.54159900000000
H           60.40157700000000        3.24317900000000        4.34747700000000
H           60.47521099999999        5.35191700000000        5.63367100000000
H           59.85496700000000        8.68296900000000        4.23555400000000
H           59.50138799999999        7.56689100000000        2.05899100000000
H           59.42074000000000        5.46373500000000        0.77120600000000
H           62.58690800000000        4.14544800000000        1.69260700000000
H           64.44236900000000        2.60326500000000        0.80977000000000
H           64.16885700000000       -2.69337200000000       -0.27708000000000
H           62.22648299999999       -4.34600000000000       -1.23894400000000
H           58.56057600000000       -5.48838900000000       -1.36050100000000
H           58.67537100000000       -7.46982800000000       -2.82554300000000
H           59.54820500000000       -8.50243100000000       -4.89527200000000
H           61.20479200000000       -5.31247700000000       -5.56056900000000
H           61.09706700000000       -3.32526300000000       -4.10117100000000
H           57.09512600000000       -3.56964000000000       -2.89956500000000
H           55.36009700000000       -1.93569400000000       -1.95005600000000
Cu          73.84428800000001        0.02176100000000       -0.04178400000000
C           70.42269300000000        0.00271800000000        0.03212000000000
C           71.07963400000000        0.98309600000000        0.67974100000000
C           70.44021699999999        2.03731900000000        1.47022500000000
C           71.37995600000001        2.84371400000000        1.92341600000000
C           72.67679200000001        2.35406100000000        1.44876300000000
N           72.49672099999999        1.17285500000000        0.66386400000000
C           73.86141499999999        2.94956000000000        1.69641400000000
C           73.89218800000000        4.20789400000000        2.47102900000000
C           74.19448799999999        4.18373300000000        3.84414600000000
C           74.23699999999999        5.37691400000000        4.57325200000000
C           73.98558900000000        6.59990300000000        3.93475100000000
O           74.03461500000000        7.78152900000000        4.67173800000000
C           73.68689200000000        6.62535300000000        2.56144400000000
C           73.64014999999999        5.43348200000000        1.83192100000000
C           75.16014699999999        2.40936400000000        1.22496700000000
C           76.43016599999999        3.13992300000000        1.31930600000000
C           77.38367900000000        2.35088400000000        0.86689900000000
N           75.32783000000001        1.21966300000000        0.73575600000000
C           76.72827800000000        1.10733300000000        0.48142700000000
C           77.34438399999999        0.00271800000000        0.03212000000000
C           76.59499500000000       -1.21216300000000       -0.35584300000000
C           77.13412799999999       -2.41858500000000       -0.48104500000000
C           76.10059900000000       -3.29876200000000       -0.99163600000000
C           75.00137700000001       -2.56843300000000       -1.14689700000000
N           75.22317299999999       -1.21602700000000       -0.75032600000000
C           73.74314399999999       -3.06405200000000       -1.75715900000000
C           73.80598699999999       -4.26085700000000       -2.63145000000000
C           73.12886399999999       -5.44153900000000       -2.27734100000000
C           73.19499599999999       -6.56622900000000       -3.10656200000000
C           73.93855900000000       -6.52218400000000       -4.29469800000000
O           74.00747900000000       -7.63402100000000       -5.13102300000000
C           74.61961800000000       -5.35100200000000       -4.64526500000000
C           74.55859599999999       -4.22590000000000       -3.81604300000000
C           72.56790200000000       -2.43333500000000       -1.56345000000000
C           71.29105299999999       -2.78803000000000       -2.17818300000000
C           70.40278800000000       -1.94658100000000       -1.68987600000000
C           71.10051799999998       -1.04621100000000       -0.76393300000000
N           72.36657099999999       -1.32284600000000       -0.68783500000000
H           69.38402099999999        2.16290200000000        1.66551800000000
H           71.19789900000001        3.71410300000000        2.54159900000000
H           74.39368100000000        3.24317900000000        4.34747700000000
H           74.46731500000000        5.35191700000000        5.63367100000000
H           73.84707100000000        8.68296900000000        4.23555400000000
H           73.49349200000000        7.56689100000000        2.05899100000000
H           73.41284400000001        5.46373500000000        0.77120600000000
H           76.57901300000000        4.14544800000000        1.69260700000000
H           78.43447300000000        2.60326500000000        0.80977000000000
H           78.16096100000000       -2.69337200000000       -0.27708000000000
H           76.21858700000000       -4.34600000000000       -1.23894400000000
H           72.55268000000000       -5.48838900000000       -1.36050100000000
H           72.66747500000000       -7.46982800000000       -2.82554300000000
H           73.54030899999999       -8.50243100000000       -4.89527200000000
H           75.19689600000000       -5.31247700000000       -5.56056900000000
H           75.08917099999999       -3.32526300000000       -4.10117100000000
H           71.08723000000001       -3.56964000000000       -2.89956500000000
H           69.35220099999999       -1.93569400000000       -1.95005600000000
242
 energy: -441.624975694312 gnorm: 0.487501275090 xtb: 6.5.1 (b24c23e)
Cu          44.80275251377792        0.02178419143814       -0.03813326162405
C           41.46245292502294       -0.10537438733157       -0.18197341269216
C           42.13392191376722       -1.28063698427751       -0.14850677338262
C           41.47951531047017       -2.57823902995554       -0.13794542092810
C           42.43010650504350       -3.50750654857173       -0.03391014774528
C           43.72367133838342       -2.82492685595774        0.01768350503345
N           43.52644348047458       -1.43317390422285       -0.05482442452652
C           44.92831242265274       -3.44680934252113        0.16725727949913
C           44.95243222313943       -4.92872623292760        0.27930797551144
C           44.75496858195882       -5.73040394440954       -0.85141180485887
C           44.78056890228702       -7.11951385347203       -0.74473069176752
C           45.00234851108306       -7.72925046102254        0.49374354194969
O           45.02946666853725       -9.10633321273826        0.62372938454470
C           45.19969418198358       -6.92962147198989        1.62717712626884
C           45.17258955276247       -5.53959489759123        1.51907137343670
C           46.20205446293879       -2.73857358919845        0.23018506295229
C           47.48881896836961       -3.38802739047506        0.45563008024672
C           48.43623300466045       -2.44351495412603        0.41197882017631
N           46.35973220206267       -1.44223303871092        0.04922244780738
C           47.76055130317884       -1.18644425534232        0.15079037731236
C           48.34239318543998        0.01466555420417       -0.03376392053110
C           47.58895229539375        1.23046944878312       -0.29619253971012
C           48.15150968328559        2.39304767628188       -0.73494703115323
C           47.12679936875141        3.37494733066693       -0.79492033866276
C           45.96620152375250        2.78261811044259       -0.39118834754010
N           46.19951565486028        1.42377569165512       -0.07693026319718
C           44.69348040447798        3.49636812097862       -0.26648852341255
C           44.69594853821192        4.98558394803009       -0.22091879383670
C           45.30115538836615        5.65486403286619        0.85118024319076
C           45.31649696535546        7.04839944837898        0.90242989382778
C           44.72948657969886        7.79817584287531       -0.12446026652854
O           44.75313332616354        9.17897319577187       -0.05148055727263
C           44.13214039183459        7.13416340498002       -1.20085966753235
C           44.11204021987399        5.74134127911338       -1.24728846480266
C           43.50902864563012        2.84087293025639       -0.17998937958759
C           42.19503748896629        3.44289950000664       -0.02126564626840
C           41.31734431902592        2.43225784339912       -0.00897326498728
C           42.07075346070891        1.19787390698119       -0.14926821782986
N           43.36323555787762        1.43572741211077       -0.24699887327200
H           40.37968994541083       -0.14886999796413       -0.20790938957729
H           40.41665426666586       -2.77256532502622       -0.18755331092288
H           42.24282067997681       -4.57112747588548        0.01374124003993
H           44.58278783811164       -5.27206752622539       -1.82092843262758
H           44.62733718342088       -7.72982945967402       -1.62737271543970
H           44.88549368438365       -9.68745925150471       -0.16723466470461
H           45.37411528794975       -7.38834614310781        2.59419190090221
H           45.32295230624014       -4.92864639205212        2.40533501060567
H           47.67308382087774       -4.43670548043211        0.62298802172732
H           49.49655764592499       -2.61467187171831        0.53696459903304
H           49.19281175359051        2.53734135609135       -0.96861390777576
H           47.23710943875535        4.40591075107526       -1.09102649753688
H           45.75693415344982        5.08542509189181        1.65597991362989
H           45.78429048808472        7.54947648087925        1.74330696496727
H           44.33571246263676        9.72562771779757       -0.76643311564670
H           43.68309574653991        7.70571322736819       -2.00507216251100
H           43.64927674183390        5.24367084255745       -2.09478846602586
H           41.94500285209266        4.49079181906962        0.07617323948062
H           40.24968874827915        2.53044799334765        0.09707633292009
Cu          88.94198944558939       -0.02659182632855       -0.03451687905919
C           92.28218365732732        0.07868575576888       -0.19524628667685
C           91.61077395289023        1.24658783873830       -0.33073818527616
C           92.26518033352387        2.53229549487115       -0.50645884211596
C           91.31459324098532        3.46684760267588       -0.53682142895128
C           90.02102244309171        2.79863592795231       -0.38781513923044
N           90.21828074863124        1.41109572110298       -0.26010624138105
C           88.81617313135078        3.43546502412601       -0.32899974460961
C           88.79216784822827        4.91822989335705       -0.43076258306905
C           88.98969261612930        5.54941484539633       -1.66480281742430
C           88.96410015863268        6.93946055292757       -1.75852597335960
C           88.74230881526712        7.72060141029773       -0.62035439649080
O           88.71521447354674        9.10204505161681       -0.68928011816311
C           88.54497399104682        7.09184801714458        0.61608306912222
C           88.57206645478661        5.70068705513002        0.70853160937644
C           87.54242080853125        2.74350686693832       -0.16514160613162
C           86.25569839321361        3.41883588816438       -0.03518396880279
C           85.30811460678973        2.47814670009550        0.05712861559965
N           87.38404096869223        1.43441837334877       -0.15824855026120
C           85.98281257996410        1.19634087396418       -0.02107418898346
C           85.39918431004509       -0.01872856592101       -0.03123018723648
C           86.15442995472016       -1.25981223915014       -0.11650145009980
C           85.59279230768459       -2.47352193881251       -0.38412699285428
C           86.61772457590212       -3.45355905225840       -0.30253214927842
C           87.77820960086885       -2.80923673997137        0.01208766192880
N           87.54436413851089       -1.41929381551193        0.12818252952698
C           89.05112544356993       -3.49786744571986        0.23786436306695
C           89.04867662415053       -4.96519979269996        0.49662700494513
C           88.44348711435110       -5.47376637517605        1.65367352398280
C           88.42816994241528       -6.84552539533501        1.90433079084707
C           89.01516496867428       -7.73490273806716        0.99563183144854
O           88.99156764361538       -9.09087628223756        1.26596791590811
C           89.61252436152120       -7.23216674421120       -0.16489763280475
C           89.63263101393116       -5.86041456410895       -0.41068029967900
C           90.23565344280354       -2.83685686630462        0.22942044300868
C           91.54966944643027       -3.40990838528121        0.47288497075153
C           92.42734779502740       -2.40797557606104        0.34008810411142
C           91.67390944672097       -1.20650901727252        0.02410854754025
N           90.38157660475294       -1.45597408782705       -0.03851442502855
H           93.36496006213973        0.11797630490678       -0.22715870456275
H           93.32802623797160        2.71746257347446       -0.58343731732617
H           91.50184767431760        4.52628999967977       -0.64227211190214
H           89.16186982577726        4.95673129531696       -2.55853265373756
H           89.11732415923063        7.41682541974141       -2.71960022955049
H           88.85915291289619        9.56370585129682       -1.55544042495142
H           88.37054725884865        7.68456790513923        1.50727763804764
H           88.42170916649957        5.22322499335331        1.67328523436998
H           86.07156618986193        4.48066041458566       -0.02005212997080
H           84.24786604649712        2.66518135816825        0.15625085929915
H           84.55161580701369       -2.64971905755310       -0.59461536168190
H           86.50755407816790       -4.51635138269085       -0.44764810870298
H           87.98772321588078       -4.79475451205943        2.36844964641795
H           87.96037003816340       -7.22077432303878        2.80839116945877
H           89.40892454745178       -9.73450594364406        0.63684169399883
H           90.06156345584489       -7.91318686603276       -0.87878986900371
H           90.09538302015110       -5.48949824686646       -1.32082206728082
H           91.79967276032002       -4.43295686417411        0.71967301389945
H           93.49499148592695       -2.48989240053780        0.45910064159287
C           52.16269629146812        0.01038939377230       -0.02694197661544
C           50.90276149055387       -0.00707323112106       -0.03018946215697
C           53.53029325630618        0.00896725319041       -0.02157500910482
C           54.89172050699317       -0.00823474608645       -0.02777536871671
C           66.15187738100165        0.00821104396908       -0.02615783493027
C           64.88410428816239       -0.01413636963555       -0.02952601699082
C           67.51669826354684        0.00948090894337       -0.02232750499158
C           68.88323751828918       -0.00744193965449       -0.02744799231860
C           80.13847701811980        0.00821700198726       -0.02544415061838
C           78.87381018653424       -0.01419675713310       -0.02961721605146
C           81.50354978281551        0.00908689964418       -0.02468465366071
C           82.85138217964740       -0.00719941623377       -0.03026138311519
Cu          59.85201338249843        0.01501749703980       -0.03697023879296
C           56.37691329613128       -0.00693321728239        0.01452756492566
C           57.07851986404098        0.98366367623654        0.68078004237133
C           56.44582764647663        2.02903892263431        1.46566651559420
C           57.39901589215790        2.84507739741532        1.92329682314828
C           58.68165890417149        2.34692661179723        1.44566340413632
N           58.47720495933405        1.18612015612426        0.66884508228345
C           59.88515343261864        2.94625165207148        1.69244938382744
C           59.90525594335344        4.21156530890380        2.47180773989306
C           60.20187610663907        4.19346292259711        3.84146717364236
C           60.24330222521525        5.38323181478013        4.56931832261562
C           59.99181687049062        6.60775452347180        3.93193632126896