      -----------------------------------------------------------      
     |                   =====================                   |     
     |                           x T B                           |     
     |                   =====================                   |     
     |                         S. Grimme                         |     
     |          Mulliken Center for Theoretical Chemistry        |     
     |                    University of Bonn                     |     
      -----------------------------------------------------------      

   * xtb version 6.5.1 (b24c23e) compiled by 'conda@728c89f4b128' on 2022-07-12

   xtb is free software: you can redistribute it and/or modify it under
   the terms of the GNU Lesser General Public License as published by
   the Free Software Foundation, either version 3 of the License, or
   (at your option) any later version.
   
   xtb is distributed in the hope that it will be useful,
   but WITHOUT ANY WARRANTY; without even the implied warranty of
   MERCHANTABILITY or FITNESS FOR A PARTICULAR PURPOSE.  See the
   GNU Lesser General Public License for more details.
   
   Cite this work as:
   * C. Bannwarth, E. Caldeweyher, S. Ehlert, A. Hansen, P. Pracht,
     J. Seibert, S. Spicher, S. Grimme, WIREs Comput. Mol. Sci., 2020, 11,
     e01493. DOI: 10.1002/wcms.1493
   
   for GFN2-xTB:
   * C. Bannwarth, S. Ehlert and S. Grimme., J. Chem. Theory Comput., 2019,
     15, 1652-1671. DOI: 10.1021/acs.jctc.8b01176
   for GFN1-xTB:
   * S. Grimme, C. Bannwarth, P. Shushkov, J. Chem. Theory Comput., 2017,
     13, 1989-2009. DOI: 10.1021/acs.jctc.7b00118
   for GFN0-xTB:
   * P. Pracht, E. Caldeweyher, S. Ehlert, S. Grimme, ChemRxiv, 2019, preprint.
     DOI: 10.26434/chemrxiv.8326202.v1
   for GFN-FF:
   * S. Spicher and S. Grimme, Angew. Chem. Int. Ed., 2020, 59, 15665-15673.
     DOI: 10.1002/anie.202004239
   
   for ALPB and GBSA implicit solvation:
   * S. Ehlert, M. Stahn, S. Spicher, S. Grimme, J. Chem. Theory Comput.,
     2021, 17, 4250-4261. DOI: 10.1021/acs.jctc.1c00471
   
   for DFT-D4:
   * E. Caldeweyher, C. Bannwarth and S. Grimme, J. Chem. Phys., 2017,
     147, 034112. DOI: 10.1063/1.4993215
   * E. Caldeweyher, S. Ehlert, A. Hansen, H. Neugebauer, S. Spicher,
     C. Bannwarth and S. Grimme, J. Chem. Phys., 2019, 150, 154122.
     DOI: 10.1063/1.5090222
   * E. Caldeweyher, J.-M. Mewes, S. Ehlert and S. Grimme, Phys. Chem. Chem. Phys.
     2020, 22, 8499-8512. DOI: 10.1039/D0CP00502A
   
   for sTDA-xTB:
   * S. Grimme and C. Bannwarth, J. Chem. Phys., 2016, 145, 054103.
     DOI: 10.1063/1.4959605
   
   in the mass-spec context:
   * V. Asgeirsson, C. Bauer and S. Grimme, Chem. Sci., 2017, 8, 4879.
     DOI: 10.1039/c7sc00601b
   * J. Koopman and S. Grimme, ACS Omega 2019, 4, 12, 15120-15133.
     DOI: 10.1021/acsomega.9b02011
   
   for metadynamics refer to:
   * S. Grimme, J. Chem. Theory Comput., 2019, 155, 2847-2862
     DOI: 10.1021/acs.jctc.9b00143
   
   for SPH calculations refer to:
   * S. Spicher and S. Grimme, J. Chem. Theory Comput., 2021, 17, 1701-1714
     DOI: 10.1021/acs.jctc.0c01306
   
   with help from (in alphabetical order)
   P. Atkinson, C. Bannwarth, F. Bohle, G. Brandenburg, E. Caldeweyher
   M. Checinski, S. Dohm, S. Ehlert, S. Ehrlich, I. Gerasimov, C. Hölzer
   A. Katbashev, J. Koopman, C. Lavigne, S. Lehtola, F. März, M. Müller,
   F. Musil, H. Neugebauer, J. Pisarek, C. Plett, P. Pracht, F. Pultar,
   J. Seibert, P. Shushkov, S. Spicher, M. Stahn, M. Steiner, T. Strunk,
   J. Stückrath, T. Rose, and J. Unsleber
   
 * started run on 2022/07/30 at 08:18:56.066     

           -------------------------------------------------
          |                Calculation Setup                |
           -------------------------------------------------

          program call               : xtb PhCHO_C4_9.xyz --gfn 1 --opt -T 48
          hostname                   : cx3-5-14.cx3.hpc.ic.ac.uk
          coordinate file            : PhCHO_C4_9.xyz
          omp threads                :                     1

   ID    Z sym.   atoms
    1    6 C      1-5, 7-12, 14-18, 20-25, 27-32, 34-39, 62-66, 68-73, 75-79,
                  81-86, 88-93, 95-100, 123-159, 161-166, 168-172, 174-179,
                  181-186, 188-193, 215-219, 221-226, 228-232, 234-239,
                  241-246, 248-253, 275-279, 281-286, 288-292, 294-299,
                  301-306, 308-313, 335-339, 341-346, 348-352, 354-359,
                  361-366, 368-373, 395-399, 401-406, 408-412, 414-419,
                  421-426, 428-433, 455-459, 461-466, 468-472, 474-479,
                  481-486, 488-493, 515-519, 521-526, 528-532, 534-539,
                  541-546, 548-553
    2    7 N      6, 19, 26, 40, 67, 80, 87, 101, 160, 173, 180, 194, 220,
                  233, 240, 254, 280, 293, 300, 314, 340, 353, 360, 374, 400,
                  413, 420, 434, 460, 473, 480, 494, 520, 533, 540, 554
    3    8 O      13, 33, 74, 94, 167, 187, 227, 247, 287, 307, 347, 367,
                  407, 427, 467, 487, 527, 547
    4    1 H      41-61, 102-122, 195-214, 255-274, 315-334, 375-394,
                  435-454, 495-514, 555-574
########################################################################
[WARNING] Please study the warnings concerning your input carefully
-1- prog_main_parseArguments: Unknown option '-T' provided
########################################################################

           -------------------------------------------------
          |                 G F N 1 - x T B                 |
           -------------------------------------------------

        Reference                      10.1021/acs.jctc.7b00118
      * Hamiltonian:
        H0-scaling (s, p, d)           1.850000    2.250000    2.000000
        zeta-weighting                 0.000000
      * Dispersion:
        s8                             2.400000
        a1                             0.630000
        a2                             5.000000
        s9                             0.000000
      * Repulsion:
        kExp                           1.500000
        rExp                           1.000000
      * Coulomb:
        alpha                          2.000000
        third order                    atomic
        anisotropic                    false
      * Halogen bond correction:
        rad-scale                      1.300000
        damping                        0.440000


          ...................................................
          :                      SETUP                      :
          :.................................................:
          :  # basis functions                1932          :
          :  # atomic orbitals                1932          :
          :  # shells                         1148          :
          :  # electrons                      1822          :
          :  # halogen bonds                     0          :
          :  max. iterations                   250          :
          :  Hamiltonian                  GFN1-xTB          :
          :  restarted?                      false          :
          :  GBSA solvation                  false          :
          :  PC potential                    false          :
          :  electronic temp.          300.0000000     K    :
          :  accuracy                    1.0000000          :
          :  -> integral cutoff          0.2500000E+02      :
          :  -> integral neglect         0.1000000E-07      :
          :  -> SCF convergence          0.1000000E-05 Eh   :
          :  -> wf. convergence          0.2000000E-04 e    :
          :  Broyden damping             0.4000000          :
          ...................................................

 iter      E             dE          RMSdq      gap      omega  full diag
   1  -1021.7396109 -0.102174E+04  0.105E+01    0.00       0.0  T
   2   -847.0704095  0.174669E+03  0.774E+00    0.01       1.0  T
   3  13891.5329747  0.147386E+05  0.232E+01    0.04       1.0  T
   4  13738.5791693 -0.152954E+03  0.240E+01    0.03       1.0  T
   5    575.2501075 -0.131633E+05  0.117E+01    0.03       1.0  T
   6   2155.9906507  0.158074E+04  0.128E+01    0.06       1.0  T
   7   8843.9888933  0.668800E+04  0.175E+01    0.00       1.0  T
   8    169.8593546 -0.867413E+04  0.861E+00    0.04       1.0  T
   9    462.4839918  0.292625E+03  0.103E+01    0.03       1.0  T
  10   -234.0055543 -0.696490E+03  0.750E+00    0.03       1.0  T
  11    -41.0539258  0.192952E+03  0.764E+00    0.05       1.0  T
  12   -187.9906961 -0.146937E+03  0.716E+00    0.01       1.0  T
  13     42.5450861  0.230536E+03  0.757E+00    0.01       1.0  T
  14     13.6638995 -0.288812E+02  0.749E+00    0.03       1.0  T
  15    253.0190372  0.239355E+03  0.799E+00    0.01       1.0  T
  16    240.2325817 -0.127865E+02  0.775E+00    0.01       1.0  T
  17    329.0161666  0.887836E+02  0.801E+00    0.02       1.0  T
  18    292.2332900 -0.367829E+02  0.783E+00    0.00       1.0  T
  19    284.3810546 -0.785224E+01  0.788E+00    0.00       1.0  T
  20    288.3190713  0.393802E+01  0.784E+00    0.02       1.0  T
  21    267.3582251 -0.209608E+02  0.782E+00    0.03       1.0  T
  22    284.9025690  0.175443E+02  0.783E+00    0.01       1.0  T
  23    255.9933773 -0.289092E+02  0.782E+00    0.01       1.0  T
  24    266.7102582  0.107169E+02  0.780E+00    0.01       1.0  T
  25    132.0364564 -0.134674E+03  0.752E+00    0.02       1.0  T
  26    220.5707810  0.885343E+02  0.762E+00    0.02       1.0  T
  27    169.3159339 -0.512548E+02  0.753E+00    0.02       1.0  T
  28    112.7701456 -0.565458E+02  0.734E+00    0.04       1.0  T
  29    153.7828154  0.410127E+02  0.742E+00    0.01       1.0  T
  30    122.0018589 -0.317810E+02  0.732E+00    0.01       1.0  T
  31     54.7119619 -0.672899E+02  0.719E+00    0.02       1.0  T
  32    -97.9229887 -0.152635E+03  0.668E+00    0.04       1.0  T
  33   -329.1911377 -0.231268E+03  0.582E+00    0.01       1.0  T
  34   -616.7383357 -0.287547E+03  0.458E+00    0.02       1.0  T
  35   -693.6758265 -0.769375E+02  0.422E+00    0.00       1.0  T
  36   -820.2792025 -0.126603E+03  0.373E+00    0.02       1.0  T
  37   -863.4889613 -0.432098E+02  0.346E+00    0.02       1.0  T
  38   -906.5987942 -0.431098E+02  0.321E+00    0.01       1.0  T
  39   -929.6192982 -0.230205E+02  0.307E+00    0.02       1.0  T
  40   -939.0996919 -0.948039E+01  0.297E+00    0.00       1.0  T
  41   -952.2858640 -0.131862E+02  0.280E+00    0.02       1.0  T
  42   -973.7227878 -0.214369E+02  0.264E+00    0.02       1.0  T
  43   -983.3598949 -0.963711E+01  0.256E+00    0.00       1.0  T
  44   -990.3037542 -0.694386E+01  0.238E+00    0.00       1.0  T
  45   -986.7962901  0.350746E+01  0.245E+00    0.04       1.0  T
  46   -994.4328146 -0.763652E+01  0.235E+00    0.00       1.0  T
  47  -1011.0214180 -0.165886E+02  0.205E+00    0.01       1.0  T
  48  -1014.9176762 -0.389626E+01  0.196E+00    0.09       1.0  T
  49  -1016.5465651 -0.162889E+01  0.190E+00    0.02       1.0  T
  50  -1016.8227017 -0.276137E+00  0.186E+00    0.08       1.0  T
  51  -1018.4995937 -0.167689E+01  0.178E+00    0.05       1.0  T
  52  -1017.0327317  0.146686E+01  0.184E+00    0.03       1.0  T
  53  -1016.5861914  0.446540E+00  0.184E+00    0.05       1.0  T
  54  -1016.3529744  0.233217E+00  0.181E+00    0.15       1.0  T
  55  -1018.4562127 -0.210324E+01  0.169E+00    0.05       1.0  T
  56  -1018.4989368 -0.427241E-01  0.166E+00    0.01       1.0  T
  57  -1018.8979113 -0.398975E+00  0.159E+00    0.02       1.0  T
  58  -1018.2030635  0.694848E+00  0.153E+00    0.00       1.0  T
  59  -1018.2272670 -0.242035E-01  0.148E+00    0.07       1.0  T
  60  -1015.0022149  0.322505E+01  0.162E+00    0.01       1.0  T
  61  -1019.5991875 -0.459697E+01  0.143E+00    0.03       1.0  T
  62  -1011.2749353  0.832425E+01  0.175E+00    0.02       1.0  T
  63  -1012.7277810 -0.145285E+01  0.168E+00    0.02       1.0  T
  64  -1010.7354743  0.199231E+01  0.172E+00    0.01       1.0  T
  65  -1009.1627212  0.157275E+01  0.182E+00    0.01       1.0  T
  66  -1009.2523545 -0.896334E-01  0.177E+00    0.02       1.0  T
  67  -1005.4675754  0.378478E+01  0.196E+00    0.00       1.0  T
  68  -1008.9150078 -0.344743E+01  0.183E+00    0.00       1.0  T
  69  -1005.9876401  0.292737E+01  0.173E+00    0.05       1.0  T
  70  -1009.4144622 -0.342682E+01  0.149E+00    0.02       1.0  T
  71  -1012.4359502 -0.302149E+01  0.150E+00    0.05       1.0  T
  72  -1007.5104251  0.492553E+01  0.165E+00    0.00       1.0  T
  73  -1004.4269535  0.308347E+01  0.161E+00    0.02       1.0  T
  74  -1013.9933351 -0.956638E+01  0.122E+00    0.01       1.0  T
  75  -1017.9847972 -0.399146E+01  0.102E+00    0.03       1.0  T
  76  -1018.6566249 -0.671828E+00  0.116E+00    0.00       1.0  T
  77  -1018.0050401  0.651585E+00  0.935E-01    0.01       1.0  T
  78  -1018.9599942 -0.954954E+00  0.829E-01    0.00       1.0  T
  79  -1016.4040352  0.255596E+01  0.916E-01    0.03       1.0  T
  80  -1020.0107566 -0.360672E+01  0.882E-01    0.03       1.0  T
  81  -1022.9327021 -0.292195E+01  0.597E-01    0.00       1.0  T
  82  -1023.4559187 -0.523217E+00  0.518E-01    0.06       1.0  T
  83  -1024.3780152 -0.922097E+00  0.494E-01    0.00       1.0  T
  84  -1024.2045695  0.173446E+00  0.483E-01    0.00       1.0  T
  85  -1024.2069094 -0.233991E-02  0.561E-01    0.03       1.0  T
  86  -1024.7833206 -0.576411E+00  0.498E-01    0.01       1.0  T
  87  -1025.0097756 -0.226455E+00  0.474E-01    0.02       1.0  T
  88  -1025.0344474 -0.246718E-01  0.452E-01    0.01       1.0  T
  89  -1025.2934636 -0.259016E+00  0.449E-01    0.02       1.0  T
  90  -1025.2913765  0.208705E-02  0.411E-01    0.00       1.0  T
  91  -1025.3452674 -0.538909E-01  0.436E-01    0.02       1.0  T
  92  -1025.3643130 -0.190456E-01  0.458E-01    0.01       1.0  T
  93  -1025.4312935 -0.669805E-01  0.431E-01    0.00       1.0  T
  94  -1025.1226827  0.308611E+00  0.501E-01    0.01       1.0  T
  95  -1025.5040202 -0.381338E+00  0.367E-01    0.04       1.0  T
  96  -1025.6007539 -0.967337E-01  0.312E-01    0.01       1.0  T
  97  -1025.6139056 -0.131517E-01  0.291E-01    0.03       1.0  T
  98  -1025.7130725 -0.991670E-01  0.248E-01    0.01       1.0  T
  99  -1025.7167550 -0.368245E-02  0.234E-01    0.02       1.0  T
 100  -1025.7677424 -0.509875E-01  0.226E-01    0.00       1.0  T
 101  -1025.7645083  0.323412E-02  0.200E-01    0.02       1.0  T
 102  -1025.7915729 -0.270646E-01  0.199E-01    0.01       1.0  T
 103  -1025.7927334 -0.116049E-02  0.189E-01    0.00       1.0  T
 104  -1025.8019659 -0.923255E-02  0.180E-01    0.00       1.0  T
 105  -1025.8082709 -0.630496E-02  0.172E-01    0.00       1.0  T
 106  -1025.8119914 -0.372056E-02  0.170E-01    0.01       1.0  T
 107  -1025.8121393 -0.147834E-03  0.167E-01    0.01       1.0  T
 108  -1025.8154447 -0.330540E-02  0.163E-01    0.01       1.0  T
 109  -1025.8165675 -0.112283E-02  0.158E-01    0.01       1.0  T
 110  -1025.8205409 -0.397340E-02  0.149E-01    0.01       1.0  T
 111  -1025.8229216 -0.238070E-02  0.143E-01    0.01       1.0  T
 112  -1025.8223097  0.611907E-03  0.142E-01    0.02       1.0  T
 113  -1025.8234403 -0.113060E-02  0.139E-01    0.02       1.0  T
 114  -1025.8266992 -0.325887E-02  0.132E-01    0.02       1.0  T
 115  -1025.8291725 -0.247335E-02  0.125E-01    0.01       1.0  T
 116  -1025.8310311 -0.185856E-02  0.120E-01    0.01       1.0  T
 117  -1025.8321596 -0.112849E-02  0.115E-01    0.01       1.0  T
 118  -1025.8339054 -0.174587E-02  0.106E-01    0.01       1.0  T
 119  -1025.8346101 -0.704625E-03  0.102E-01    0.02       1.0  T
 120  -1025.8365829 -0.197283E-02  0.967E-02    0.01       1.0  T
 121  -1025.8376976 -0.111472E-02  0.928E-02    0.01       1.0  T
 122  -1025.8385447 -0.847043E-03  0.887E-02    0.01       1.0  T
 123  -1025.8395746 -0.102997E-02  0.829E-02    0.01       1.0  T
 124  -1025.8401024 -0.527743E-03  0.788E-02    0.01       1.0  T
 125  -1025.8404342 -0.331875E-03  0.745E-02    0.00       1.0  T
 126  -1025.8416386 -0.120434E-02  0.690E-02    0.01       1.0  T
 127  -1025.8425631 -0.924523E-03  0.643E-02    0.01       1.0  T
 128  -1025.8433871 -0.823961E-03  0.599E-02    0.01       1.0  T
 129  -1025.8438686 -0.481503E-03  0.563E-02    0.01       1.0  T
 130  -1025.8445801 -0.711563E-03  0.526E-02    0.01       1.0  T
 131  -1025.8452478 -0.667704E-03  0.484E-02    0.01       1.0  T
 132  -1025.8459219 -0.674081E-03  0.438E-02    0.01       1.0  T
 133  -1025.8461602 -0.238318E-03  0.420E-02    0.01       1.0  T
 134  -1025.8464902 -0.329997E-03  0.386E-02    0.01       1.0  T
 135  -1025.8468548 -0.364575E-03  0.349E-02    0.01       1.0  T
 136  -1025.8470480 -0.193228E-03  0.322E-02    0.01       1.0  T
 137  -1025.8471547 -0.106640E-03  0.299E-02    0.01       1.0  T
 138  -1025.8473053 -0.150601E-03  0.282E-02    0.01       1.0  T
 139  -1025.8474057 -0.100436E-03  0.264E-02    0.01       1.0  T
 140  -1025.8475581 -0.152381E-03  0.238E-02    0.01       1.0  T
 141  -1025.8476479 -0.898315E-04  0.221E-02    0.01       1.0  T
 142  -1025.8477235 -0.755496E-04  0.203E-02    0.01       1.0  T
 143  -1025.8478052 -0.817035E-04  0.190E-02    0.01       1.0  T
 144  -1025.8478411 -0.359087E-04  0.182E-02    0.01       1.0  T
 145  -1025.8478930 -0.519220E-04  0.173E-02    0.01       1.0  T
 146  -1025.8479536 -0.605567E-04  0.161E-02    0.01       1.0  T
 147  -1025.8480190 -0.654575E-04  0.150E-02    0.01       1.0  T
 148  -1025.8480635 -0.444896E-04  0.141E-02    0.01       1.0  T
 149  -1025.8481140 -0.504787E-04  0.134E-02    0.01       1.0  T
 150  -1025.8481662 -0.522348E-04  0.124E-02    0.01       1.0  T
 151  -1025.8482126 -0.463919E-04  0.115E-02    0.01       1.0  T
 152  -1025.8482348 -0.221392E-04  0.109E-02    0.01       1.0  T
 153  -1025.8482717 -0.369457E-04  0.965E-03    0.01       1.0  T
 154  -1025.8482918 -0.200489E-04  0.893E-03    0.01       1.0  T
 155  -1025.8483152 -0.234176E-04  0.798E-03    0.01       1.0  T
 156  -1025.8483295 -0.142907E-04  0.732E-03    0.01       1.0  T
 157  -1025.8483364 -0.697811E-05  0.695E-03    0.01       1.0  T
 158  -1025.8483407 -0.431043E-05  0.665E-03    0.01       1.0  T
 159  -1025.8483486 -0.787093E-05  0.616E-03    0.01       1.0  T
 160  -1025.8483595 -0.108626E-04  0.543E-03    0.01       1.0  T
 161  -1025.8483702 -0.106755E-04  0.474E-03    0.01       1.0  T
 162  -1025.8483763 -0.617011E-05  0.421E-03    0.01       1.0  T
 163  -1025.8483845 -0.820360E-05  0.352E-03    0.01       1.2  T
 164  -1025.8483896 -0.506143E-05  0.308E-03    0.01       1.4  T
 165  -1025.8483915 -0.189317E-05  0.288E-03    0.01       1.5  T
 166  -1025.8483929 -0.139235E-05  0.273E-03    0.01       1.5  T
 167  -1025.8483944 -0.151761E-05  0.252E-03    0.01       1.7  T
 168  -1025.8483963 -0.188217E-05  0.223E-03    0.01       1.9  T
 169  -1025.8483974 -0.110587E-05  0.204E-03    0.01       2.0  T
 170  -1025.8483988 -0.138641E-05  0.177E-03    0.01       2.4  T
 171  -1025.8483995 -0.769002E-06  0.160E-03    0.01       2.6  T
 172  -1025.8484004 -0.854544E-06  0.141E-03    0.01       3.0  T
 173  -1025.8484011 -0.734163E-06  0.121E-03    0.01       3.5  T
 174  -1025.8484018 -0.627377E-06  0.989E-04    0.01       4.2  T
 175  -1025.8484020 -0.286818E-06  0.840E-04    0.01       5.0  T
 176  -1025.8484024 -0.310335E-06  0.660E-04    0.01       6.3  T
 177  -1025.8484025 -0.172723E-06  0.569E-04    0.01       7.3  T
 178  -1025.8484027 -0.157372E-06  0.483E-04    0.01       8.6  T
 179  -1025.8484027 -0.469634E-07  0.444E-04    0.01       9.4  T
 180  -1025.8484028 -0.555751E-07  0.392E-04    0.01      10.6  T
 181  -1025.8484029 -0.984219E-07  0.329E-04    0.01      12.7  T
 182  -1025.8484030 -0.764467E-07  0.271E-04    0.01      15.4  T
 183  -1025.8484030 -0.442244E-07  0.217E-04    0.01      19.2  T
 184  -1025.8484030 -0.289492E-07  0.191E-04    0.01      21.9  T
 185  -1025.8484031 -0.169814E-07  0.163E-04    0.01      25.6  T

   *** convergence criteria satisfied after 185 iterations ***

         #    Occupation            Energy/Eh            Energy/eV
      -------------------------------------------------------------
         1        2.0000           -0.8223868             -22.3783
       ...           ...                  ...                  ...
       905        1.9764           -0.3711694             -10.1000
       906        1.9753           -0.3711274             -10.0989
       907        1.9725           -0.3710252             -10.0961
       908        1.9707           -0.3709626             -10.0944
       909        1.9501           -0.3704480             -10.0804
       910        1.9273           -0.3700786             -10.0704
       911        1.2093           -0.3673683              -9.9966 (HOMO)
       912        1.0180           -0.3669988              -9.9865 (LUMO)
       913        0.0001           -0.3575647              -9.7298
       914        0.0001           -0.3570984              -9.7171
       915        0.0000           -0.3568110              -9.7093
       916        0.0000           -0.3563726              -9.6974
       ...           ...                  ...                  ...
      1932                         11.3565934             309.0286
      -------------------------------------------------------------
                  HL-Gap            0.0003695 Eh            0.0101 eV
             Fermi-level           -0.3669646 Eh           -9.9856 eV

 SCC (total)                   0 d,  0 h,  5 min, 55.447 sec
 SCC setup                      ...        0 min,  0.077 sec (  0.022%)
 Dispersion                     ...        0 min,  0.037 sec (  0.010%)
 classical contributions        ...        0 min,  0.009 sec (  0.002%)
 integral evaluation            ...        0 min,  0.910 sec (  0.256%)
 iterations                     ...        5 min, 52.304 sec ( 99.116%)
 molecular gradient             ...        0 min,  1.711 sec (  0.481%)
 printout                       ...        0 min,  0.400 sec (  0.113%)

         :::::::::::::::::::::::::::::::::::::::::::::::::::::
         ::                     SUMMARY                     ::
         :::::::::::::::::::::::::::::::::::::::::::::::::::::
         :: total energy            -998.221679717000 Eh    ::
         :: gradient norm             14.928595883094 Eh/a0 ::
         :: HOMO-LUMO gap              0.010054876178 eV    ::
         ::.................................................::
         :: SCC energy             -1025.848403050417 Eh    ::
         :: -> electrostatic           1.471668238723 Eh    ::
         :: repulsion energy          28.114373696441 Eh    ::
         :: dispersion energy         -0.487650363024 Eh    ::
         :: halogen bond corr.         0.000000000000 Eh    ::
         :: add. restraining           0.000000000000 Eh    ::
         :: total charge               0.000000000003 e     ::
         :::::::::::::::::::::::::::::::::::::::::::::::::::::

      ----------------------------------------------------------- 
     |                       L-ANC optimizer                     |
      ----------------------------------------------------------- 
          low memory version by Sebastian Ehlert

          ...................................................
          :                      SETUP                      :
          :.................................................:
          :   energy convergence        0.5000000E-05 Eh    :
          :   grad. convergence         0.1000000E-02 Eh/a0 :
          :   optimization log               true           :
          :   writing optlog all                1     steps :
          :   Hessian reset                    20     steps :
          :   maximium step len.        1.0000000     a0    :
          :   LBFGS images                     20           :
          ...................................................
 * calculating model hessian...
Using Lindh-Hessian (1995)
 Shifting diagonal of input Hessian by    1.0022664384232485E-002
 Lowest  eigenvalues of input Hessian
    0.010000    0.010003    0.010016    0.010017    0.010018    0.010019
    0.010020    0.010021    0.010021    0.010022    0.010022    0.010022
    0.000000    0.000000    0.000000    0.000000    0.000000    0.000000
 Highest eigenvalues
    4.793242    4.793242    4.793242    4.793242    4.793244    4.793249


........................................................................
.............................. CYCLE    1 ..............................
........................................................................
   1  -1026.0209060 -0.102602E+04  0.309E-01    0.05       0.0  T
   2  -1025.1811155  0.839791E+00  0.555E-01    0.04       1.0  T
   3  -1024.7683892  0.412726E+00  0.594E-01    0.49       1.0  T
   4  -1026.0311500 -0.126276E+01  0.181E-01    0.13       1.0  T
   5  -1026.0987509 -0.676009E-01  0.125E-01    0.03       1.0  T
   6  -1026.0344808  0.642701E-01  0.187E-01    0.12       1.0  T
   7  -1026.1193122 -0.848314E-01  0.647E-02    0.04       1.0  T
   8  -1026.1281101 -0.879790E-02  0.477E-02    0.01       1.0  T
   9  -1026.0694158  0.586943E-01  0.154E-01    0.07       1.0  T
  10  -1026.1105573 -0.411415E-01  0.883E-02    0.03       1.0  T
  11  -1026.1293552 -0.187980E-01  0.278E-02    0.01       1.0  T
  12  -1026.1312201 -0.186492E-02  0.129E-02    0.01       1.0  T
  13  -1026.1314917 -0.271597E-03  0.683E-03    0.00       1.0  T
  14  -1026.1309843  0.507467E-03  0.156E-02    0.01       1.0  T
  15  -1026.1314753 -0.491003E-03  0.630E-03    0.01       1.0  T
  16  -1026.1315481 -0.728424E-04  0.296E-03    0.00       1.4  T
  17  -1026.1315704 -0.222652E-04  0.544E-04    0.00       7.7  T
  18  -1026.1315695  0.855667E-06  0.804E-04    0.00       5.2  T
  19  -1026.1315712 -0.167121E-05  0.488E-05    0.00      85.6  T
  20  -1026.1315712  0.354141E-07  0.122E-04    0.00      34.2  T
  21  -1026.1315712 -0.383079E-07  0.171E-05    0.00     244.6  T
     SCC iter.                  ...        0 min, 40.138 sec
     gradient                   ...        0 min,  1.692 sec
 * total energy  : -1006.1335255 Eh     change       -0.7911846E+01 Eh
   gradient norm :     5.1846895 Eh/a0  converged?    E=F G=F D=F
   step length   :     0.8596698 a0

........................................................................
.............................. CYCLE    2 ..............................
........................................................................
   1  -1026.3905449 -0.102639E+04  0.680E-02    0.01       0.0  T
   2  -1026.2548899  0.135655E+00  0.222E-01    0.17       1.0  T
   3  -1026.2488085  0.608133E-02  0.239E-01    0.26       1.0  T
   4  -1026.3573773 -0.108569E+00  0.112E-01    0.06       1.0  T
   5  -1026.3290476  0.283296E-01  0.145E-01    0.08       1.0  T
   6  -1026.3916575 -0.626099E-01  0.377E-02    0.01       1.0  T
   7  -1026.3806140  0.110435E-01  0.697E-02    0.04       1.0  T
   8  -1026.3915755 -0.109615E-01  0.355E-02    0.01       1.0  T
   9  -1026.3955579 -0.398237E-02  0.331E-03    0.00       1.3  T
  10  -1026.3955803 -0.223697E-04  0.148E-03    0.00       2.8  T
  11  -1026.3955806 -0.298995E-06  0.119E-03    0.00       3.5  T
  12  -1026.3955848 -0.421063E-05  0.326E-04    0.00      12.8  T
  13  -1026.3955848 -0.127193E-07  0.308E-04    0.00      13.6  T
  14  -1026.3955850 -0.215460E-06  0.166E-04    0.00      25.1  T
  15  -1026.3955850 -0.373195E-07  0.125E-04    0.00      33.5  T
     SCC iter.                  ...        0 min, 28.750 sec
     gradient                   ...        0 min,  1.705 sec
 * total energy  : -1007.2687384 Eh     change       -0.1135213E+01 Eh
   gradient norm :     4.2751328 Eh/a0  converged?    E=F G=F D=F
   step length   :     3.5217417 a0

........................................................................
.............................. CYCLE    3 ..............................
........................................................................
   1  -1026.6017715 -0.102660E+04  0.509E-02    0.00       0.0  T
   2  -1026.5864051  0.153664E-01  0.841E-02    0.03       1.0  T
   3  -1026.4666703  0.119735E+00  0.211E-01    0.27       1.0  T
   4  -1026.5927727 -0.126102E+00  0.591E-02    0.04       1.0  T
   5  -1026.5658485  0.269243E-01  0.107E-01    0.06       1.0  T
   6  -1026.6024935 -0.366450E-01  0.238E-02    0.01       1.0  T
   7  -1026.6013897  0.110382E-02  0.285E-02    0.02       1.0  T
   8  -1026.6027239 -0.133416E-02  0.203E-02    0.01       1.0  T
   9  -1026.6041263 -0.140243E-02  0.186E-03    0.00       2.2  T
  10  -1026.6041322 -0.595454E-05  0.110E-03    0.00       3.8  T
  11  -1026.6041359 -0.361787E-05  0.314E-04    0.00      13.3  T
  12  -1026.6041352  0.617168E-06  0.505E-04    0.00       8.3  T
  13  -1026.6041360 -0.773747E-06  0.185E-04    0.00      22.6  T
  14  -1026.6041361 -0.112455E-06  0.169E-05    0.00     247.4  T
     SCC iter.                  ...        0 min, 26.852 sec
     gradient                   ...        0 min,  1.703 sec
 * total energy  : -1007.9346428 Eh     change       -0.6659044E+00 Eh
   gradient norm :     3.6777199 Eh/a0  converged?    E=F G=F D=F
   step length   :     6.5161670 a0

........................................................................
.............................. CYCLE    4 ..............................
........................................................................
   1  -1026.6957252 -0.102670E+04  0.389E-02    0.01       0.0  T
   2  -1026.5529978  0.142727E+00  0.218E-01    0.24       1.0  T
   3  -1026.6938882 -0.140890E+00  0.467E-02    0.01       1.0  T
   4  -1026.6486358  0.452524E-01  0.121E-01    0.07       1.0  T
   5  -1026.6528918 -0.425606E-02  0.110E-01    0.08       1.0  T
   6  -1026.6743343 -0.214425E-01  0.786E-02    0.05       1.0  T
   7  -1026.6937618 -0.194275E-01  0.346E-02    0.02       1.0  T
   8  -1026.6976646 -0.390283E-02  0.529E-03    0.01       1.0  T
   9  -1026.6977440 -0.793968E-04  0.228E-03    0.00       1.8  T
  10  -1026.6977278  0.162165E-04  0.304E-03    0.00       1.4  T
  11  -1026.6977593 -0.315122E-04  0.935E-04    0.00       4.5  T
  12  -1026.6977609 -0.154700E-05  0.652E-04    0.00       6.4  T
  13  -1026.6977616 -0.765247E-06  0.433E-04    0.00       9.6  T
  14  -1026.6977622 -0.587928E-06  0.151E-04    0.00      27.6  T
  15  -1026.6977622 -0.221764E-07  0.135E-04    0.00      30.9  T
     SCC iter.                  ...        0 min, 28.713 sec
     gradient                   ...        0 min,  1.698 sec
 * total energy  : -1008.3003746 Eh     change       -0.3657318E+00 Eh
   gradient norm :     3.3193614 Eh/a0  converged?    E=F G=F D=F
   step length   :    11.4982319 a0

........................................................................
.............................. CYCLE    5 ..............................
........................................................................
   1  -1026.8523910 -0.102685E+04  0.488E-02    0.00       0.0  T
   2  -1026.7788851  0.735059E-01  0.156E-01    0.11       1.0  T
   3  -1026.8298168 -0.509317E-01  0.848E-02    0.05       1.0  T
   4  -1026.7794472  0.503696E-01  0.145E-01    0.12       1.0  T
   5  -1026.8418364 -0.623892E-01  0.619E-02    0.04       1.0  T
   6  -1026.8525512 -0.107148E-01  0.208E-02    0.01       1.0  T
   7  -1026.8542344 -0.168312E-02  0.381E-03    0.00       1.1  T
   8  -1026.8541915  0.428675E-04  0.500E-03    0.01       1.0  T
   9  -1026.8542507 -0.591835E-04  0.290E-03    0.00       1.4  T
  10  -1026.8542821 -0.314197E-04  0.181E-04    0.00      23.0  T
  11  -1026.8542820  0.899554E-07  0.174E-04    0.00      24.0  T
  12  -1026.8542819  0.119418E-06  0.253E-04    0.00      16.5  T
  13  -1026.8542821 -0.245254E-06  0.295E-05    0.00     141.7  T
     SCC iter.                  ...        0 min, 24.957 sec
     gradient                   ...        0 min,  1.710 sec
 * total energy  : -1008.6974773 Eh     change       -0.3971027E+00 Eh
   gradient norm :     2.9481234 Eh/a0  converged?    E=F G=F D=F
   step length   :    25.5860059 a0

........................................................................
.............................. CYCLE    6 ..............................
........................................................................
   1  -1026.9478704 -0.102695E+04  0.282E-02    0.01       0.0  T
   2  -1026.8948060  0.530644E-01  0.118E-01    0.08       1.0  T
   3  -1026.8980045 -0.319851E-02  0.111E-01    0.09       1.0  T
   4  -1026.9464632 -0.484587E-01  0.249E-02    0.01       1.0  T
   5  -1026.9487045 -0.224132E-02  0.880E-03    0.00       1.0  T
   6  -1026.9487579 -0.534083E-04  0.412E-03    0.00       1.0  T
   7  -1026.9487715 -0.135788E-04  0.274E-03    0.00       1.5  T
   8  -1026.9487947 -0.231844E-04  0.432E-04    0.00       9.7  T
   9  -1026.9487942  0.487875E-06  0.458E-04    0.00       9.1  T
  10  -1026.9487950 -0.790349E-06  0.113E-04    0.00      36.9  T
  11  -1026.9487950 -0.425161E-07  0.470E-05    0.00      88.7  T
     SCC iter.                  ...        0 min, 21.149 sec
     gradient                   ...        0 min,  1.699 sec
 * total energy  : -1008.9857212 Eh     change       -0.2882440E+00 Eh
   gradient norm :     2.6429325 Eh/a0  converged?    E=F G=F D=F
   step length   :    11.7863919 a0

........................................................................
.............................. CYCLE    7 ..............................
........................................................................
   1  -1027.0454230 -0.102705E+04  0.341E-02    0.01       0.0  T
   2  -1026.9911778  0.542452E-01  0.117E-01    0.09       1.0  T
   3  -1026.9668243  0.243535E-01  0.134E-01    0.14       1.0  T
   4  -1027.0465320 -0.797077E-01  0.974E-03    0.00       1.0  T
   5  -1027.0465062  0.257842E-04  0.980E-03    0.01       1.0  T
   6  -1027.0460625  0.443754E-03  0.123E-02    0.01       1.0  T
   7  -1027.0466205 -0.558026E-03  0.398E-03    0.00       1.0  T
   8  -1027.0466498 -0.293267E-04  0.274E-03    0.01       1.5  T
   9  -1027.0466845 -0.346671E-04  0.215E-04    0.00      19.4  T
  10  -1027.0466838  0.738414E-06  0.432E-04    0.00       9.7  T
  11  -1027.0466845 -0.741608E-06  0.146E-04    0.00      28.7  T
  12  -1027.0466846 -0.841105E-07  0.449E-05    0.00      92.9  T
     SCC iter.                  ...        0 min, 23.027 sec
     gradient                   ...        0 min,  1.700 sec
 * total energy  : -1009.2811386 Eh     change       -0.2954174E+00 Eh
   gradient norm :     2.3041286 Eh/a0  converged?    E=F G=F D=F
   step length   :    11.5854123 a0

........................................................................
.............................. CYCLE    8 ..............................
........................................................................
   1  -1027.0753053 -0.102708E+04  0.281E-02    0.01       0.0  T
   2  -1027.0634525  0.118528E-01  0.571E-02    0.04       1.0  T
   3  -1027.0123170  0.511355E-01  0.115E-01    0.10       1.0  T
   4  -1027.0619291 -0.496121E-01  0.560E-02    0.05       1.0  T
   5  -1027.0757764 -0.138473E-01  0.993E-03    0.01       1.0  T
   6  -1027.0759652 -0.188834E-03  0.305E-03    0.01       1.4  T
   7  -1027.0759345  0.307499E-04  0.360E-03    0.01       1.2  T
   8  -1027.0759639 -0.294308E-04  0.216E-03    0.01       1.9  T
   9  -1027.0759859 -0.219968E-04  0.262E-04    0.01      15.9  T
  10  -1027.0759858  0.130456E-06  0.265E-04    0.01      15.7  T
  11  -1027.0759861 -0.335110E-06  0.746E-05    0.01      56.0  T
  12  -1027.0759861 -0.226728E-07  0.248E-05    0.01     168.5  T
     SCC iter.                  ...        0 min, 23.016 sec
     gradient                   ...        0 min,  1.712 sec
 * total energy  : -1009.5029127 Eh     change       -0.2217741E+00 Eh
   gradient norm :     2.0170641 Eh/a0  converged?    E=F G=F D=F
   step length   :    10.9860150 a0

........................................................................
.............................. CYCLE    9 ..............................
........................................................................
   1  -1027.1194831 -0.102712E+04  0.294E-02    0.01       0.0  T
   2  -1027.1195902 -0.107148E-03  0.254E-02    0.01       1.0  T
   3  -1027.1030587  0.165316E-01  0.579E-02    0.05       1.0  T
   4  -1027.0830908  0.199679E-01  0.870E-02    0.07       1.0  T
   5  -1027.1196469 -0.365561E-01  0.148E-02    0.01       1.0  T
   6  -1027.1201317 -0.484740E-03  0.354E-03    0.01       1.2  T
   7  -1027.1201568 -0.251015E-04  0.170E-03    0.01       2.5  T
   8  -1027.1201607 -0.394600E-05  0.121E-03    0.01       3.4  T
   9  -1027.1201683 -0.757206E-05  0.187E-04    0.01      22.3  T
  10  -1027.1201683 -0.752959E-07  0.831E-05    0.01      50.2  T
  11  -1027.1201683  0.156385E-07  0.787E-05    0.01      53.0  T
     SCC iter.                  ...        0 min, 21.155 sec
     gradient                   ...        0 min,  1.714 sec
 * total energy  : -1009.7124607 Eh     change       -0.2095480E+00 Eh
   gradient norm :     1.7394740 Eh/a0  converged?    E=F G=F D=F
   step length   :    22.3573656 a0

........................................................................
.............................. CYCLE   10 ..............................
........................................................................
   1  -1027.1148321 -0.102711E+04  0.252E-02    0.02       0.0  T
   2  -1027.1108825  0.394968E-02  0.336E-02    0.03       1.0  T
   3  -1027.0548235  0.560589E-01  0.107E-01    0.13       1.0  T
   4  -1027.1153601 -0.605366E-01  0.565E-03    0.02       1.0  T
   5  -1027.1151414  0.218733E-03  0.771E-03    0.02       1.0  T
   6  -1027.1152577 -0.116329E-03  0.511E-03    0.02       1.0  T
   7  -1027.1153172 -0.595022E-04  0.332E-03    0.02       1.3  T
   8  -1027.1153726 -0.553595E-04  0.916E-04    0.02       4.6  T
   9  -1027.1153748 -0.222368E-05  0.582E-04    0.02       7.2  T
  10  -1027.1153765 -0.174394E-05  0.132E-04    0.02      31.7  T
  11  -1027.1153766 -0.845016E-07  0.312E-05    0.02     133.9  T
  12  -1027.1153766  0.207592E-08  0.283E-05    0.02     147.4  T
     SCC iter.                  ...        0 min, 23.451 sec
     gradient                   ...        0 min,  1.713 sec
 * total energy  : -1009.8814547 Eh     change       -0.1689940E+00 Eh
   gradient norm :     1.4904940 Eh/a0  converged?    E=F G=F D=F
   step length   :    11.8610613 a0

........................................................................
.............................. CYCLE   11 ..............................
........................................................................
   1  -1027.0853571 -0.102709E+04  0.249E-02    0.03       0.0  T
   2  -1027.0795809  0.577615E-02  0.359E-02    0.05       1.0  T
   3  -1027.0278691  0.517118E-01  0.102E-01    0.12       1.0  T
   4  -1027.0857872 -0.579181E-01  0.630E-03    0.03       1.0  T
   5  -1027.0857003  0.868487E-04  0.652E-03    0.03       1.0  T
   6  -1027.0858315 -0.131193E-03  0.269E-03    0.03       1.6  T
   7  -1027.0858424 -0.109011E-04  0.178E-03    0.03       2.3  T
   8  -1027.0858542 -0.117364E-04  0.725E-04    0.03       5.8  T
   9  -1027.0858560 -0.186796E-05  0.468E-04    0.03       8.9  T
  10  -1027.0858573 -0.129389E-05  0.933E-05    0.03      44.7  T
  11  -1027.0858574 -0.304669E-07  0.295E-05    0.03     141.3  T
  12  -1027.0858574  0.123389E-07  0.486E-05    0.03      85.8  T
     SCC iter.                  ...        0 min, 23.074 sec
     gradient                   ...        0 min,  1.704 sec
 * total energy  : -1010.0210307 Eh     change       -0.1395760E+00 Eh
   gradient norm :     1.2635449 Eh/a0  converged?    E=F G=F D=F
   step length   :    11.7465816 a0

........................................................................
.............................. CYCLE   12 ..............................
........................................................................
   1  -1027.0568663 -0.102706E+04  0.261E-02    0.05       0.0  T
   2  -1027.0570487 -0.182359E-03  0.149E-02    0.05       1.0  T
   3  -1027.0508667  0.618200E-02  0.334E-02    0.06       1.0  T
   4  -1027.0553204 -0.445375E-02  0.195E-02    0.06       1.0  T
   5  -1027.0572720 -0.195161E-02  0.540E-03    0.05       1.0  T
   6  -1027.0572592  0.128242E-04  0.399E-03    0.05       1.0  T
   7  -1027.0573280 -0.688234E-04  0.165E-03    0.05       2.5  T
   8  -1027.0573405 -0.124622E-04  0.405E-04    0.05      10.3  T
   9  -1027.0573407 -0.201451E-06  0.323E-04    0.05      12.9  T
  10  -1027.0573414 -0.716000E-06  0.677E-05    0.05      61.6  T
  11  -1027.0573414 -0.151708E-07  0.296E-05    0.05     141.2  T
     SCC iter.                  ...        0 min, 21.167 sec
     gradient                   ...        0 min,  1.706 sec
 * total energy  : -1010.1415435 Eh     change       -0.1205127E+00 Eh
   gradient norm :     1.0524150 Eh/a0  converged?    E=F G=F D=F
   step length   :     9.4928882 a0

........................................................................
.............................. CYCLE   13 ..............................
........................................................................
   1  -1027.0343823 -0.102703E+04  0.296E-02    0.09       0.0  T
   2  -1027.0312545  0.312784E-02  0.287E-02    0.09       1.0  T
   3  -1027.0047930  0.264615E-01  0.716E-02    0.12       1.0  T
   4  -1027.0349931 -0.302001E-01  0.592E-03    0.08       1.0  T
   5  -1027.0349899  0.319812E-05  0.421E-03    0.08       1.0  T
   6  -1027.0349812  0.870690E-05  0.281E-03    0.08       1.5  T
   7  -1027.0349993 -0.181067E-04  0.199E-03    0.08       2.1  T
   8  -1027.0350211 -0.218442E-04  0.369E-04    0.08      11.3  T
   9  -1027.0350205  0.570691E-06  0.377E-04    0.08      11.1  T
  10  -1027.0350215 -0.969229E-06  0.993E-05    0.08      42.0  T
  11  -1027.0350215 -0.316302E-07  0.592E-05    0.08      70.4  T
     SCC iter.                  ...        0 min, 21.231 sec
     gradient                   ...        0 min,  1.710 sec
 * total energy  : -1010.2445246 Eh     change       -0.1029811E+00 Eh
   gradient norm :     0.8572396 Eh/a0  converged?    E=F G=F D=F
   step length   :     7.0586424 a0

........................................................................
.............................. CYCLE   14 ..............................
........................................................................
   1  -1027.0181955 -0.102702E+04  0.330E-02    0.15       0.0  T
   2  -1027.0186337 -0.438192E-03  0.135E-02    0.14       1.0  T
   3  -1027.0187225 -0.888588E-04  0.702E-03    0.14       1.0  T
   4  -1027.0184132  0.309283E-03  0.959E-03    0.14       1.0  T
   5  -1027.0187047 -0.291497E-03  0.498E-03    0.14       1.0  T
   6  -1027.0187706 -0.658479E-04  0.260E-03    0.14       1.6  T
   7  -1027.0187944 -0.238430E-04  0.106E-03    0.14       4.0  T
   8  -1027.0187992 -0.476358E-05  0.381E-04    0.14      11.0  T
   9  -1027.0187996 -0.461451E-06  0.189E-04    0.14      22.0  T
  10  -1027.0187998 -0.155835E-06  0.706E-05    0.14      59.2  T
     SCC iter.                  ...        0 min, 19.262 sec
     gradient                   ...        0 min,  1.709 sec
 * total energy  : -1010.3291374 Eh     change       -0.8461284E-01 Eh
   gradient norm :     0.6738069 Eh/a0  converged?    E=F G=F D=F
   step length   :     5.6495579 a0

........................................................................
.............................. CYCLE   15 ..............................
........................................................................
   1  -1027.0068066 -0.102701E+04  0.295E-02    0.22       0.0  T
   2  -1027.0070621 -0.255579E-03  0.156E-02    0.21       1.0  T
   3  -1027.0071594 -0.972643E-04  0.876E-03    0.21       1.0  T
   4  -1027.0072384 -0.790116E-04  0.672E-03    0.21       1.0  T
   5  -1027.0073446 -0.106148E-03  0.310E-03    0.21       1.3  T
   6  -1027.0073490 -0.443575E-05  0.181E-03    0.21       2.3  T
   7  -1027.0073604 -0.114031E-04  0.439E-04    0.21       9.5  T
   8  -1027.0073610 -0.581772E-06  0.204E-04    0.21      20.4  T
   9  -1027.0073611 -0.887005E-07  0.660E-05    0.21      63.3  T
  10  -1027.0073611 -0.811269E-09  0.505E-05    0.21      82.7  T
     SCC iter.                  ...        0 min, 19.228 sec
     gradient                   ...        0 min,  1.715 sec
 * total energy  : -1010.3944052 Eh     change       -0.6526777E-01 Eh
   gradient norm :     0.5243790 Eh/a0  converged?    E=F G=F D=F
   step length   :     4.7962754 a0

........................................................................
.............................. CYCLE   16 ..............................
........................................................................
   1  -1027.0243519 -0.102702E+04  0.285E-02    0.32       0.0  T
   2  -1027.0246726 -0.320705E-03  0.126E-02    0.31       1.0  T
   3  -1027.0247829 -0.110279E-03  0.508E-03    0.31       1.0  T
   4  -1027.0247945 -0.115636E-04  0.330E-03    0.31       1.3  T
   5  -1027.0247987 -0.418278E-05  0.182E-03    0.31       2.3  T
   6  -1027.0248037 -0.499640E-05  0.520E-04    0.31       8.0  T
   7  -1027.0248042 -0.576694E-06  0.241E-04    0.31      17.3  T
   8  -1027.0248043 -0.112740E-06  0.671E-05    0.31      62.2  T
   9  -1027.0248043 -0.283967E-08  0.405E-05    0.31     103.1  T
     SCC iter.                  ...        0 min, 17.314 sec
     gradient                   ...        0 min,  1.729 sec
 * total energy  : -1010.4436942 Eh     change       -0.4928897E-01 Eh
   gradient norm :     0.3658247 Eh/a0  converged?    E=F G=F D=F
   step length   :     3.6907478 a0

........................................................................
.............................. CYCLE   17 ..............................
........................................................................
   1  -1027.0008048 -0.102700E+04  0.212E-02    0.40       0.0  T
   2  -1027.0009863 -0.181434E-03  0.121E-02    0.40       1.0  T
   3  -1027.0010644 -0.781495E-04  0.464E-03    0.40       1.0  T
   4  -1027.0010616  0.280579E-05  0.406E-03    0.40       1.0  T
   5  -1027.0010733 -0.117163E-04  0.173E-03    0.40       2.4  T
   6  -1027.0010780 -0.466105E-05  0.333E-04    0.40      12.5  T
   7  -1027.0010781 -0.122669E-06  0.184E-04    0.40      22.7  T
   8  -1027.0010782 -0.647174E-07  0.698E-05    0.40      59.8  T
     SCC iter.                  ...        0 min, 15.458 sec
     gradient                   ...        0 min,  1.715 sec
 * total energy  : -1010.4749331 Eh     change       -0.3123892E-01 Eh
   gradient norm :     0.2612263 Eh/a0  converged?    E=F G=F D=F
   step length   :     3.0043262 a0

........................................................................
.............................. CYCLE   18 ..............................
........................................................................
   1  -1027.0307342 -0.102703E+04  0.187E-02    0.49       0.0  T
   2  -1027.0308571 -0.122954E-03  0.108E-02    0.48       1.0  T
   3  -1027.0309279 -0.707652E-04  0.346E-03    0.48       1.2  T
   4  -1027.0309275  0.374898E-06  0.312E-03    0.48       1.3  T
   5  -1027.0309351 -0.760892E-05  0.132E-03    0.48       3.2  T
   6  -1027.0309368 -0.168594E-05  0.328E-04    0.48      12.7  T
   7  -1027.0309370 -0.198464E-06  0.135E-04    0.48      30.9  T
   8  -1027.0309371 -0.342345E-07  0.457E-05    0.48      91.2  T
     SCC iter.                  ...        0 min, 15.408 sec
     gradient                   ...        0 min,  1.714 sec
 * total energy  : -1010.4945162 Eh     change       -0.1958311E-01 Eh
   gradient norm :     0.1626319 Eh/a0  converged?    E=F G=F D=F
   step length   :     2.2874288 a0

........................................................................
.............................. CYCLE   19 ..............................
........................................................................
   1  -1027.0194650 -0.102702E+04  0.150E-02    0.54       0.0  T
   2  -1027.0195382 -0.732108E-04  0.905E-03    0.54       1.0  T
   3  -1027.0195771 -0.388653E-04  0.342E-03    0.54       1.2  T
   4  -1027.0195739  0.323227E-05  0.305E-03    0.54       1.4  T
   5  -1027.0195808 -0.692816E-05  0.122E-03    0.54       3.4  T
   6  -1027.0195829 -0.214253E-05  0.267E-04    0.54      15.6  T
   7  -1027.0195830 -0.953978E-07  0.118E-04    0.54      35.5  T
   8  -1027.0195831 -0.288278E-07  0.419E-05    0.54      99.7  T
     SCC iter.                  ...        0 min, 15.384 sec
     gradient                   ...        0 min,  1.709 sec
 * total energy  : -1010.5054377 Eh     change       -0.1092154E-01 Eh
   gradient norm :     0.1116907 Eh/a0  converged?    E=F G=F D=F
   step length   :     2.0362857 a0

........................................................................
.............................. CYCLE   20 ..............................
........................................................................
   1  -1026.9965653 -0.102700E+04  0.125E-02    0.58       0.0  T
   2  -1026.9966122 -0.468436E-04  0.769E-03    0.58       1.0  T
   3  -1026.9966358 -0.236418E-04  0.302E-03    0.58       1.4  T
   4  -1026.9966315  0.433802E-05  0.275E-03    0.58       1.5  T
   5  -1026.9966380 -0.654333E-05  0.104E-03    0.58       4.0  T
   6  -1026.9966397 -0.164016E-05  0.237E-04    0.58      17.6  T
   7  -1026.9966398 -0.917664E-07  0.948E-05    0.58      44.0  T
   8  -1026.9966398 -0.185378E-07  0.330E-05    0.58     126.5  T
     SCC iter.                  ...        0 min, 15.373 sec
     gradient                   ...        0 min,  1.720 sec
 * total energy  : -1010.5131045 Eh     change       -0.7666752E-02 Eh
   gradient norm :     0.0808103 Eh/a0  converged?    E=F G=F D=F
   step length   :     1.9093065 a0
 * RMSD in coord.:     0.5963856 a0     energy gain  -0.1229142E+02 Eh
 * calculating model hessian...
Using Lindh-Hessian (1995)
 Shifting diagonal of input Hessian by    1.0003033911980310E-002
 Lowest  eigenvalues of input Hessian
    0.010000    0.010000    0.010001    0.010001    0.010002    0.010002
    0.010002    0.010002    0.000000    0.000000    0.000000    0.000000
    0.000000    0.000000    0.010003    0.010004    0.010005    0.010006
 Highest eigenvalues
    2.855896    2.855949    2.856385    2.858392    2.890079    2.891988


........................................................................
.............................. CYCLE   21 ..............................
........................................................................
   1  -1027.0648637 -0.102706E+04  0.666E-03    0.60       0.0  T
   2  -1027.0648760 -0.122282E-04  0.492E-03    0.60       1.0  T
   3  -1027.0648867 -0.107277E-04  0.240E-03    0.60       1.7  T
   4  -1027.0648840  0.271962E-05  0.209E-03    0.60       2.0  T
   5  -1027.0648892 -0.521127E-05  0.625E-04    0.60       6.7  T
   6  -1027.0648897 -0.524115E-06  0.174E-04    0.60      24.0  T
   7  -1027.0648898 -0.600073E-07  0.646E-05    0.60      64.7  T
     SCC iter.                  ...        0 min, 13.470 sec
     gradient                   ...        0 min,  1.705 sec
 * total energy  : -1010.5306833 Eh     change       -0.1757879E-01 Eh
   gradient norm :     0.0365446 Eh/a0  converged?    E=F G=F D=F
   step length   :     0.5439209 a0

........................................................................
.............................. CYCLE   22 ..............................
........................................................................
   1  -1027.1150569 -0.102712E+04  0.871E-03    0.63       0.0  T
   2  -1027.1150955 -0.385726E-04  0.565E-03    0.63       1.0  T
   3  -1027.1151083 -0.127961E-04  0.265E-03    0.63       1.6  T
   4  -1027.1151064  0.183946E-05  0.228E-03    0.63       1.8  T
   5  -1027.1151107 -0.430995E-05  0.796E-04    0.63       5.2  T
   6  -1027.1151116 -0.864569E-06  0.246E-04    0.63      17.0  T
   7  -1027.1151117 -0.107958E-06  0.943E-05    0.63      44.2  T
   8  -1027.1151117 -0.161447E-07  0.382E-05    0.63     109.4  T
     SCC iter.                  ...        0 min, 15.461 sec
     gradient                   ...        0 min,  1.711 sec
 * total energy  : -1010.5445535 Eh     change       -0.1387023E-01 Eh
   gradient norm :     0.0416717 Eh/a0  converged?    E=F G=F D=F
   step length   :     1.3259095 a0

........................................................................
.............................. CYCLE   23 ..............................
........................................................................
   1  -1027.1263458 -0.102713E+04  0.693E-03    0.64       0.0  T
   2  -1027.1263594 -0.136226E-04  0.497E-03    0.64       1.0  T
   3  -1027.1263728 -0.133702E-04  0.225E-03    0.64       1.9  T
   4  -1027.1263712  0.163100E-05  0.189E-03    0.64       2.2  T
   5  -1027.1263751 -0.398207E-05  0.408E-04    0.64      10.2  T
   6  -1027.1263753 -0.171351E-06  0.159E-04    0.64      26.3  T
   7  -1027.1263753 -0.398054E-07  0.698E-05    0.64      59.8  T
     SCC iter.                  ...        0 min, 13.497 sec
     gradient                   ...        0 min,  1.716 sec
 * total energy  : -1010.5531189 Eh     change       -0.8565396E-02 Eh
   gradient norm :     0.0530163 Eh/a0  converged?    E=F G=F D=F
   step length   :     1.7378408 a0

........................................................................
.............................. CYCLE   24 ..............................
........................................................................
   1  -1027.1279616 -0.102713E+04  0.523E-03    0.65       0.0  T
   2  -1027.1279707 -0.916209E-05  0.266E-03    0.65       1.6  T
   3  -1027.1279741 -0.333278E-05  0.134E-03    0.65       3.1  T
   4  -1027.1279739  0.137831E-06  0.692E-04    0.65       6.0  T
   5  -1027.1279744 -0.435748E-06  0.308E-04    0.65      13.6  T
   6  -1027.1279745 -0.169772E-06  0.869E-05    0.65      48.0  T
   7  -1027.1279745 -0.872842E-08  0.351E-05    0.65     119.1  T
     SCC iter.                  ...        0 min, 13.468 sec
     gradient                   ...        0 min,  1.701 sec
 * total energy  : -1010.5607177 Eh     change       -0.7598813E-02 Eh
   gradient norm :     0.0498974 Eh/a0  converged?    E=F G=F D=F
   step length   :     1.7061540 a0

........................................................................
.............................. CYCLE   25 ..............................
........................................................................
   1  -1027.1204805 -0.102712E+04  0.564E-03    0.65       0.0  T
   2  -1027.1204891 -0.852977E-05  0.333E-03    0.65       1.3  T
   3  -1027.1204932 -0.409845E-05  0.163E-03    0.65       2.6  T
   4  -1027.1204919  0.129358E-05  0.110E-03    0.65       3.8  T
   5  -1027.1204936 -0.176355E-05  0.266E-04    0.65      15.7  T
   6  -1027.1204937 -0.104773E-06  0.859E-05    0.65      48.6  T
   7  -1027.1204937 -0.128841E-07  0.360E-05    0.65     116.0  T
     SCC iter.                  ...        0 min, 13.482 sec
     gradient                   ...        0 min,  1.707 sec
 * total energy  : -1010.5670589 Eh     change       -0.6341201E-02 Eh
   gradient norm :     0.0348954 Eh/a0  converged?    E=F G=F D=F
   step length   :     2.2982626 a0

........................................................................
.............................. CYCLE   26 ..............................
........................................................................
   1  -1027.1093257 -0.102711E+04  0.487E-03    0.65       0.0  T
   2  -1027.1093322 -0.643879E-05  0.317E-03    0.65       1.3  T
   3  -1027.1093365 -0.438622E-05  0.141E-03    0.65       3.0  T
   4  -1027.1093354  0.116022E-05  0.119E-03    0.65       3.5  T
   5  -1027.1093371 -0.172154E-05  0.325E-04    0.65      12.8  T
   6  -1027.1093373 -0.180013E-06  0.943E-05    0.65      44.3  T
   7  -1027.1093373 -0.147575E-07  0.384E-05    0.65     108.7  T
     SCC iter.                  ...        0 min, 13.455 sec
     gradient                   ...        0 min,  1.711 sec
 * total energy  : -1010.5714851 Eh     change       -0.4426180E-02 Eh
   gradient norm :     0.0237983 Eh/a0  converged?    E=F G=F D=F
   step length   :     2.5309235 a0

........................................................................
.............................. CYCLE   27 ..............................
........................................................................
   1  -1027.0976982 -0.102710E+04  0.388E-03    0.64       0.0  T
   2  -1027.0977016 -0.339939E-05  0.224E-03    0.64       1.9  T
   3  -1027.0977032 -0.156571E-05  0.130E-03    0.64       3.2  T
   4  -1027.0977027  0.558204E-06  0.959E-04    0.64       4.4  T
   5  -1027.0977040 -0.138828E-05  0.258E-04    0.64      16.2  T
   6  -1027.0977041 -0.983057E-07  0.757E-05    0.64      55.2  T
   7  -1027.0977042 -0.904379E-08  0.387E-05    0.64     107.8  T
     SCC iter.                  ...        0 min, 13.469 sec
     gradient                   ...        0 min,  1.707 sec
 * total energy  : -1010.5748604 Eh     change       -0.3375246E-02 Eh
   gradient norm :     0.0201305 Eh/a0  converged?    E=F G=F D=F
   step length   :     2.3168604 a0

........................................................................
.............................. CYCLE   28 ..............................
........................................................................
   1  -1027.0910521 -0.102709E+04  0.298E-03    0.64       0.0  T
   2  -1027.0910542 -0.213769E-05  0.187E-03    0.64       2.2  T
   3  -1027.0910557 -0.143166E-05  0.102E-03    0.64       4.1  T
   4  -1027.0910554  0.251887E-06  0.760E-04    0.64       5.5  T
   5  -1027.0910562 -0.756883E-06  0.251E-04    0.64      16.6  T
   6  -1027.0910563 -0.107014E-06  0.646E-05    0.64      64.6  T
   7  -1027.0910563 -0.536375E-08  0.350E-05    0.64     119.1  T
     SCC iter.                  ...        0 min, 13.522 sec
     gradient                   ...        0 min,  1.720 sec
 * total energy  : -1010.5776764 Eh     change       -0.2816016E-02 Eh
   gradient norm :     0.0219826 Eh/a0  converged?    E=F G=F D=F
   step length   :     2.0543479 a0

........................................................................
.............................. CYCLE   29 ..............................
........................................................................
   1  -1027.0847890 -0.102708E+04  0.236E-03    0.64       0.0  T
   2  -1027.0847904 -0.137362E-05  0.146E-03    0.64       2.9  T
   3  -1027.0847915 -0.105938E-05  0.835E-04    0.64       5.0  T
   4  -1027.0847916 -0.888026E-07  0.581E-04    0.64       7.2  T
   5  -1027.0847920 -0.409673E-06  0.204E-04    0.64      20.5  T
   6  -1027.0847920 -0.657665E-07  0.563E-05    0.64      74.2  T
   7  -1027.0847921 -0.377463E-08  0.288E-05    0.64     144.8  T
     SCC iter.                  ...        0 min, 13.502 sec
     gradient                   ...        0 min,  1.710 sec
 * total energy  : -1010.5803468 Eh     change       -0.2670441E-02 Eh
   gradient norm :     0.0246575 Eh/a0  converged?    E=F G=F D=F
   step length   :     3.2545294 a0

........................................................................
.............................. CYCLE   30 ..............................
........................................................................
   1  -1027.0793882 -0.102708E+04  0.210E-03    0.63       0.0  T
   2  -1027.0793894 -0.122341E-05  0.126E-03    0.63       3.3  T
   3  -1027.0793903 -0.825296E-06  0.686E-04    0.63       6.1  T
   4  -1027.0793903 -0.267321E-07  0.469E-04    0.63       8.9  T
   5  -1027.0793905 -0.226299E-06  0.199E-04    0.63      21.0  T
   6  -1027.0793906 -0.704149E-07  0.547E-05    0.63      76.3  T
     SCC iter.                  ...        0 min, 11.905 sec
     gradient                   ...        0 min,  1.708 sec
 * total energy  : -1010.5830026 Eh     change       -0.2655791E-02 Eh
   gradient norm :     0.0262086 Eh/a0  converged?    E=F G=F D=F
   step length   :     4.6531984 a0

........................................................................
.............................. CYCLE   31 ..............................
........................................................................
   1  -1027.0756993 -0.102708E+04  0.173E-03    0.63       0.0  T
   2  -1027.0757002 -0.917935E-06  0.104E-03    0.63       4.0  T
   3  -1027.0757008 -0.672900E-06  0.580E-04    0.63       7.2  T
   4  -1027.0757010 -0.135600E-06  0.391E-04    0.63      10.7  T
   5  -1027.0757011 -0.143026E-06  0.159E-04    0.63      26.2  T
   6  -1027.0757012 -0.427663E-07  0.473E-05    0.63      88.3  T
     SCC iter.                  ...        0 min, 11.577 sec
     gradient                   ...        0 min,  1.707 sec
 * total energy  : -1010.5856347 Eh     change       -0.2632081E-02 Eh
   gradient norm :     0.0264641 Eh/a0  converged?    E=F G=F D=F
   step length   :     4.8661344 a0

........................................................................
.............................. CYCLE   32 ..............................
........................................................................
   1  -1027.0747246 -0.102707E+04  0.164E-03    0.63       0.0  T
   2  -1027.0747255 -0.893322E-06  0.935E-04    0.63       4.5  T
   3  -1027.0747261 -0.546418E-06  0.518E-04    0.63       8.1  T
   4  -1027.0747262 -0.116167E-06  0.327E-04    0.63      12.7  T
   5  -1027.0747263 -0.785906E-07  0.151E-04    0.63      27.7  T
   6  -1027.0747263 -0.374093E-07  0.485E-05    0.63      86.1  T
     SCC iter.                  ...        0 min, 11.567 sec
     gradient                   ...        0 min,  1.711 sec
 * total energy  : -1010.5882209 Eh     change       -0.2586168E-02 Eh
   gradient norm :     0.0263148 Eh/a0  converged?    E=F G=F D=F
   step length   :     5.3196053 a0

........................................................................
.............................. CYCLE   33 ..............................
........................................................................
   1  -1027.0744317 -0.102707E+04  0.150E-03    0.63       0.0  T
   2  -1027.0744324 -0.750332E-06  0.886E-04    0.63       4.7  T
   3  -1027.0744330 -0.517302E-06  0.480E-04    0.63       8.7  T
   4  -1027.0744331 -0.110070E-06  0.319E-04    0.63      13.1  T
   5  -1027.0744332 -0.847103E-07  0.127E-04    0.63      32.9  T
   6  -1027.0744332 -0.252776E-07  0.447E-05    0.63      93.5  T
     SCC iter.                  ...        0 min, 11.559 sec
     gradient                   ...        0 min,  1.710 sec
 * total energy  : -1010.5906829 Eh     change       -0.2462063E-02 Eh
   gradient norm :     0.0245518 Eh/a0  converged?    E=F G=F D=F
   step length   :     5.8048106 a0

........................................................................
.............................. CYCLE   34 ..............................
........................................................................
   1  -1027.0753548 -0.102708E+04  0.141E-03    0.63       0.0  T
   2  -1027.0753557 -0.837656E-06  0.835E-04    0.63       5.0  T
   3  -1027.0753561 -0.441556E-06  0.453E-04    0.63       9.2  T
   4  -1027.0753562 -0.930770E-07  0.292E-04    0.63      14.3  T
   5  -1027.0753563 -0.624016E-07  0.116E-04    0.63      35.8  T
   6  -1027.0753563 -0.167686E-07  0.418E-05    0.63      99.7  T
     SCC iter.                  ...        0 min, 11.587 sec
     gradient                   ...        0 min,  1.724 sec
 * total energy  : -1010.5929923 Eh     change       -0.2309381E-02 Eh
   gradient norm :     0.0232453 Eh/a0  converged?    E=F G=F D=F
   step length   :     5.6639702 a0

........................................................................
.............................. CYCLE   35 ..............................
........................................................................
   1  -1027.0811827 -0.102708E+04  0.134E-03    0.64       0.0  T
   2  -1027.0811832 -0.506000E-06  0.898E-04    0.64       4.6  T
   3  -1027.0811839 -0.626425E-06  0.484E-04    0.64       8.6  T
   4  -1027.0811840 -0.130337E-06  0.307E-04    0.64      13.6  T
   5  -1027.0811841 -0.777486E-07  0.944E-05    0.64      44.2  T
   6  -1027.0811841 -0.776049E-08  0.383E-05    0.64     109.0  T
     SCC iter.                  ...        0 min, 11.632 sec
     gradient                   ...        0 min,  1.708 sec
 * total energy  : -1010.5951480 Eh     change       -0.2155743E-02 Eh
   gradient norm :     0.0219295 Eh/a0  converged?    E=F G=F D=F
   step length   :     5.0099923 a0

........................................................................
.............................. CYCLE   36 ..............................
........................................................................
   1  -1027.0852636 -0.102709E+04  0.147E-03    0.64       0.0  T
   2  -1027.0852643 -0.693015E-06  0.979E-04    0.64       4.3  T
   3  -1027.0852650 -0.671759E-06  0.505E-04    0.64       8.3  T
   4  -1027.0852651 -0.887139E-07  0.343E-04    0.64      12.2  T
   5  -1027.0852652 -0.100226E-06  0.108E-04    0.64      38.5  T
   6  -1027.0852652 -0.963837E-08  0.417E-05    0.64     100.0  T
     SCC iter.                  ...        0 min, 11.633 sec
     gradient                   ...        0 min,  1.723 sec
 * total energy  : -1010.5970648 Eh     change       -0.1916799E-02 Eh
   gradient norm :     0.0203060 Eh/a0  converged?    E=F G=F D=F
   step length   :     4.9953217 a0

........................................................................
.............................. CYCLE   37 ..............................
........................................................................
   1  -1027.0943948 -0.102709E+04  0.144E-03    0.64       0.0  T
   2  -1027.0943954 -0.685837E-06  0.978E-04    0.64       4.3  T
   3  -1027.0943961 -0.675974E-06  0.533E-04    0.64       7.8  T
   4  -1027.0943963 -0.141194E-06  0.344E-04    0.64      12.1  T
   5  -1027.0943964 -0.102475E-06  0.113E-04    0.64      37.0  T
   6  -1027.0943964 -0.985597E-08  0.451E-05    0.64      92.5  T
     SCC iter.                  ...        0 min, 11.571 sec
     gradient                   ...        0 min,  1.707 sec
 * total energy  : -1010.5988302 Eh     change       -0.1765338E-02 Eh
   gradient norm :     0.0177103 Eh/a0  converged?    E=F G=F D=F
   step length   :     4.6925810 a0

........................................................................
.............................. CYCLE   38 ..............................
........................................................................
   1  -1027.1070859 -0.102711E+04  0.154E-03    0.64       0.0  T
   2  -1027.1070864 -0.446019E-06  0.114E-03    0.64       3.7  T
   3  -1027.1070875 -0.115062E-05  0.590E-04    0.64       7.1  T
   4  -1027.1070877 -0.154979E-06  0.368E-04    0.64      11.4  T
   5  -1027.1070878 -0.104854E-06  0.117E-04    0.64      35.6  T
   6  -1027.1070878 -0.101295E-07  0.469E-05    0.64      89.0  T
     SCC iter.                  ...        0 min, 11.573 sec
     gradient                   ...        0 min,  1.702 sec
 * total energy  : -1010.6003843 Eh     change       -0.1554160E-02 Eh
   gradient norm :     0.0201520 Eh/a0  converged?    E=F G=F D=F
   step length   :     3.9270463 a0

........................................................................
.............................. CYCLE   39 ..............................
........................................................................
   1  -1027.1160688 -0.102712E+04  0.177E-03    0.65       0.0  T
   2  -1027.1160697 -0.806693E-06  0.110E-03    0.65       3.8  T
   3  -1027.1160704 -0.717437E-06  0.625E-04    0.65       6.7  T
   4  -1027.1160706 -0.213881E-06  0.398E-04    0.65      10.5  T
   5  -1027.1160707 -0.135888E-06  0.147E-04    0.65      28.4  T
   6  -1027.1160707 -0.256189E-07  0.518E-05    0.65      80.5  T
     SCC iter.                  ...        0 min, 11.566 sec
     gradient                   ...        0 min,  1.702 sec
 * total energy  : -1010.6017291 Eh     change       -0.1344807E-02 Eh
   gradient norm :     0.0168157 Eh/a0  converged?    E=F G=F D=F
   step length   :     4.1286490 a0

........................................................................
.............................. CYCLE   40 ..............................
........................................................................
   1  -1027.1309758 -0.102713E+04  0.181E-03    0.65       0.0  T
   2  -1027.1309765 -0.769727E-06  0.119E-03    0.65       3.5  T
   3  -1027.1309776 -0.101637E-05  0.664E-04    0.65       6.3  T
   4  -1027.1309778 -0.287608E-06  0.407E-04    0.65      10.2  T
   5  -1027.1309780 -0.134229E-06  0.152E-04    0.65      27.5  T
   6  -1027.1309780 -0.253440E-07  0.523E-05    0.65      79.8  T
     SCC iter.                  ...        0 min, 11.573 sec
     gradient                   ...        0 min,  1.699 sec
 * total energy  : -1010.6029702 Eh     change       -0.1241087E-02 Eh
   gradient norm :     0.0162420 Eh/a0  converged?    E=F G=F D=F
   step length   :     3.4536114 a0

........................................................................
.............................. CYCLE   41 ..............................
........................................................................
   1  -1027.1505650 -0.102715E+04  0.202E-03    0.65       0.0  T
   2  -1027.1505657 -0.706467E-06  0.131E-03    0.65       3.2  T
   3  -1027.1505670 -0.128768E-05  0.748E-04    0.65       5.6  T
   4  -1027.1505674 -0.466776E-06  0.432E-04    0.65       9.7  T
   5  -1027.1505675 -0.118550E-06  0.166E-04    0.65      25.1  T
   6  -1027.1505676 -0.298060E-07  0.511E-05    0.65      81.7  T
     SCC iter.                  ...        0 min, 11.584 sec
     gradient                   ...        0 min,  1.704 sec
 * total energy  : -1010.6040599 Eh     change       -0.1089696E-02 Eh
   gradient norm :     0.0237821 Eh/a0  converged?    E=F G=F D=F
   step length   :     3.3289459 a0

........................................................................
.............................. CYCLE   42 ..............................
........................................................................
   1  -1027.2142345 -0.102721E+04  0.573E-03    0.65       0.0  T
   2  -1027.2142393 -0.472445E-05  0.308E-03    0.65       1.4  T
   3  -1027.2142382  0.101227E-05  0.218E-03    0.65       1.9  T
   4  -1027.2142413 -0.300957E-05  0.130E-03    0.65       3.2  T
   5  -1027.2142436 -0.235363E-05  0.327E-04    0.65      12.8  T
   6  -1027.2142438 -0.151548E-06  0.105E-04    0.65      39.9  T
   7  -1027.2142438 -0.223590E-07  0.368E-05    0.65     113.5  T
     SCC iter.                  ...        0 min, 13.517 sec
     gradient                   ...        0 min,  1.704 sec
 * total energy  : -1010.6058985 Eh     change       -0.1838531E-02 Eh
   gradient norm :     0.0186611 Eh/a0  converged?    E=F G=F D=F
   step length   :     3.9254010 a0
 * RMSD in coord.:     0.7690731 a0     energy gain  -0.9279396E-01 Eh
 * calculating model hessian...
Using Lindh-Hessian (1995)
 Shifting diagonal of input Hessian by    1.0002211306082245E-002
 Lowest  eigenvalues of input Hessian
    0.010000    0.010000    0.010001    0.010001    0.010001    0.010002
    0.010002    0.010002    0.000000    0.000000    0.000000    0.000000
    0.000000    0.000000    0.010003    0.010003    0.010004    0.010005
 Highest eigenvalues
    2.916547    2.917248    2.931323    2.933224    2.942331    2.942334


........................................................................
.............................. CYCLE   43 ..............................
........................................................................
   1  -1027.1798666 -0.102718E+04  0.274E-03    0.65       0.0  T
   2  -1027.1798682 -0.160376E-05  0.157E-03    0.65       2.7  T
   3  -1027.1798680  0.154373E-06  0.102E-03    0.65       4.1  T
   4  -1027.1798678  0.211408E-06  0.712E-04    0.65       5.9  T
   5  -1027.1798688 -0.983034E-06  0.140E-04    0.65      29.9  T
   6  -1027.1798688 -0.311270E-07  0.458E-05    0.65      91.1  T
     SCC iter.                  ...        0 min, 11.564 sec
     gradient                   ...        0 min,  1.700 sec
 * total energy  : -1010.6066946 Eh     change       -0.7961911E-03 Eh
   gradient norm :     0.0091217 Eh/a0  converged?    E=F G=F D=F
   step length   :     0.2031525 a0

........................................................................
.............................. CYCLE   44 ..............................
........................................................................
   1  -1027.1070687 -0.102711E+04  0.559E-03    0.64       0.0  T
   2  -1027.1070752 -0.651795E-05  0.320E-03    0.64       1.3  T
   3  -1027.1070746  0.566677E-06  0.207E-03    0.64       2.0  T
   4  -1027.1070739  0.746718E-06  0.148E-03    0.64       2.8  T
   5  -1027.1070780 -0.414138E-05  0.273E-04    0.64      15.3  T
   6  -1027.1070781 -0.114829E-06  0.987E-05    0.64      42.3  T
   7  -1027.1070782 -0.175612E-07  0.399E-05    0.64     104.5  T
     SCC iter.                  ...        0 min, 13.489 sec
     gradient                   ...        0 min,  1.706 sec
 * total energy  : -1010.6073121 Eh     change       -0.6174170E-03 Eh
   gradient norm :     0.0235106 Eh/a0  converged?    E=F G=F D=F
   step length   :     0.6647940 a0

........................................................................
.............................. CYCLE   45 ..............................
........................................................................
   1  -1027.0826729 -0.102708E+04  0.235E-03    0.64       0.0  T
   2  -1027.0826740 -0.110700E-05  0.148E-03    0.64       2.8  T
   3  -1027.0826746 -0.558931E-06  0.937E-04    0.64       4.5  T
   4  -1027.0826749 -0.366123E-06  0.623E-04    0.64       6.7  T
   5  -1027.0826755 -0.573874E-06  0.151E-04    0.64      27.7  T
   6  -1027.0826755 -0.275418E-07  0.548E-05    0.64      76.2  T
     SCC iter.                  ...        0 min, 11.573 sec
     gradient                   ...        0 min,  1.712 sec
 * total energy  : -1010.6085774 Eh     change       -0.1265383E-02 Eh
   gradient norm :     0.0291376 Eh/a0  converged?    E=F G=F D=F
   step length   :     0.6907599 a0

........................................................................
.............................. CYCLE   46 ..............................
........................................................................
   1  -1027.1075916 -0.102711E+04  0.270E-03    0.64       0.0  T
   2  -1027.1075933 -0.162538E-05  0.177E-03    0.64       2.4  T
   3  -1027.1075938 -0.586817E-06  0.100E-03    0.64       4.2  T
   4  -1027.1075933  0.505239E-06  0.717E-04    0.64       5.8  T
   5  -1027.1075942 -0.858807E-06  0.128E-04    0.64      32.6  T
   6  -1027.1075942 -0.187110E-07  0.464E-05    0.64      90.0  T
     SCC iter.                  ...        0 min, 11.575 sec
     gradient                   ...        0 min,  1.715 sec
 * total energy  : -1010.6099318 Eh     change       -0.1354392E-02 Eh
   gradient norm :     0.0227762 Eh/a0  converged?    E=F G=F D=F
   step length   :     0.6685347 a0

........................................................................
.............................. CYCLE   47 ..............................
........................................................................
   1  -1027.1343631 -0.102713E+04  0.343E-03    0.64       0.0  T
   2  -1027.1343660 -0.290110E-05  0.217E-03    0.64       1.9  T
   3  -1027.1343669 -0.891137E-06  0.124E-03    0.64       3.4  T
   4  -1027.1343662  0.696702E-06  0.917E-04    0.64       4.6  T
   5  -1027.1343676 -0.139806E-05  0.195E-04    0.64      21.5  T
   6  -1027.1343676 -0.501727E-07  0.617E-05    0.64      67.7  T
   7  -1027.1343676 -0.581031E-08  0.299E-05    0.64     139.7  T
     SCC iter.                  ...        0 min, 13.508 sec
     gradient                   ...        0 min,  1.724 sec
 * total energy  : -1010.6118295 Eh     change       -0.1897643E-02 Eh
   gradient norm :     0.0166454 Eh/a0  converged?    E=F G=F D=F
   step length   :     1.5468745 a0

........................................................................
.............................. CYCLE   48 ..............................
........................................................................
   1  -1027.1365318 -0.102714E+04  0.216E-03    0.65       0.0  T
   2  -1027.1365335 -0.167605E-05  0.123E-03    0.65       3.4  T
   3  -1027.1365339 -0.401112E-06  0.684E-04    0.65       6.1  T
   4  -1027.1365337  0.108103E-06  0.526E-04    0.65       7.9  T
   5  -1027.1365342 -0.406008E-06  0.133E-04    0.65      31.3  T
   6  -1027.1365342 -0.125056E-07  0.561E-05    0.65      74.4  T
     SCC iter.                  ...        0 min, 11.590 sec
     gradient                   ...        0 min,  1.703 sec
 * total energy  : -1010.6133231 Eh     change       -0.1493633E-02 Eh
   gradient norm :     0.0162297 Eh/a0  converged?    E=F G=F D=F
   step length   :     3.5981864 a0

........................................................................
.............................. CYCLE   49 ..............................
........................................................................
   1  -1027.1240195 -0.102712E+04  0.168E-03    0.65       0.0  T
   2  -1027.1240208 -0.135023E-05  0.908E-04    0.65       4.6  T
   3  -1027.1240210 -0.150353E-06  0.547E-04    0.65       7.6  T
   4  -1027.1240209  0.432310E-07  0.400E-04    0.65      10.4  T
   5  -1027.1240212 -0.237274E-06  0.113E-04    0.65      36.8  T
   6  -1027.1240212 -0.155464E-07  0.447E-05    0.65      93.3  T
     SCC iter.                  ...        0 min, 11.574 sec
     gradient                   ...        0 min,  1.709 sec
 * total energy  : -1010.6144522 Eh     change       -0.1129049E-02 Eh
   gradient norm :     0.0174289 Eh/a0  converged?    E=F G=F D=F
   step length   :     3.0583084 a0

........................................................................
.............................. CYCLE   50 ..............................
........................................................................
   1  -1027.1265174 -0.102713E+04  0.157E-03    0.65       0.0  T
   2  -1027.1265183 -0.930961E-06  0.837E-04    0.65       5.0  T
   3  -1027.1265185 -0.173724E-06  0.493E-04    0.65       8.5  T
   4  -1027.1265185 -0.547152E-08  0.358E-04    0.65      11.7  T
   5  -1027.1265187 -0.200087E-06  0.108E-04    0.65      38.5  T
   6  -1027.1265187 -0.145926E-07  0.438E-05    0.65      95.2  T
     SCC iter.                  ...        0 min, 11.599 sec
     gradient                   ...        0 min,  1.698 sec
 * total energy  : -1010.6155807 Eh     change       -0.1128492E-02 Eh
   gradient norm :     0.0160565 Eh/a0  converged?    E=F G=F D=F
   step length   :     2.7857928 a0

........................................................................
.............................. CYCLE   51 ..............................
........................................................................
   1  -1027.1287369 -0.102713E+04  0.143E-03    0.65       0.0  T
   2  -1027.1287377 -0.868532E-06  0.800E-04    0.65       5.2  T
   3  -1027.1287379 -0.182652E-06  0.461E-04    0.65       9.1  T
   4  -1027.1287379  0.142568E-07  0.350E-04    0.65      11.9  T
   5  -1027.1287381 -0.196194E-06  0.103E-04    0.65      40.4  T
   6  -1027.1287381 -0.120542E-07  0.399E-05    0.65     104.7  T
     SCC iter.                  ...        0 min, 11.572 sec
[...]
   308   6 C      331   1 H                                       1.0847318
   309   6 C      332   1 H                                       1.0841797
   311   6 C      333   1 H                                       1.0778743
   312   6 C      334   1 H                                       1.0781988
   335   6 C      336   6 C                                       1.4086051
   336   6 C      337   6 C                                       1.4187725
   337   6 C      338   6 C                                       1.3682753
   338   6 C      339   6 C                                       1.4212605
   336   6 C      340   7 N                                       1.3625449
   339   6 C      340   7 N                                       1.3690718
   339   6 C      341   6 C                                       1.4006150
   342   6 C      343   6 C                                       1.3983639
   343   6 C      344   6 C                                       1.3814109
   344   6 C      345   6 C                                       1.3988002
   346   6 C      347   8 O                                       1.2041584
   345   6 C      348   6 C                                       1.3968114
   342   6 C      349   6 C                                       1.3976748
   348   6 C      349   6 C                                       1.3836420
   341   6 C      350   6 C                                       1.3959922
   350   6 C      351   6 C                                       1.4520114
   351   6 C      352   6 C                                       1.3489595
   350   6 C      353   7 N                                       1.3616159
   352   6 C      354   6 C                                       1.4497682
   353   7 N      354   6 C                                       1.3479632
   354   6 C      355   6 C                                       1.4095113
   355   6 C      356   6 C                                       1.4085169
   356   6 C      357   6 C                                       1.4187468
   357   6 C      358   6 C                                       1.3682186
   358   6 C      359   6 C                                       1.4213034
   356   6 C      360   7 N                                       1.3625636
   359   6 C      360   7 N                                       1.3689988
   359   6 C      361   6 C                                       1.4007045
   362   6 C      363   6 C                                       1.3977562
   363   6 C      364   6 C                                       1.3834954
   364   6 C      365   6 C                                       1.3968769
   366   6 C      367   8 O                                       1.2041439
   365   6 C      368   6 C                                       1.3987535
   362   6 C      369   6 C                                       1.3982886
   368   6 C      369   6 C                                       1.3815422
   361   6 C      370   6 C                                       1.3959020
   370   6 C      371   6 C                                       1.4519732
   371   6 C      372   6 C                                       1.3490025
   335   6 C      373   6 C                                       1.4095599
   372   6 C      373   6 C                                       1.4497972
   370   6 C      374   7 N                                       1.3616399
   373   6 C      374   7 N                                       1.3479300
   337   6 C      375   1 H                                       1.0779825
   338   6 C      376   1 H                                       1.0776916
   340   7 N      377   1 H                                       1.0145614
   343   6 C      378   1 H                                       1.0840885
   344   6 C      379   1 H                                       1.0847141
   348   6 C      381   1 H                                       1.0851647
   349   6 C      382   1 H                                       1.0842587
   351   6 C      383   1 H                                       1.0778432
   352   6 C      384   1 H                                       1.0781990
   357   6 C      385   1 H                                       1.0779697
   358   6 C      386   1 H                                       1.0776597
   360   7 N      387   1 H                                       1.0145501
   363   6 C      388   1 H                                       1.0841494
   364   6 C      389   1 H                                       1.0851494
   368   6 C      391   1 H                                       1.0847315
   369   6 C      392   1 H                                       1.0841847
   371   6 C      393   1 H                                       1.0778784
   372   6 C      394   1 H                                       1.0782026
   395   6 C      396   6 C                                       1.4085741
   396   6 C      397   6 C                                       1.4187909
   397   6 C      398   6 C                                       1.3682670
   398   6 C      399   6 C                                       1.4212742
   396   6 C      400   7 N                                       1.3625310
   399   6 C      400   7 N                                       1.3690971
   399   6 C      401   6 C                                       1.4005793
   402   6 C      403   6 C                                       1.3983544
   403   6 C      404   6 C                                       1.3814215
   404   6 C      405   6 C                                       1.3988007
   406   6 C      407   8 O                                       1.2041558
   405   6 C      408   6 C                                       1.3968143
   402   6 C      409   6 C                                       1.3976868
   408   6 C      409   6 C                                       1.3836343
   401   6 C      410   6 C                                       1.3960408
   410   6 C      411   6 C                                       1.4520003
   411   6 C      412   6 C                                       1.3489627
   410   6 C      413   7 N                                       1.3615966
   412   6 C      414   6 C                                       1.4497475
   413   7 N      414   6 C                                       1.3480156
   414   6 C      415   6 C                                       1.4094897
   415   6 C      416   6 C                                       1.4085571
   416   6 C      417   6 C                                       1.4187258
   417   6 C      418   6 C                                       1.3682333
   418   6 C      419   6 C                                       1.4212742
   416   6 C      420   7 N                                       1.3625800
   419   6 C      420   7 N                                       1.3689794
   419   6 C      421   6 C                                       1.4007520
   422   6 C      423   6 C                                       1.3977418
   423   6 C      424   6 C                                       1.3834954
   424   6 C      425   6 C                                       1.3968597
   426   6 C      427   8 O                                       1.2041617
   425   6 C      428   6 C                                       1.3987453
   422   6 C      429   6 C                                       1.3982809
   428   6 C      429   6 C                                       1.3815366
   421   6 C      430   6 C                                       1.3958493
   430   6 C      431   6 C                                       1.4519844
   431   6 C      432   6 C                                       1.3489892
   395   6 C      433   6 C                                       1.4095762
   432   6 C      433   6 C                                       1.4498204
   430   6 C      434   7 N                                       1.3616720
   433   6 C      434   7 N                                       1.3478711
   397   6 C      435   1 H                                       1.0779856
   398   6 C      436   1 H                                       1.0776968
   400   7 N      437   1 H                                       1.0145621
   403   6 C      438   1 H                                       1.0840868
   404   6 C      439   1 H                                       1.0847141
   408   6 C      441   1 H                                       1.0851655
   409   6 C      442   1 H                                       1.0842600
   411   6 C      443   1 H                                       1.0778382
   412   6 C      444   1 H                                       1.0781950
   417   6 C      445   1 H                                       1.0779659
   418   6 C      446   1 H                                       1.0776610
   420   7 N      447   1 H                                       1.0145547
   423   6 C      448   1 H                                       1.0841412
   424   6 C      449   1 H                                       1.0851306
   428   6 C      451   1 H                                       1.0847164
   429   6 C      452   1 H                                       1.0841722
   431   6 C      453   1 H                                       1.0778760
   432   6 C      454   1 H                                       1.0782044
   455   6 C      456   6 C                                       1.4085264
   456   6 C      457   6 C                                       1.4187915
   457   6 C      458   6 C                                       1.3682328
   458   6 C      459   6 C                                       1.4213489
   456   6 C      460   7 N                                       1.3625496
   459   6 C      460   7 N                                       1.3691414
   459   6 C      461   6 C                                       1.4005751
   462   6 C      463   6 C                                       1.3984387
   463   6 C      464   6 C                                       1.3813731
   464   6 C      465   6 C                                       1.3988223
   466   6 C      467   8 O                                       1.2041808
   465   6 C      468   6 C                                       1.3968169
   462   6 C      469   6 C                                       1.3977111
   468   6 C      469   6 C                                       1.3836563
   461   6 C      470   6 C                                       1.3962493
   470   6 C      471   6 C                                       1.4520521
   471   6 C      472   6 C                                       1.3489646
   470   6 C      473   7 N                                       1.3614654
   472   6 C      474   6 C                                       1.4496736
   473   7 N      474   6 C                                       1.3482161
   474   6 C      475   6 C                                       1.4093830
   475   6 C      476   6 C                                       1.4085600
   476   6 C      477   6 C                                       1.4187431
   477   6 C      478   6 C                                       1.3682493
   478   6 C      479   6 C                                       1.4212669
   476   6 C      480   7 N                                       1.3626594
   479   6 C      480   7 N                                       1.3689246
   479   6 C      481   6 C                                       1.4007429
   482   6 C      483   6 C                                       1.3976863
   483   6 C      484   6 C                                       1.3834803
   484   6 C      485   6 C                                       1.3968444
   486   6 C      487   8 O                                       1.2041988
   485   6 C      488   6 C                                       1.3987055
   482   6 C      489   6 C                                       1.3981720
   488   6 C      489   6 C                                       1.3815743
   481   6 C      490   6 C                                       1.3957096
   490   6 C      491   6 C                                       1.4520109
   491   6 C      492   6 C                                       1.3489714
   455   6 C      493   6 C                                       1.4096096
   492   6 C      493   6 C                                       1.4498608
   490   6 C      494   7 N                                       1.3617048
   493   6 C      494   7 N                                       1.3478056
   457   6 C      495   1 H                                       1.0779850
   458   6 C      496   1 H                                       1.0776927
   460   7 N      497   1 H                                       1.0145593
   463   6 C      498   1 H                                       1.0840854
   464   6 C      499   1 H                                       1.0847162
   468   6 C      501   1 H                                       1.0851708
   469   6 C      502   1 H                                       1.0842683
   471   6 C      503   1 H                                       1.0778329
   472   6 C      504   1 H                                       1.0781981
   477   6 C      505   1 H                                       1.0779675
   478   6 C      506   1 H                                       1.0776708
   480   7 N      507   1 H                                       1.0145591
   483   6 C      508   1 H                                       1.0841225
   484   6 C      509   1 H                                       1.0851076
   488   6 C      511   1 H                                       1.0846903
   489   6 C      512   1 H                                       1.0841603
   491   6 C      513   1 H                                       1.0778812
   492   6 C      514   1 H                                       1.0782088
   515   6 C      516   6 C                                       1.4082555
   516   6 C      517   6 C                                       1.4190373
   517   6 C      518   6 C                                       1.3680152
   518   6 C      519   6 C                                       1.4216946
   516   6 C      520   7 N                                       1.3625470
   519   6 C      520   7 N                                       1.3691454
   519   6 C      521   6 C                                       1.3999811
   522   6 C      523   6 C                                       1.3983699
   523   6 C      524   6 C                                       1.3813865
   524   6 C      525   6 C                                       1.3988084
   526   6 C      527   8 O                                       1.2041985
   525   6 C      528   6 C                                       1.3968335
   522   6 C      529   6 C                                       1.3976195
   528   6 C      529   6 C                                       1.3836847
   521   6 C      530   6 C                                       1.3967571
   530   6 C      531   6 C                                       1.4523593
   531   6 C      532   6 C                                       1.3487373
   530   6 C      533   7 N                                       1.3602431
   532   6 C      534   6 C                                       1.4499570
   533   7 N      534   6 C                                       1.3495649
   534   6 C      535   6 C                                       1.4076180
   535   6 C      536   6 C                                       1.4069656
   536   6 C      537   6 C                                       1.4192478
   537   6 C      538   6 C                                       1.3678567
   538   6 C      539   6 C                                       1.4217668
   536   6 C      540   7 N                                       1.3633159
   539   6 C      540   7 N                                       1.3685228
   539   6 C      541   6 C                                       1.4007321
   542   6 C      543   6 C                                       1.3977745
   543   6 C      544   6 C                                       1.3835099
   544   6 C      545   6 C                                       1.3969138
   546   6 C      547   8 O                                       1.2043032
   545   6 C      548   6 C                                       1.3987743
   542   6 C      549   6 C                                       1.3984191
   548   6 C      549   6 C                                       1.3815039
   541   6 C      550   6 C                                       1.3960283
   550   6 C      551   6 C                                       1.4521820
   551   6 C      552   6 C                                       1.3489719
   515   6 C      553   6 C                                       1.4095217
   552   6 C      553   6 C                                       1.4498509
   550   6 C      554   7 N                                       1.3614580
   553   6 C      554   7 N                                       1.3479564
   517   6 C      555   1 H                                       1.0780018
   518   6 C      556   1 H                                       1.0777066
   520   7 N      557   1 H                                       1.0145404
   523   6 C      558   1 H                                       1.0840988
   524   6 C      559   1 H                                       1.0847147
   528   6 C      561   1 H                                       1.0851728
   529   6 C      562   1 H                                       1.0842617
   531   6 C      563   1 H                                       1.0778484
   532   6 C      564   1 H                                       1.0781331
   537   6 C      565   1 H                                       1.0779786
   538   6 C      566   1 H                                       1.0776844
   540   7 N      567   1 H                                       1.0145342 (min)
   543   6 C      568   1 H                                       1.0841946
   544   6 C      569   1 H                                       1.0851410
   548   6 C      571   1 H                                       1.0847270
   549   6 C      572   1 H                                       1.0842489
   551   6 C      573   1 H                                       1.0778885
   552   6 C      574   1 H                                       1.0782193

 * 5 distinct bonds (by element types)

   Z      Z             #   av. dist./Å        max./Å        min./Å
   1 H    6 C         146     1.0813173     1.0853435     1.0776597
   6 C    6 C         302     1.3918505     1.4525421     1.2212291
   1 H    7 N          18     1.0145744     1.0147542     1.0145342
   6 C    7 N          72     1.3603386     1.3693368     1.3478056
   6 C    8 O          18     1.2042439     1.2045036     1.2041439


optimized geometry written to: xtbopt.xyz


           -------------------------------------------------
          | TOTAL ENERGY            -1010.638139876314 Eh   |
          | GRADIENT NORM               0.000906945608 Eh/α |
          | HOMO-LUMO GAP               0.657784136955 eV   |
           -------------------------------------------------

------------------------------------------------------------------------
 * finished run on 2022/07/30 at 08:59:37.489     
------------------------------------------------------------------------
 total:
 * wall-time:     0 d,  0 h, 40 min, 41.423 sec
 *  cpu-time:     0 d,  0 h, 40 min, 33.231 sec
 * ratio c/w:     0.997 speedup
 SCF:
 * wall-time:     0 d,  0 h,  5 min, 55.451 sec
 *  cpu-time:     0 d,  0 h,  5 min, 54.306 sec
 * ratio c/w:     0.997 speedup
 ANC optimizer:
 * wall-time:     0 d,  0 h, 34 min, 45.315 sec
 *  cpu-time:     0 d,  0 h, 34 min, 38.290 sec
 * ratio c/w:     0.997 speedup

