574
 energy: -1010.638139876314 gnorm: 0.000906945608 xtb: 6.5.1 (b24c23e)
C          126.58779346654066       -0.10959620326105        0.04602500153899
C          127.20357833961732       -1.32058451374175       -0.24229942937140
C          126.55790967663930       -2.55268532763608       -0.54391448074225
C          127.52481354227216       -3.49555857284547       -0.75041441943680
C          128.79286587500025       -2.87250261798449       -0.56859927374811
N          128.54820889959817       -1.56093296400048       -0.27718521212053
C          130.06049696056374       -3.45628709250782       -0.67573011899971
C          130.10559875931227       -4.90597149624166       -0.97629954311781
C          130.74633421653351       -5.36692296228858       -2.13093548050675
C          130.78611058603812       -6.71800481881063       -2.41540424982198
C          130.19069300285537       -7.64150980992721       -1.54960982049943
C          130.24962041158435       -9.07850166519897       -1.87361649388099
O          130.78563891357382       -9.52121299539771       -2.85707636915029
C          129.55268153832174       -7.18306121999759       -0.39453668329612
C          129.50842667833717       -5.82916013626933       -0.11309736827945
C          131.27155226662813       -2.77549185749462       -0.52087571775122
C          132.57348262292467       -3.41822671611112       -0.55427050257154
C          133.48612522643182       -2.44175499024419       -0.37288092705973
N          131.41443836029720       -1.44078174851323       -0.30023131826356
C          132.74075919137408       -1.20665165061945       -0.22221682422198
C          133.36674133336336        0.04345482008061       -0.05231904733135
C          132.72364652873156        1.28059976377270        0.13442531877224
C          133.35897077074196        2.54304800500276        0.27542869068880
C          132.38769325059414        3.48421256744861        0.47535940968618
C          131.12834360315068        2.82212036567918        0.47241002899993
N          131.38238824935522        1.49540826755989        0.24851531007765
C          129.86335020813627        3.39647849488974        0.64123796418645
C          129.82292834931215        4.85015608375406        0.91896234059514
C          130.46733604540449        5.37435657078180        2.04436672480590
C          130.42894898582441        6.73072311399264        2.30279964800430
C          129.74978011538369        7.59691042798294        1.43943846227595
C          129.72860883810469        9.04109507949222        1.73442105059097
O          130.27386367838275        9.53734545702087        2.68689908549824
C          129.10655643688537        7.07528022107202        0.31431319436361
C          129.14123910868091        5.71616658213141        0.05876687313172
C          128.65237828441269        2.69843940317660        0.56983473137911
C          127.34674356408418        3.29439719230444        0.80916064505788
C          126.44114399778687        2.31046072035365        0.63947677491756
C          127.19269308027688        1.11211868882142        0.30928219892981
N          128.52150061169027        1.38088986900450        0.28878348202554
H          125.50280862493943       -0.12980336825724        0.06504293250757
H          125.48927429695692       -2.68515320911449       -0.59978132985430
H          127.37832280570750       -4.53029971181217       -1.01442424930555
H          129.27050642709830       -0.86755548911445       -0.11348544051150
H          131.19742721107846       -4.65277251486687       -2.81048807735907
H          131.27625784066973       -7.08249073666818       -3.31179638368798
H          129.75239893505704       -9.73476415655888       -1.12780966425479
H          129.09245702853102       -7.89284241415224        0.28519468354956
H          129.02615497233558       -5.47891090946545        0.79264679643339
H          132.74374821979274       -4.47485976644188       -0.68216641277187
H          134.56047318215218       -2.52377533010192       -0.33419950299602
H          134.42410269064194        2.70127767756996        0.22403777081662
H          132.52782659158851        4.54504753524154        0.60365899322858
H          130.66507256406803        0.78107512391608        0.17870687856472
H          130.98165236242750        4.70463123266914        2.72443993464999
H          130.92122270945745        7.14348305216959        3.17684886135395
H          129.16185526452384        9.64890932848598        0.99727935408942
H          128.58058637670365        7.74043408742053       -0.36283340349061
H          128.65411909402440        5.31685375162305       -0.82364134590896
H          127.17260182569707        4.32235672119977        1.08344113102576
H          125.36740538244521        2.35748390111178        0.73096370219071
C          240.90082306748891        0.04905562794340        0.01328432278735
C          240.28262770511677        1.22778064487213        0.40969190570175
C          240.92552834567178        2.44163562608635        0.78281151542029
C          239.95700036258285        3.34848279074784        1.10852737256857
C          238.69086723003880        2.71403181685774        0.95507040301647
N          238.93800357022087        1.44220677287696        0.52343268376178
C          237.42276937242349        3.26601454810252        1.16915369402860
C          237.37683956451613        4.66301604603517        1.66031192745699
C          236.74202271265312        5.65704023872595        0.90891336771861
C          236.69730248234353        6.95862210143723        1.36945705002459
C          237.28170583014943        7.29650317333340        2.59472599421206
C          237.21466530363315        8.69105217062037        3.06805525715177
O          236.68270959702463        9.58106584493342        2.45532047309267
C          237.91601571925193        6.30460753285397        3.34655005848985
C          237.96559606126297        5.00242332124207        2.88182779055480
C          236.21233305394853        2.59902075642635        0.96012867048031
C          234.90982636709168        3.17199132772647        1.25095274800290
C          233.99855818065134        2.23094589330669        0.93015938509298
N          236.07107975759800        1.32944082691334        0.49245131097580
C          234.74528982652899        1.08226530424514        0.45366256748665
C          234.12051542085291       -0.10454815322179        0.02476570015923
C          234.76275864396720       -1.27615910495396       -0.41410178793997
C          234.12528893498791       -2.45553709049029       -0.88375174196311
C          235.09769785313085       -3.35536996124865       -1.22056483734271
C          236.36072753970871       -2.75630970401040       -0.95479912781228
N          236.10630064061189       -1.49849600070790       -0.47703922639201
C          237.62825764577593       -3.31121223045626       -1.16327916745953
C          237.67499306466240       -4.69883173971234       -1.67790180260923
C          237.09334734570527       -5.74606149956142       -0.95612234866495
C          237.14192708913160       -7.03909087352524       -1.44002468072529
C          237.76843749562778       -7.31568906309162       -2.65979268528083
C          237.80421433230291       -8.70327452344515       -3.15609232553306
O          237.31547994257761       -9.63604534033968       -2.57136511709934
C          238.34803482980894       -6.27042089051202       -3.38318636259788
C          238.30338200827822       -4.97671900148246       -2.89563703889263
C          238.83963494044212       -2.65263007342406       -0.92229028610931
C          240.14998336914152       -3.26600518641653       -1.07749534187922
C          241.05451635937345       -2.32322137355240       -0.74597961309115
C          240.29828730634620       -1.13848888274083       -0.37949893354414
N          238.96792007716908       -1.37718521064545       -0.48809611757547
H          241.98600859128257        0.06756829071064        0.01312036932283
H          241.99344052337753        2.59055703419693        0.78999493915850
H          240.10059859203179        4.37073373040447        1.41880549721145
H          238.21724371335776        0.75968076169767        0.31369422566307
H          236.29857959620256        5.40074890762929       -0.04655767973534
H          236.21073607752098        7.73607933553841        0.79029482874353
H          237.70124754289176        8.86220150720793        4.05202582420780
H          238.36857315344631        6.55705759592825        4.30002732587931
H          238.44499839984519        4.23222675688248        3.47566361096975
H          234.73795194283676        4.15458792535585        1.65925438696609
H          232.92433989943456        2.28111635394155        1.00721642673808
H          233.05774949867819       -2.58546030111907       -0.95896733627481
H          234.95554051303395       -4.34305182317127       -1.62766853484847
H          236.82501571452485       -0.82977930005246       -0.22014916144553
H          236.62098832777565       -5.53884788292061       -0.00247515679771
H          236.69887131316463       -7.85737864048589       -0.88255679386003
H          238.32579277148756       -8.82598521340110       -4.12925121011937
H          238.83271644869555       -6.47521893363044       -4.33226404544781
H          238.74144080293004       -4.16571929570790       -3.46642811557524
H          240.32825393371701       -4.28453629659691       -1.38255830854897
H          242.13072516679412       -2.39464098907038       -0.73248642227443
C          135.99590861836472        0.08895553134674       -0.07920833328292
C          134.77465404486901        0.07075656845295       -0.06847358668120
C          137.34670203419785        0.09763023385202       -0.08608902290814
C          138.56824645198924        0.09401585396268       -0.08759859476732
C          149.45016610479857       -0.00230503484314       -0.03783448109277
C          148.22773910851438        0.00831297804280       -0.04835243017654
C          150.79838534560508       -0.00936642372089       -0.03246506844546
C          152.02095689428560       -0.01691924484475       -0.02426218353414
C          162.89901676491579       -0.01399329050862        0.01579844697524
C          161.67641227891949       -0.00877214501252        0.01543014961830
C          164.24706392858818       -0.00947125963465        0.01507738866038
C          165.46969719348391       -0.01575813960988        0.01432872895589
C          176.34651908397052       -0.00348173864059        0.01332874705288
C          175.12392998818004       -0.00121918857571        0.01464152862564
C          177.69449791955421       -0.00346907704628        0.00981806808128
C          178.91714801571851       -0.00650528224151        0.00965414128629
C          189.79305831983027       -0.00207908336406        0.01327650696759
C          188.57041338978865        0.00099087305687        0.01384333875156
C          191.14101585524966       -0.00190042402326        0.00876013249103
C          192.36362640458205       -0.00603278984956        0.00791090260758
C          203.23920348078377       -0.00859868150046       -0.00177397922506
C          202.01658081826770       -0.00728596624030       -0.00429896952741
C          204.58717778447178       -0.00739057836589       -0.00149508300960
C          205.80975613598534       -0.00967027746135        0.00256567755856
C          216.68715953203409       -0.02694140807148        0.02743829891204
C          215.46463102105784       -0.01760750064691        0.02625054266472
C          218.03536697124639       -0.03414275945231        0.02725933889061
C          219.25789651008031       -0.04542716618050        0.03007223567872
C          230.13904497722845       -0.14689527703681        0.03548080226009
C          228.91782447442614       -0.13737526814206        0.04058930481725
C          231.49046748715691       -0.14248689261535        0.03474234993587
C          232.71163519554705       -0.13107103188544        0.03034330069403
C          139.97567436533629        0.08309176848470       -0.08552543995945
C          140.60976814299175        1.04213813706538       -0.89689520054090
C          139.96748665869899        1.98677651117491       -1.73896138756440
C          140.93745294195685        2.72436635512281       -2.36068106784947
C          142.20115509884329        2.25785435634014       -1.90633104520793
N          141.95248278659710        1.23672449256838       -1.02946261403609
C          143.46635547934110        2.71997878728960       -2.29030860735327
C          143.49555362713423        3.84906330912558       -3.25030107419359
C          144.09671164002975        3.69242613590236       -4.50316366282713
C          144.12351417057937        4.74222483959646       -5.40058515995473
C          143.55487797191202        5.97528213920197       -5.06443399042673
C          143.60051501613870        7.08160580748397       -6.03819806218452
O          144.10343684318627        6.99215520560329       -7.12873166282682
C          142.95610517364446        6.13384989895763       -3.81242051505175
C          142.92418742642323        5.08003264537870       -2.91630599382092
C          144.68602350326694        2.20560108130482       -1.84671463073073
C          145.97851716702186        2.75682481909698       -2.21353914654418
C          146.90627771983236        2.00442741143371       -1.58693501583377
N          144.84985318846557        1.15208353971978       -1.00005397974147
C          146.17910591723285        1.00115484607349       -0.83407331037539
C          146.82335002180182        0.01827087589684       -0.05600095351682
C          146.18792565518152       -0.96814188550269        0.72271076924222
C          146.82956057097616       -1.98006848895427        1.48288606321220
C          145.85934516974518       -2.72640045109612        2.09361505579764
C          144.59632242729177       -2.18390651171415        1.73081773765642
N          144.84584008751526       -1.12916261194168        0.89437133528079
C          143.33176675181548       -2.64218180145870        2.11972702112789
C          143.30547250007950       -3.79080190074776        3.05624476863512
C          142.70018035213042       -4.99346273320369        2.68092558479001
C          142.67687509363421       -6.06822997467346        3.55176148029165
C          143.25470674487906       -5.95991311725002        4.81895359190368
C          143.24153556537959       -7.08925192625599        5.76697376350105
O          143.72957408370183       -7.04431797507726        6.86700631649448
C          143.85809560405846       -4.75564419767506        5.19605461266070
C          143.88600726965700       -3.68457503265748        4.32388794662937
C          142.11161013285465       -2.10589727303244        1.70255936503404
C          140.81929092828395       -2.56898680853628        2.17636071121338
C          139.89151056843724       -1.80926270167128        1.55891905830501
C          140.61832678082243       -0.87826756216331        0.71793655260495
N          141.94846610802193       -1.07388658966649        0.83103877884269
H          138.89957334987434        2.07759570643223       -1.85472738207217
H          140.79180212353492        3.51480429242541       -3.07863680156344
H          142.67083025688220        0.69695370720889       -0.55832631762134
H          144.52782333880322        2.73438630053390       -4.77068272041225
H          144.58301815990291        4.62694539467236       -6.37638549003021
H          143.12704711030480        8.02162575994780       -5.68289963076769
H          142.51651655388920        7.08836492327126       -3.54174382026815
H          142.47140633811824        5.21138148080005       -1.93991557887113
H          146.13292431727527        3.61248252972893       -2.85054345061741
H          147.97980829700944        2.10209129396658       -1.60972724280915
H          147.89712897992308       -2.11648825089741        1.54401431754748
H          146.00402148436220       -3.58313227834198        2.73117064681443
H          144.12812285636284       -0.55729487558380        0.46174503637330
H          142.26220433208027       -5.08428363445086        1.69336525431421
H          142.20999245188412       -7.00006280170284        3.24968299360008
H          142.73843035841443       -8.00184561900810        5.38224479534622
H          144.30019886116452       -4.67902184172442        6.18363785528937
H          144.34207340683599       -2.74817552516585        4.62496427566850
H          140.66489734192544       -3.35718731351112        2.89516559384668
H          138.81819225670625       -1.84864196796008        1.65290946086034
C          153.42527635169512       -0.01657828643510       -0.01937194392941
C          154.05135271933221        0.91293089939356       -0.87273993553331
C          153.40030980390449        1.81406171770200       -1.75418749128446
C          154.36286847043294        2.54838679915025       -2.39167798791220
C          155.62984101658569        2.12276820109445       -1.90830191921117
N          155.39113790820795        1.12604302456821       -1.00068393459255
C          156.88983454860357        2.60179605485724       -2.28911777075267
C          156.90646519556375        3.71130399876451       -3.27163859179279
C          157.53137030076846        3.54619467028609       -4.51169213555804
C          157.54685338623349        4.57948283875117       -5.42840287008588
C          156.94218730030451        5.80385021193312       -5.12516639144101
C          156.97747986284355        6.89295493949515       -6.11882533521255
O          157.50616037092448        6.79746755523282       -7.19648836688189
C          156.31873263329030        5.97065146516195       -3.88636707889629
C          156.29888144965597        4.93354633115689       -2.97069016141420
C          158.11417746473845        2.12103440163855       -1.82154906361973
C          159.40037894898984        2.68694498793777       -2.18750789249757
C          160.33530968691397        1.95812367330045       -1.54376992423720
N          158.28819527305049        1.08506788253387       -0.95521336262978
C          159.61843222864155        0.95610535955260       -0.77964455747952
C          160.27228833228352       -0.00801018024434        0.01396301605450
C          159.64672925019539       -0.98472124020378        0.81302094045639
C          160.29845295450468       -1.97714160862495        1.58973526178420
C          159.33594985217684       -2.71474223663588        2.22333677764167
C          158.06815061996267       -2.18590584827412        1.85819217328117
N          158.30663368382454       -1.14890503737015        0.99679013892567
C          156.80805431484131       -2.63826289968071        2.26961936283083
C          156.79433939110766       -3.76268127118925        3.23519148934365
C          156.18758825306313       -4.97545135211756        2.89649305773352
C          156.17913328832310       -6.02949917199130        3.79259417508807
C          156.77372867708743       -5.88989473852615        5.04887477066671
C          156.77955382780530       -6.99762142425571        6.02236631047522
O          157.28636481492853       -6.92646627604758        7.11236414430875
C          157.37738118780186       -4.67506139972493        5.38987859417448
C          157.39019675578893       -3.62463152722498        4.49261441016955
C          155.58318765286026       -2.11830452078996        1.84744533098963
C          154.29617916552309       -2.56881486990083        2.34642400879087
C          153.36107359296932       -1.83566665038385        1.70773073093557
C          154.07854761976770       -0.93429530008315        0.82767751781640
N          155.40932746443482       -1.11794972545514        0.94038885507969
H          152.33219935431586        1.88104747006641       -1.88338052988568
H          154.20994646633036        3.31034720499070       -3.13829926786187
H          156.11448872626636        0.61749566657660       -0.50322012105654
H          157.98999640801489        2.59432186740327       -4.75429021448536
H          158.02513428497869        4.45757079903982       -6.39431888194734
H          156.47070184431189        7.82563026872000       -5.79136793596302
H          155.85070259068988        6.91851224285362       -3.64121822980464
H          155.82716569867515        5.07176331805637       -2.00425058043928
H          159.54614063939113        3.53529530742850       -2.83619677498646
H          161.40734456714873        2.07195811324726       -1.56099906078375
H          161.36705001238030       -2.10717469628816        1.64656002377121
H          159.48949683720522       -3.55680850215770        2.87810065784451
H          157.58307799970078       -0.59056920201441        0.55629868648096
H          155.73735602233720       -5.09094085427795        1.91704697207692
H          155.71168208897313       -6.96967266171049        3.51851104972033
H          156.27273743807061       -7.91995223809573        5.66692870783020
H          157.83206790315248       -4.57389781889725        6.36950335838896
H          157.84677928035555       -2.67995407588665        4.76572784795852
H          154.15010404305769       -3.33072950992889        3.09472972610597
H          152.28844653333482       -1.87592359390240        1.80971576453821
C          166.87381686424678       -0.01516209868601        0.01194263475419
C          167.49553930662486        0.91307739508735       -0.84596536132873
C          166.84011722197496        1.81258766116953       -1.72582541372187
C          167.79951026539339        2.54583778927150       -2.36932331792516
C          169.06882989243618        2.12112780289082       -1.89136309883168
N          168.83461436573793        1.12596472541435       -0.98081380008954
C          170.32695036918582        2.59977874236474       -2.27850713704821
C          170.33948825317921        3.70768799264071       -3.26288961952977
C          170.95911159045636        3.54033876817120       -4.50529142017590
C          170.97155031544398        4.57232153776407       -5.42348934138614
C          170.36920230369813        5.79762189119468       -5.11937952905161
C          170.40173426779873        6.88542090999874       -6.11461037198690
O          170.92609510195453        6.78790515559238       -7.19420256192978
C          169.75088144978869        5.96657635827626       -3.87832733465082
C          169.73392801963908        4.93070603613114       -2.96116478479748
C          171.55336657409100        2.12044240766360       -1.81487284621882
C          172.83773298541564        2.68703279729766       -2.18606677762142
C          173.77551593685334        1.96043768738296       -1.54395576458122
N          171.73125174346717        1.08601590859154       -0.94751163469778
C          173.06221725722091        0.95861834647936       -0.77625461725408
C          173.71985075877663       -0.00409443953713        0.01584607814572
C          173.09835092344784       -0.98202940044429        0.81667747527705
C          173.75405601142100       -1.97452267869325        1.58989790500352
C          172.79470364809669       -2.71422378567455        2.22590204568491
C          171.52504362004456       -2.18617220658502        1.86632915867539
N          171.75914072994001       -1.14789242079087        1.00530408075216
C          170.26684857815610       -2.63953429700231        2.28265551641597
C          170.25718098010265       -3.76582142751717        3.24606708919633
C          169.64819540318521       -4.97751874894067        2.90743202494303
C          169.64320509895003       -6.03355766965690        3.80118823373317
C          170.24343544408853       -5.89699071602655        5.05513389457192
C          170.25291493276913       -7.00685980009280        6.02619279682477
O          170.76463354904379       -6.93835575197462        7.11406376120304
C          170.84920054112590       -4.68321946541785        5.39613293409476
C          170.85870544967821       -3.63083172060445        4.50109358953797
C          169.04020094126187       -2.11864580486286        1.86717181094171
C          167.75553599669291       -2.56861596645946        2.37253813823315
C          166.81765059180134       -1.83409532612496        1.73955242219661
C          167.53117697742348       -0.93269263997606        0.85625275297678
N          168.86225413435230       -1.11738885004692        0.96173575689357
H          165.77137227914537        1.87930447246293       -1.84988913381142
H          167.64296658204785        3.30648614963669       -3.11653640193010
H          169.56054117947997        0.61836468837950       -0.48613864511683
H          171.41610408414144        2.58779733643570       -4.74834360705761
H          171.44572349695468        4.44875039123366       -6.39121477975400
H          169.89731890383069        7.81910942169283       -5.78636696484633
H          169.28473655126999        6.91517843941408       -3.63246216253901
H          169.26627698512283        5.07061347776252       -1.99299516939971
H          172.98045140674171        3.53432696098366       -2.83680750436733
H          174.84737275290578        2.07533796071449       -1.56489772230356
H          174.82299985685052       -2.10342594010464        1.64259100454344
H          172.95157803473992       -3.55705982390679        2.87887145014733
H          171.03320713146172       -0.58988725588055        0.56830594467686
H          169.19333226526166       -5.09044764810348        1.92982705269667
H          169.17359583028409       -6.97271297937270        3.52732324920687
H          169.74419338461277       -7.92819718480101        5.67088318738691
H          171.30843772569582       -4.58450093354395        6.37388479681301
H          171.31706868650255       -2.68705310408482        4.77427953341646
H          167.61282293431330       -3.33102651556275        3.12098714876021
H          165.74558071186979       -1.87350323469062        1.84737420594087
C          180.32123561225603       -0.00641688163033        0.00745712949971
C          180.94394386848953        0.92080856159617       -0.85082917616295
C          180.28941022047255        1.82065678342135       -1.73104164564516
C          181.24952758086854        2.55263285427051       -2.37490696669472
C          182.51841340545036        2.12681835715176       -1.89679411633357
N          182.28319288020236        1.13231825931499       -0.98575175024598
C          183.77703630065906        2.60379117168232       -2.28420518328508
C          183.79094192828637        3.71131024796593       -3.26905180054133
C          184.40910819589237        3.54256101295512       -4.51195785489251
C          184.42293909878035        4.57451875497132       -5.43019949687734
C          183.82366021547762        5.80116983288189       -5.12551330916265
C          183.85790466502789        6.88906148488673       -6.12059864047151
O          184.38063964065964        6.79036017434706       -7.20087789485345
C          183.20675682794661        5.97147470188454       -3.88393844566358
C          183.18822422572956        4.93560105546536       -2.96683041062756
C          185.00282031972245        2.12350967330626       -1.81990237551539
C          186.28790413662611        2.68820309332341       -2.19140955581695
C          187.22465076141791        1.96159669031947       -1.54779446794601
N          185.17924767227564        1.08989628910428       -0.95127449407138
C          186.50998635557974        0.96155173636352       -0.77903423497776
C          187.16634998361067       -0.00087521254552        0.01446611522447
C          186.54383017973052       -0.97797843594954        0.81550160593371
C          187.19860295182266       -1.97079203729248        1.58908800903784
C          186.23854673272498       -2.71003405598849        2.22456811964644
C          184.96937800546829       -2.18129746346180        1.86435795537002
N          185.20444026511169       -1.14310602835891        1.00350857781053
C          183.71063747765979       -2.63378540761261        2.28004985888857
C          183.69946438794756       -3.76063662634202        3.24274692204553
C          183.08863208478266       -4.97116592447748        2.90329908660570
C          183.08224083291242       -6.02789708669769        3.79623672809177
C          183.68295687508444       -5.89324013267324        5.05013966219305
C          183.69106826650696       -7.00389999599449        6.02028266250870
O          184.20306453571871       -6.93701696041430        7.10810101681463
C          184.29055488110529       -4.68060820492453        5.39198677416854
C          184.30133144005669       -3.62750232081305        4.49783340554427
C          182.48473351711294       -2.11147019655793        1.86425139937490
C          181.19943268935137       -2.55964761281743        2.36958742909830
C          180.26258566773470       -1.82412306239512        1.73624017030285
C          180.97739565676085       -0.92406845050043        0.85257737088248
N          182.30820337083696       -1.11018605841594        0.95853069006855
H          179.22072741931146        1.88835865862031       -1.85505640055379
H          181.09380060894500        3.31320378927075       -3.12236928329733
H          183.00869050470729        0.62432173969903       -0.49085034017489
H          184.86390883154644        2.58907082134981       -4.75539281965552
H          184.89593300747225        4.44989170555951       -6.39836749796148
H          183.35644062893363        7.82404809044233       -5.79149884796621
H          182.74298222107615        6.92112447258085       -3.63764478047734
H          182.72163707633356        5.07641594662905       -1.99828288558745
H          186.43170384719377        3.53434613283881       -2.84341371279700