      -----------------------------------------------------------      
     |                   =====================                   |     
     |                           x T B                           |     
     |                   =====================                   |     
     |                         S. Grimme                         |     
     |          Mulliken Center for Theoretical Chemistry        |     
     |                    University of Bonn                     |     
      -----------------------------------------------------------      

   * xtb version 6.5.1 (b24c23e) compiled by 'conda@728c89f4b128' on 2022-07-12

   xtb is free software: you can redistribute it and/or modify it under
   the terms of the GNU Lesser General Public License as published by
   the Free Software Foundation, either version 3 of the License, or
   (at your option) any later version.
   
   xtb is distributed in the hope that it will be useful,
   but WITHOUT ANY WARRANTY; without even the implied warranty of
   MERCHANTABILITY or FITNESS FOR A PARTICULAR PURPOSE.  See the
   GNU Lesser General Public License for more details.
   
   Cite this work as:
   * C. Bannwarth, E. Caldeweyher, S. Ehlert, A. Hansen, P. Pracht,
     J. Seibert, S. Spicher, S. Grimme, WIREs Comput. Mol. Sci., 2020, 11,
     e01493. DOI: 10.1002/wcms.1493
   
   for GFN2-xTB:
   * C. Bannwarth, S. Ehlert and S. Grimme., J. Chem. Theory Comput., 2019,
     15, 1652-1671. DOI: 10.1021/acs.jctc.8b01176
   for GFN1-xTB:
   * S. Grimme, C. Bannwarth, P. Shushkov, J. Chem. Theory Comput., 2017,
     13, 1989-2009. DOI: 10.1021/acs.jctc.7b00118
   for GFN0-xTB:
   * P. Pracht, E. Caldeweyher, S. Ehlert, S. Grimme, ChemRxiv, 2019, preprint.
     DOI: 10.26434/chemrxiv.8326202.v1
   for GFN-FF:
   * S. Spicher and S. Grimme, Angew. Chem. Int. Ed., 2020, 59, 15665-15673.
     DOI: 10.1002/anie.202004239
   
   for ALPB and GBSA implicit solvation:
   * S. Ehlert, M. Stahn, S. Spicher, S. Grimme, J. Chem. Theory Comput.,
     2021, 17, 4250-4261. DOI: 10.1021/acs.jctc.1c00471
   
   for DFT-D4:
   * E. Caldeweyher, C. Bannwarth and S. Grimme, J. Chem. Phys., 2017,
     147, 034112. DOI: 10.1063/1.4993215
   * E. Caldeweyher, S. Ehlert, A. Hansen, H. Neugebauer, S. Spicher,
     C. Bannwarth and S. Grimme, J. Chem. Phys., 2019, 150, 154122.
     DOI: 10.1063/1.5090222
   * E. Caldeweyher, J.-M. Mewes, S. Ehlert and S. Grimme, Phys. Chem. Chem. Phys.
     2020, 22, 8499-8512. DOI: 10.1039/D0CP00502A
   
   for sTDA-xTB:
   * S. Grimme and C. Bannwarth, J. Chem. Phys., 2016, 145, 054103.
     DOI: 10.1063/1.4959605
   
   in the mass-spec context:
   * V. Asgeirsson, C. Bauer and S. Grimme, Chem. Sci., 2017, 8, 4879.
     DOI: 10.1039/c7sc00601b
   * J. Koopman and S. Grimme, ACS Omega 2019, 4, 12, 15120-15133.
     DOI: 10.1021/acsomega.9b02011
   
   for metadynamics refer to:
   * S. Grimme, J. Chem. Theory Comput., 2019, 155, 2847-2862
     DOI: 10.1021/acs.jctc.9b00143
   
   for SPH calculations refer to:
   * S. Spicher and S. Grimme, J. Chem. Theory Comput., 2021, 17, 1701-1714
     DOI: 10.1021/acs.jctc.0c01306
   
   with help from (in alphabetical order)
   P. Atkinson, C. Bannwarth, F. Bohle, G. Brandenburg, E. Caldeweyher
   M. Checinski, S. Dohm, S. Ehlert, S. Ehrlich, I. Gerasimov, C. Hölzer
   A. Katbashev, J. Koopman, C. Lavigne, S. Lehtola, F. März, M. Müller,
   F. Musil, H. Neugebauer, J. Pisarek, C. Plett, P. Pracht, F. Pultar,
   J. Seibert, P. Shushkov, S. Spicher, M. Stahn, M. Steiner, T. Strunk,
   J. Stückrath, T. Rose, and J. Unsleber
   
 * started run on 2022/07/30 at 08:08:52.898     

           -------------------------------------------------
          |                Calculation Setup                |
           -------------------------------------------------

          program call               : xtb xtbopt.xyz --gfn 1 --vipea
          hostname                   : cx3-15-13.cx3.hpc.ic.ac.uk
          coordinate file            : xtbopt.xyz
          omp threads                :                     1

   ID    Z sym.   atoms
    1   27 Co     1, 65, 153, 216
    2    6 C      2-6, 8-12, 17-21, 23-28, 30-34, 39-44, 66-70, 72-76, 81-85,
                  87-92, 94-98, 103-108, 129-152, 154-158, 160-164, 169-173,
                  175-180, 182-186, 191-196, 217-221, 223-227, 232-236,
                  238-243, 245-249, 254-259
    3    7 N      7, 22, 29, 45, 71, 86, 93, 109, 159, 174, 181, 197, 222,
                  237, 244, 260
    4   16 S      13, 35, 77, 99, 165, 187, 228, 250
    5    8 O      14-16, 36-38, 78-80, 100-102, 166-168, 188-190, 229-231,
                  251-253
    6    1 H      46-64, 110-128, 198-215, 261-278

           -------------------------------------------------
          |                 I P E A - x T B                 |
           -------------------------------------------------

        Reference                      10.1039/c7sc00601b
      * Hamiltonian:
        H0-scaling (s, p, d)           2.150000    2.300000    2.000000
        zeta-weighting                 0.000000
      * Dispersion:
        s8                             2.400000
        a1                             0.630000
        a2                             5.000000
        s9                             0.000000
      * Repulsion:
        kExp                           1.500000
        rExp                           1.000000
      * Coulomb:
        alpha                          1.000000
        third order                    atomic
        anisotropic                    false
      * Halogen bond correction:
        rad-scale                      1.300000
        damping                        0.440000


          ...................................................
          :                      SETUP                      :
          :.................................................:
          :  # basis functions                1228          :
          :  # atomic orbitals                1216          :
          :  # shells                          760          :
          :  # electrons                       990          :
          :  # halogen bonds                     0          :
          :  max. iterations                   250          :
          :  Hamiltonian                  GFN1-xTB          :
          :  restarted?                      false          :
          :  GBSA solvation                  false          :
          :  PC potential                    false          :
          :  electronic temp.          300.0000000     K    :
          :  accuracy                    1.0000000          :
          :  -> integral cutoff          0.2500000E+02      :
          :  -> integral neglect         0.1000000E-07      :
          :  -> SCF convergence          0.1000000E-05 Eh   :
          :  -> wf. convergence          0.2000000E-04 e    :
          :  Broyden damping             0.4000000          :
          ...................................................

 iter      E             dE          RMSdq      gap      omega  full diag
   1   -628.6045492 -0.628605E+03  0.109E+01    0.07       0.0  T
   2   -604.8354200  0.237691E+02  0.100E+01    0.00       1.0  T
   3   -608.8423291 -0.400691E+01  0.731E+00    0.09       1.0  T
   4   -358.9469710  0.249895E+03  0.856E+00    0.04       1.0  T
   5   1101.8279642  0.146077E+04  0.149E+01    0.02       1.0  T
   6   -240.3784810 -0.134221E+04  0.969E+00    0.01       1.0  T
   7   -619.0647366 -0.378686E+03  0.520E+00    0.20       1.0  T
   8   -629.5981030 -0.105334E+02  0.347E+00    0.00       1.0  T
   9   -633.2495239 -0.365142E+01  0.299E+00    0.21       1.0  T
  10   -633.5415507 -0.292027E+00  0.267E+00    0.10       1.0  T
  11   -634.1144299 -0.572879E+00  0.226E+00    0.02       1.0  T
  12   -621.7086914  0.124057E+02  0.422E+00    0.04       1.0  T
  13   -628.7797492 -0.707106E+01  0.284E+00    0.12       1.0  T
  14   -633.7130648 -0.493332E+01  0.184E+00    0.01       1.0  T
  15   -634.4995943 -0.786529E+00  0.138E+00    0.17       1.0  T
  16   -634.6949769 -0.195383E+00  0.132E+00    0.06       1.0  T
  17   -634.5636736  0.131303E+00  0.141E+00    0.16       1.0  T
  18   -634.5055566  0.581171E-01  0.168E+00    0.06       1.0  T
  19   -634.9025577 -0.397001E+00  0.122E+00    0.09       1.0  T
  20   -634.9364570 -0.338993E-01  0.124E+00    0.04       1.0  T
  21   -635.3881751 -0.451718E+00  0.546E-01    0.02       1.0  T
  22   -635.1385630  0.249612E+00  0.814E-01    0.07       1.0  T
  23   -634.5835661  0.554997E+00  0.142E+00    0.00       1.0  T
  24   -635.0376533 -0.454087E+00  0.105E+00    0.06       1.0  T
  25   -635.1189517 -0.812984E-01  0.954E-01    0.00       1.0  T
  26   -635.0577837  0.611680E-01  0.102E+00    0.13       1.0  T
  27   -635.2227747 -0.164991E+00  0.822E-01    0.06       1.0  T
  28   -635.2840040 -0.612293E-01  0.733E-01    0.00       1.0  T
  29   -635.3073313 -0.233272E-01  0.688E-01    0.05       1.0  T
  30   -635.3827695 -0.754382E-01  0.509E-01    0.00       1.0  T
  31   -635.3843836 -0.161416E-02  0.526E-01    0.02       1.0  T
  32   -635.4320820 -0.476984E-01  0.444E-01    0.03       1.0  T
  33   -635.4037406  0.283415E-01  0.429E-01    0.04       1.0  T
  34   -635.5067136 -0.102973E+00  0.140E-01    0.01       1.0  T
  35   -635.4763074  0.304062E-01  0.247E-01    0.03       1.0  T
  36   -635.5000212 -0.237138E-01  0.162E-01    0.00       1.0  T
  37   -635.5097740 -0.975278E-02  0.703E-02    0.01       1.0  T
  38   -635.4997762  0.999787E-02  0.175E-01    0.00       1.0  T
  39   -635.5106945 -0.109183E-01  0.712E-02    0.00       1.0  T
  40   -635.5108039 -0.109434E-03  0.986E-02    0.00       1.0  T
  41   -635.5133008 -0.249687E-02  0.470E-02    0.00       1.0  T
  42   -635.5120176  0.128316E-02  0.713E-02    0.00       1.0  T
  43   -635.5130013 -0.983621E-03  0.577E-02    0.00       1.0  T
  44   -635.5134610 -0.459764E-03  0.409E-02    0.00       1.0  T
  45   -635.5140079 -0.546868E-03  0.184E-02    0.00       1.0  T
  46   -635.5138091  0.198764E-03  0.264E-02    0.00       1.0  T
  47   -635.5139136 -0.104478E-03  0.227E-02    0.00       1.0  T
  48   -635.5140535 -0.139880E-03  0.114E-02    0.00       1.0  T
  49   -635.5141123 -0.587976E-04  0.710E-03    0.00       1.0  T
  50   -635.5141152 -0.291452E-05  0.461E-03    0.00       1.3  T
  51   -635.5141269 -0.117469E-04  0.237E-03    0.00       2.5  T
  52   -635.5141301 -0.313530E-05  0.142E-03    0.00       4.2  T
  53   -635.5141299  0.166837E-06  0.275E-03    0.00       2.2  T
  54   -635.5141326 -0.271721E-05  0.173E-03    0.00       3.5  T
  55   -635.5141264  0.625947E-05  0.406E-03    0.00       1.5  T
  56   -635.5141281 -0.170756E-05  0.357E-03    0.00       1.7  T
  57   -635.5141300 -0.189208E-05  0.291E-03    0.00       2.1  T
  58   -635.5141318 -0.186606E-05  0.206E-03    0.00       2.9  T
  59   -635.5141331 -0.122042E-05  0.123E-03    0.00       4.9  T
  60   -635.5141334 -0.381387E-06  0.773E-04    0.00       7.8  T
  61   -635.5141337 -0.213834E-06  0.288E-04    0.00      20.8  T
  62   -635.5141337 -0.216554E-07  0.140E-04    0.00      42.8  T
  63   -635.5141337 -0.787952E-08  0.501E-05    0.00     119.8  T

   *** convergence criteria satisfied after 63 iterations ***

         #    Occupation            Energy/Eh            Energy/eV
      -------------------------------------------------------------
         1        2.0000           -1.1166449             -30.3855
       ...           ...                  ...                  ...
       489        1.9998           -0.3700505             -10.0696
       490        1.9998           -0.3700272             -10.0690
       491        1.9998           -0.3700152             -10.0686
       492        1.9998           -0.3699077             -10.0657
       493        1.9998           -0.3698209             -10.0633
       494        1.0249           -0.3612046              -9.8289
       495        1.0061           -0.3611690              -9.8279 (HOMO)
       496        0.9888           -0.3611362              -9.8270 (LUMO)
       497        0.9818           -0.3611229              -9.8267
       498                         -0.3256128              -8.8604
       499                         -0.3183591              -8.6630
       500                         -0.3143103              -8.5528
       ...                                ...                  ...
      1216                        512.5026084           13945.9058
      -------------------------------------------------------------
                  HL-Gap            0.0000328 Eh            0.0009 eV
             Fermi-level           -0.3611574 Eh           -9.8276 eV

 SCC (total)                   0 d,  0 h,  1 min, 19.230 sec
 SCC setup                      ...        0 min,  0.018 sec (  0.023%)
 Dispersion                     ...        0 min,  0.020 sec (  0.025%)
 classical contributions        ...        0 min,  0.006 sec (  0.007%)
 integral evaluation            ...        0 min,  1.410 sec (  1.780%)
 iterations                     ...        1 min, 14.510 sec ( 94.042%)
 molecular gradient             ...        0 min,  2.996 sec (  3.782%)
 printout                       ...        0 min,  0.270 sec (  0.341%)

         :::::::::::::::::::::::::::::::::::::::::::::::::::::
         ::                     SUMMARY                     ::
         :::::::::::::::::::::::::::::::::::::::::::::::::::::
         :: total energy            -624.366374411236 Eh    ::
         :: gradient norm              0.119823907056 Eh/a0 ::
         :: HOMO-LUMO gap              0.000893594737 eV    ::
         ::.................................................::
         :: SCC energy              -635.514133687046 Eh    ::
         :: -> electrostatic           0.573384610506 Eh    ::
         :: repulsion energy          11.400934627174 Eh    ::
         :: dispersion energy         -0.253175351364 Eh    ::
         :: halogen bond corr.         0.000000000000 Eh    ::
         :: add. restraining           0.000000000000 Eh    ::
         :: total charge               0.000000000001 e     ::
         :::::::::::::::::::::::::::::::::::::::::::::::::::::

           ------------------------------------------------- 
          |        vertical delta SCC IP calculation        |
           ------------------------------------------------- 
   1   -635.1085098 -0.635109E+03  0.265E-01    0.00       0.0  T
   2   -634.9457099  0.162800E+00  0.710E-01    0.00       1.0  T
   3   -634.1428113  0.802899E+00  0.147E+00    0.22       1.0  T
   4   -634.7958822 -0.653071E+00  0.820E-01    0.12       1.0  T
   5   -634.8733592 -0.774769E-01  0.736E-01    0.00       1.0  T
   6   -635.0222270 -0.148868E+00  0.480E-01    0.03       1.0  T
   7   -634.9926554  0.295717E-01  0.534E-01    0.01       1.0  T
   8   -635.1093012 -0.116646E+00  0.185E-01    0.02       1.0  T
   9   -635.1232011 -0.138999E-01  0.813E-02    0.01       1.0  T
  10   -635.1194917  0.370937E-02  0.126E-01    0.01       1.0  T
  11   -635.1185214  0.970267E-03  0.126E-01    0.01       1.0  T
  12   -635.1205444 -0.202294E-02  0.110E-01    0.01       1.0  T
  13   -635.1233045 -0.276012E-02  0.797E-02    0.01       1.0  T
  14   -635.1262513 -0.294677E-02  0.212E-02    0.00       1.0  T
  15   -635.1264503 -0.199012E-03  0.494E-03    0.00       1.2  T
  16   -635.1264266  0.236823E-04  0.839E-03    0.00       1.0  T
  17   -635.1264579 -0.313524E-04  0.292E-03    0.00       2.1  T
  18   -635.1264607 -0.279839E-05  0.175E-03    0.00       3.4  T
  19   -635.1264617 -0.100627E-05  0.108E-03    0.00       5.5  T
  20   -635.1264621 -0.386066E-06  0.643E-04    0.00       9.3  T
  21   -635.1264623 -0.185871E-06  0.207E-04    0.00      29.0  T
  22   -635.1264623  0.183866E-08  0.215E-04    0.00      27.9  T
  23   -635.1264623 -0.227747E-07  0.134E-05    0.00     447.9  T
  24   -635.1264623 -0.356977E-10  0.114E-05    0.00     528.1  T
     SCC iter.                  ...        0 min, 28.337 sec
     gradient                   ...        0 min,  2.981 sec
------------------------------------------------------------------------
empirical IP shift (eV):    4.8455
delta SCC IP (eV):    5.7036
------------------------------------------------------------------------
           ------------------------------------------------- 
          |        vertical delta SCC EA calculation        |
           ------------------------------------------------- 
   1   -635.7850647 -0.635785E+03  0.513E-01    0.00       0.0  T
   2   -635.6013511  0.183714E+00  0.746E-01    0.01       1.0  T
   3   -634.7135899  0.887761E+00  0.157E+00    0.08       1.0  T
   4   -635.5627950 -0.849205E+00  0.809E-01    0.09       1.0  T
   5   -635.6320580 -0.692630E-01  0.687E-01    0.09       1.0  T
   6   -635.7117731 -0.797151E-01  0.559E-01    0.01       1.0  T
   7   -635.7131958 -0.142270E-02  0.545E-01    0.04       1.0  T
   8   -635.6566603  0.565355E-01  0.652E-01    0.01       1.0  T
   9   -635.8034943 -0.146834E+00  0.314E-01    0.03       1.0  T
  10   -635.8262262 -0.227319E-01  0.224E-01    0.00       1.0  T
  11   -635.8350043 -0.877810E-02  0.175E-01    0.01       1.0  T
  12   -635.8391355 -0.413118E-02  0.149E-01    0.00       1.0  T
  13   -635.8440552 -0.491976E-02  0.107E-01    0.00       1.0  T
  14   -635.8488442 -0.478900E-02  0.333E-02    0.00       1.0  T
  15   -635.8491832 -0.338993E-03  0.191E-02    0.00       1.0  T
  16   -635.8493375 -0.154286E-03  0.541E-03    0.00       1.1  T
  17   -635.8493443 -0.678537E-05  0.375E-03    0.00       1.6  T
  18   -635.8493369  0.734060E-05  0.546E-03    0.00       1.1  T
  19   -635.8493504 -0.134522E-04  0.819E-04    0.00       7.3  T
  20   -635.8493504 -0.489915E-07  0.741E-04    0.00       8.1  T
  21   -635.8493507 -0.237780E-06  0.174E-04    0.00      34.4  T
  22   -635.8493507 -0.731120E-08  0.120E-04    0.00      50.1  T
     SCC iter.                  ...        0 min, 25.679 sec
     gradient                   ...        0 min,  2.988 sec
------------------------------------------------------------------------
empirical EA shift (eV):    4.8455
delta SCC EA (eV):    4.2762
------------------------------------------------------------------------
           -------------------------------------------------
          |                Property Printout                |
           -------------------------------------------------

    * Orbital Energies and Occupations

         #    Occupation            Energy/Eh            Energy/eV
      -------------------------------------------------------------
         1        2.0000           -1.0893647             -29.6431
       ...           ...                  ...                  ...
       484        2.0000           -0.3206049              -8.7241
       485        2.0000           -0.3205625              -8.7229
       486        2.0000           -0.3204177              -8.7190
       487        2.0000           -0.3203939              -8.7184
       488        1.9999           -0.3203615              -8.7175
       489        1.9999           -0.3201613              -8.7120
       490        1.9999           -0.3201316              -8.7112
       491        1.9999           -0.3201175              -8.7108
       492        1.9999           -0.3200607              -8.7093
       493        1.9999           -0.3200463              -8.7089
       494        1.2658           -0.3107245              -8.4552
       495        1.2557           -0.3107025              -8.4546
       496        1.2452           -0.3106797              -8.4540 (HOMO)
       497        1.2340           -0.3106554              -8.4534 (LUMO)
       498                         -0.2851648              -7.7597
       499                         -0.2782318              -7.5711
       500                         -0.2747277              -7.4757
       501                         -0.2713532              -7.3839
       502                         -0.2700123              -7.3474
       503                         -0.2698196              -7.3422
       504                         -0.2688952              -7.3170
       505                         -0.2687492              -7.3130
       506                         -0.2512437              -6.8367
       507                         -0.2443455              -6.6490
       ...                                ...                  ...
      1216                        512.5418348           13946.9732
      -------------------------------------------------------------
                  HL-Gap            0.0000243 Eh            0.0007 eV
             Fermi-level           -0.3101683 Eh           -8.4401 eV

  Mulliken/CM5 charges         n(s)   n(p)   n(d)
     1Co    0.32109  0.73174   0.325  0.983  7.371
     2C    -0.01986 -0.06107   1.086  2.934  0.000
     3C     0.05583  0.11626   1.111  2.834  0.000
     4C    -0.03862 -0.08510   1.085  2.954  0.000
     5C    -0.03757 -0.08374   1.078  2.960  0.000
     6C     0.05786  0.12182   1.106  2.836  0.000
     7N    -0.21479 -0.47651   1.317  3.898  0.000
     8C     0.00781  0.01327   1.083  2.909  0.000
     9C     0.01582  0.00717   1.093  2.891  0.000
    10C    -0.01705 -0.07019   1.081  2.936  0.000
    11C    -0.01158 -0.06221   1.096  2.916  0.000
    12C     0.03129  0.04025   1.151  2.817  0.000
    13S     0.45071  0.53774   1.583  2.657  1.309
    14O    -0.28254 -0.33316   1.699  4.584  0.000
    15O    -0.29266 -0.48741   1.691  4.601  0.000
    16O    -0.27952 -0.32973   1.701  4.578  0.000
    17C    -0.01089 -0.06151   1.096  2.915  0.000
    18C    -0.01648 -0.06955   1.082  2.935  0.000
    19C     0.05721  0.12054   1.104  2.839  0.000
    20C    -0.03626 -0.08237   1.077  2.959  0.000
    21C    -0.03667 -0.08224   1.083  2.954  0.000
    22N    -0.21306 -0.47446   1.318  3.895  0.000
    23C     0.06121  0.12621   1.116  2.823  0.000
    24C     0.01877  0.02586   1.079  2.902  0.000
    25C     0.06124  0.12633   1.116  2.823  0.000
    26C    -0.03687 -0.08244   1.082  2.954  0.000
    27C    -0.03654 -0.08270   1.077  2.960  0.000
    28C     0.05700  0.12021   1.104  2.839  0.000
    29N    -0.21306 -0.47441   1.318  3.895  0.000
    30C     0.00781  0.01327   1.083  2.909  0.000
    31C     0.01579  0.00714   1.093  2.891  0.000
    32C    -0.01708 -0.07019   1.082  2.935  0.000
    33C    -0.01141 -0.06203   1.096  2.915  0.000
    34C     0.03125  0.04020   1.151  2.818  0.000
    35S     0.45055  0.53757   1.583  2.657  1.309
    36O    -0.28244 -0.33314   1.699  4.584  0.000
    37O    -0.29184 -0.48658   1.691  4.601  0.000
    38O    -0.28061 -0.33076   1.702  4.579  0.000
    39C    -0.01113 -0.06176   1.096  2.916  0.000
    40C    -0.01645 -0.06956   1.082  2.935  0.000
    41C     0.05808  0.12215   1.106  2.836  0.000
    42C    -0.03724 -0.08339   1.077  2.960  0.000
    43C    -0.03839 -0.08488   1.085  2.954  0.000
    44C     0.05585  0.11618   1.111  2.833  0.000
    45N    -0.21476 -0.47649   1.317  3.898  0.000
    46H     0.02792  0.08681   0.972  0.000  0.000
    47H     0.02985  0.08648   0.970  0.000  0.000
    48H     0.02309  0.08184   0.977  0.000  0.000
    49H     0.02963  0.08773   0.970  0.000  0.000
    50H     0.04240  0.10327   0.958  0.000  0.000
    51H     0.22690  0.40512   0.773  0.000  0.000
    52H     0.04309  0.10407   0.957  0.000  0.000
    53H     0.03054  0.08862   0.969  0.000  0.000
    54H     0.02382  0.08255   0.976  0.000  0.000
    55H     0.02669  0.08470   0.973  0.000  0.000
    56H     0.02652  0.08451   0.973  0.000  0.000
    57H     0.02414  0.08289   0.976  0.000  0.000
    58H     0.02970  0.08778   0.970  0.000  0.000
    59H     0.04207  0.10302   0.958  0.000  0.000
    60H     0.22751  0.40576   0.772  0.000  0.000
    61H     0.04335  0.10423   0.957  0.000  0.000
    62H     0.03039  0.08852   0.970  0.000  0.000
    63H     0.02273  0.08148   0.977  0.000  0.000
    64H     0.03001  0.08663   0.970  0.000  0.000
    65Co    0.32232  0.73290   0.325  0.984  7.369
    66C    -0.01982 -0.06105   1.086  2.934  0.000
    67C     0.05594  0.11633   1.111  2.833  0.000
    68C    -0.03848 -0.08496   1.085  2.954  0.000
    69C    -0.03743 -0.08360   1.078  2.960  0.000
    70C     0.05800  0.12192   1.106  2.836  0.000
    71N    -0.21487 -0.47625   1.317  3.898  0.000
    72C     0.00786  0.01331   1.083  2.909  0.000
    73C     0.01582  0.00717   1.093  2.891  0.000
    74C    -0.01706 -0.07020   1.081  2.936  0.000
    75C    -0.01152 -0.06216   1.096  2.916  0.000
    76C     0.03134  0.04030   1.151  2.817  0.000
    77S     0.45075  0.53777   1.583  2.657  1.309
    78O    -0.28229 -0.33283   1.699  4.583  0.000
    79O    -0.29276 -0.48751   1.691  4.602  0.000
    80O    -0.27976 -0.33001   1.701  4.579  0.000
    81C    -0.01084 -0.06146   1.096  2.915  0.000
    82C    -0.01644 -0.06950   1.082  2.935  0.000
    83C     0.05735  0.12069   1.104  2.839  0.000
    84C    -0.03618 -0.08230   1.077  2.959  0.000
    85C    -0.03649 -0.08207   1.083  2.954  0.000
    86N    -0.21308 -0.47459   1.318  3.895  0.000
    87C     0.06119  0.12606   1.116  2.823  0.000
    88C     0.01901  0.02609   1.079  2.902  0.000
    89C     0.06126  0.12623   1.116  2.823  0.000
    90C    -0.03665 -0.08223   1.083  2.954  0.000
    91C    -0.03644 -0.08258   1.077  2.959  0.000
    92C     0.05720  0.12045   1.104  2.839  0.000
    93N    -0.21315 -0.47415   1.318  3.895  0.000
    94C     0.00787  0.01333   1.083  2.909  0.000
    95C     0.01578  0.00713   1.093  2.891  0.000
    96C    -0.01706 -0.07017   1.082  2.935  0.000
    97C    -0.01139 -0.06201   1.096  2.915  0.000
    98C     0.03127  0.04022   1.151  2.817  0.000
    99S     0.45054  0.53756   1.583  2.657  1.309
   100O    -0.28249 -0.33321   1.699  4.584  0.000
   101O    -0.29177 -0.48651   1.691  4.601  0.000
   102O    -0.28051 -0.33065   1.702  4.579  0.000
   103C    -0.01110 -0.06173   1.096  2.916  0.000
   104C    -0.01645 -0.06955   1.081  2.935  0.000
   105C     0.05812  0.12211   1.106  2.836  0.000
   106C    -0.03715 -0.08330   1.077  2.960  0.000
   107C    -0.03834 -0.08482   1.085  2.953  0.000
   108C     0.05593  0.11626   1.111  2.833  0.000
   109N    -0.21475 -0.47661   1.317  3.898  0.000
   110H     0.02803  0.08693   0.972  0.000  0.000
   111H     0.02993  0.08656   0.970  0.000  0.000
   112H     0.02321  0.08198   0.977  0.000  0.000
   113H     0.02966  0.08775   0.970  0.000  0.000
   114H     0.04237  0.10324   0.958  0.000  0.000
   115H     0.22690  0.40510   0.773  0.000  0.000
   116H     0.04327  0.10424   0.957  0.000  0.000
   117H     0.03063  0.08871   0.969  0.000  0.000
   118H     0.02394  0.08268   0.976  0.000  0.000
   119H     0.02691  0.08492   0.973  0.000  0.000
   120H     0.02671  0.08471   0.973  0.000  0.000
   121H     0.02427  0.08302   0.976  0.000  0.000
   122H     0.02968  0.08777   0.970  0.000  0.000
   123H     0.04206  0.10303   0.958  0.000  0.000
   124H     0.22753  0.40581   0.772  0.000  0.000
   125H     0.04349  0.10435   0.957  0.000  0.000
   126H     0.03054  0.08865   0.969  0.000  0.000
   127H     0.02283  0.08158   0.977  0.000  0.000
   128H     0.03009  0.08671   0.970  0.000  0.000
   129C    -0.01295 -0.01446   1.094  2.919  0.000
   130C    -0.01797 -0.01863   1.064  2.954  0.000
   131C    -0.01129 -0.01137   1.078  2.934  0.000
   132C    -0.01261 -0.01261   1.076  2.937  0.000
   133C    -0.01271 -0.01272   1.076  2.937  0.000
   134C    -0.01093 -0.01100   1.078  2.933  0.000
   135C    -0.01780 -0.01844   1.064  2.954  0.000
   136C    -0.01239 -0.01386   1.095  2.918  0.000
   137C    -0.01253 -0.01401   1.094  2.918  0.000
   138C    -0.01740 -0.01804   1.064  2.953  0.000
   139C    -0.01081 -0.01088   1.077  2.933  0.000
   140C    -0.01226 -0.01227   1.076  2.937  0.000
   141C    -0.01230 -0.01231   1.076  2.937  0.000
   142C    -0.01087 -0.01095   1.077  2.933  0.000
   143C    -0.01755 -0.01818   1.064  2.953  0.000
   144C    -0.01261 -0.01409   1.094  2.918  0.000
   145C    -0.01211 -0.01357   1.095  2.917  0.000
   146C    -0.01734 -0.01797   1.064  2.953  0.000
   147C    -0.01042 -0.01049   1.078  2.933  0.000
   148C    -0.01221 -0.01222   1.076  2.937  0.000
   149C    -0.01211 -0.01212   1.076  2.936  0.000
   150C    -0.01090 -0.01098   1.078  2.933  0.000
   151C    -0.01761 -0.01826   1.064  2.953  0.000
   152C    -0.01278 -0.01430   1.094  2.918  0.000
   153Co    0.32813  0.73956   0.322  0.979  7.370
   154C     0.01902  0.02616   1.080  2.901  0.000
   155C     0.06131  0.12649   1.116  2.823  0.000
   156C    -0.03696 -0.08252   1.083  2.954  0.000
   157C    -0.03619 -0.08231   1.077  2.959  0.000
   158C     0.05707  0.12044   1.103  2.840  0.000
   159N    -0.21234 -0.47446   1.317  3.895  0.000
   160C     0.01028  0.01574   1.084  2.905  0.000
   161C     0.01585  0.00723   1.092  2.892  0.000
   162C    -0.01631 -0.06941   1.081  2.935  0.000
   163C    -0.01077 -0.06138   1.096  2.915  0.000
   164C     0.03155  0.04049   1.152  2.817  0.000
   165S     0.45086  0.53798   1.582  2.657  1.310
   166O    -0.28266 -0.33343   1.698  4.584  0.000
   167O    -0.29165 -0.48641   1.691  4.601  0.000
   168O    -0.27884 -0.32901   1.702  4.577  0.000
   169C    -0.01118 -0.06180   1.095  2.916  0.000
   170C    -0.01655 -0.06962   1.082  2.935  0.000
   171C     0.05722  0.12048   1.104  2.839  0.000
   172C    -0.03568 -0.08183   1.078  2.958  0.000
   173C    -0.03657 -0.08214   1.083  2.954  0.000
   174N    -0.21231 -0.47397   1.317  3.896  0.000
   175C     0.06174  0.12705   1.116  2.822  0.000
   176C     0.01915  0.02628   1.080  2.901  0.000
   177C     0.06167  0.12695   1.116  2.822  0.000
   178C    -0.03663 -0.08220   1.083  2.954  0.000
   179C    -0.03575 -0.08190   1.077  2.958  0.000
   180C     0.05715  0.12042   1.103  2.839  0.000
   181N    -0.21225 -0.47441   1.317  3.895  0.000
   182C     0.01025  0.01571   1.084  2.905  0.000
   183C     0.01587  0.00725   1.092  2.892  0.000
   184C    -0.01632 -0.06941   1.081  2.935  0.000
   185C    -0.01078 -0.06140   1.096  2.915  0.000
   186C     0.03152  0.04047   1.152  2.817  0.000
   187S     0.45084  0.53795   1.582  2.657  1.310
   188O    -0.28273 -0.33349   1.698  4.584  0.000
   189O    -0.29176 -0.48652   1.691  4.601  0.000
   190O    -0.27881 -0.32899   1.702  4.577  0.000
   191C    -0.01120 -0.06183   1.095  2.916  0.000
   192C    -0.01653 -0.06961   1.081  2.935  0.000
   193C     0.05704  0.12037   1.103  2.840  0.000
   194C    -0.03620 -0.08234   1.078  2.959  0.000
   195C    -0.03699 -0.08255   1.083  2.954  0.000
   196C     0.06138  0.12661   1.116  2.823  0.000
   197N    -0.21237 -0.47418   1.317  3.896  0.000
   198H     0.02655  0.08451   0.973  0.000  0.000
   199H     0.02447  0.08316   0.976  0.000  0.000
   200H     0.03072  0.08885   0.969  0.000  0.000
   201H     0.04313  0.10415   0.957  0.000  0.000
   202H     0.22748  0.40575   0.773  0.000  0.000
   203H     0.04337  0.10420   0.957  0.000  0.000
   204H     0.03028  0.08837   0.970  0.000  0.000
   205H     0.02415  0.08289   0.976  0.000  0.000
   206H     0.02703  0.08500   0.973  0.000  0.000
   207H     0.02699  0.08496   0.973  0.000  0.000
   208H     0.02412  0.08285   0.976  0.000  0.000
   209H     0.03066  0.08878   0.969  0.000  0.000
   210H     0.04310  0.10412   0.957  0.000  0.000
   211H     0.22740  0.40567   0.773  0.000  0.000
   212H     0.04333  0.10417   0.957  0.000  0.000
   213H     0.03035  0.08846   0.970  0.000  0.000
   214H     0.02430  0.08300   0.976  0.000  0.000
   215H     0.02641  0.08437   0.974  0.000  0.000
   216Co    0.32927  0.74141   0.322  0.980  7.369
   217C     0.01902  0.02615   1.080  2.901  0.000
   218C     0.06171  0.12698   1.116  2.822  0.000
   219C    -0.03669 -0.08225   1.083  2.954  0.000
   220C    -0.03589 -0.08204   1.078  2.958  0.000
   221C     0.05714  0.12037   1.103  2.839  0.000
   222N    -0.21232 -0.47415   1.317  3.896  0.000
   223C     0.01027  0.01573   1.084  2.905  0.000
   224C     0.01581  0.00719   1.092  2.892  0.000
   225C    -0.01638 -0.06945   1.081  2.935  0.000
   226C    -0.01085 -0.06147   1.096  2.915  0.000
   227C     0.03155  0.04049   1.152  2.817  0.000
   228S     0.45085  0.53798   1.582  2.657  1.310
   229O    -0.28246 -0.33323   1.698  4.584  0.000
   230O    -0.29149 -0.48625   1.691  4.600  0.000
   231O    -0.27910 -0.32928   1.702  4.577  0.000
   232C    -0.01107 -0.06170   1.095  2.916  0.000
   233C    -0.01649 -0.06959   1.081  2.935  0.000
   234C     0.05727  0.12065   1.103  2.839  0.000
   235C    -0.03582 -0.08195   1.078  2.958  0.000
   236C    -0.03665 -0.08221   1.083  2.954  0.000
   237N    -0.21232 -0.47466   1.317  3.895  0.000
   238C     0.06135  0.12647   1.116  2.823  0.000
   239C     0.01932  0.02648   1.080  2.901  0.000
   240C     0.06138  0.12646   1.116  2.823  0.000
   241C    -0.03659 -0.08216   1.083  2.954  0.000
   242C    -0.03578 -0.08192   1.078  2.958  0.000
   243C     0.05737  0.12076   1.104  2.839  0.000
   244N    -0.21229 -0.47428   1.317  3.896  0.000
   245C     0.01026  0.01572   1.084  2.905  0.000
   246C     0.01581  0.00720   1.092  2.892  0.000
   247C    -0.01640 -0.06946   1.081  2.935  0.000
   248C    -0.01086 -0.06148   1.096  2.915  0.000
   249C     0.03156  0.04051   1.152  2.817  0.000
   250S     0.45085  0.53797   1.582  2.657  1.310
   251O    -0.28244 -0.33317   1.698  4.584  0.000
   252O    -0.29154 -0.48629   1.691  4.601  0.000
   253O    -0.27932 -0.32951   1.702  4.578  0.000
   254C    -0.01105 -0.06168   1.095  2.916  0.000
   255C    -0.01645 -0.06957   1.081  2.935  0.000
   256C     0.05705  0.12026   1.103  2.840  0.000
   257C    -0.03595 -0.08210   1.078  2.958  0.000
   258C    -0.03677 -0.08233   1.082  2.954  0.000
   259C     0.06167  0.12700   1.116  2.822  0.000
   260N    -0.21237 -0.47446   1.317  3.895  0.000
   261H     0.02691  0.08489   0.973  0.000  0.000
   262H     0.02475  0.08349   0.975  0.000  0.000
   263H     0.03051  0.08864   0.969  0.000  0.000
   264H     0.04294  0.10397   0.957  0.000  0.000
   265H     0.22767  0.40593   0.772  0.000  0.000
   266H     0.04364  0.10448   0.956  0.000  0.000
   267H     0.03050  0.08860   0.970  0.000  0.000
   268H     0.02402  0.08271   0.976  0.000  0.000
   269H     0.02684  0.08480   0.973  0.000  0.000
   270H     0.02672  0.08468   0.973  0.000  0.000
   271H     0.02395  0.08265   0.976  0.000  0.000
   272H     0.03066  0.08880   0.969  0.000  0.000
   273H     0.04300  0.10400   0.957  0.000  0.000
   274H     0.22767  0.40591   0.772  0.000  0.000
   275H     0.04359  0.10444   0.956  0.000  0.000
   276H     0.03039  0.08850   0.970  0.000  0.000
   277H     0.02474  0.08348   0.975  0.000  0.000
   278H     0.02694  0.08491   0.973  0.000  0.000

Wiberg/Mayer (AO) data.
largest (>0.10) Wiberg bond orders for each atom

 ---------------------------------------------------------------------------
     #   Z sym  total        # sym  WBO       # sym  WBO       # sym  WBO
 ---------------------------------------------------------------------------
     1  27 Co   3.678 --     7 N    0.714    45 N    0.714    29 N    0.710
                            22 N    0.710
     2   6 C    3.840 --    44 C    1.394     3 C    1.392    46 H    0.996
     3   6 C    3.954 --     2 C    1.392     7 N    1.244     4 C    1.198
     4   6 C    3.855 --     5 C    1.644     3 C    1.198    47 H    0.994
     5   6 C    3.837 --     4 C    1.644     6 C    1.203    48 H    0.999
     6   6 C    3.933 --     8 C    1.362     7 N    1.249     5 C    1.203
     7   7 N    2.991 --     6 C    1.249     3 C    1.244     1 Co   0.714
     8   6 C    3.846 --    19 C    1.367     6 C    1.362     9 C    1.055
     9   6 C    3.895 --    18 C    1.422    10 C    1.421     8 C    1.055
    10   6 C    3.870 --    11 C    1.454     9 C    1.421    49 H    0.989
    11   6 C    3.914 --    10 C    1.454    12 C    1.418    50 H    0.985
    12   6 C    3.938 --    17 C    1.419    11 C    1.418    13 S    0.891
    13  16 S    5.802 --    16 O    1.897    14 O    1.890    15 O    1.079
                            12 C    0.891
    14   8 O    2.222 --    13 S    1.890    16 O    0.134
    15   8 O    2.282 --    13 S    1.079    51 H    0.938    16 O    0.101
    16   8 O    2.235 --    13 S    1.897    14 O    0.134    15 O    0.101
    17   6 C    3.915 --    18 C    1.454    12 C    1.419    52 H    0.985
    18   6 C    3.869 --    17 C    1.454     9 C    1.422    53 H    0.988
    19   6 C    3.924 --     8 C    1.367    22 N    1.239    20 C    1.209
    20   6 C    3.832 --    21 C    1.632    19 C    1.209    54 H    0.998
    21   6 C    3.850 --    20 C    1.632    23 C    1.219    55 H    0.998
    22   7 N    2.997 --    23 C    1.265    19 C    1.239     1 Co   0.710
    23   6 C    3.931 --    24 C    1.305    22 N    1.265    21 C    1.219
    24   6 C    3.871 --    23 C    1.305    25 C    1.304   129 C    1.211
    25   6 C    3.931 --    24 C    1.304    29 N    1.266    26 C    1.219
    26   6 C    3.848 --    27 C    1.632    25 C    1.219    56 H    0.998
    27   6 C    3.832 --    26 C    1.632    28 C    1.209    57 H    0.998
    28   6 C    3.924 --    30 C    1.368    29 N    1.237    27 C    1.209
    29   7 N    2.998 --    25 C    1.266    28 C    1.237     1 Co   0.710
    30   6 C    3.846 --    28 C    1.368    41 C    1.360    31 C    1.055
    31   6 C    3.895 --    32 C    1.422    40 C    1.421    30 C    1.055
    32   6 C    3.868 --    33 C    1.454    31 C    1.422    58 H    0.988
    33   6 C    3.915 --    32 C    1.454    34 C    1.419    59 H    0.985
    34   6 C    3.938 --    33 C    1.419    39 C    1.418    35 S    0.890
    35  16 S    5.802 --    38 O    1.897    36 O    1.889    37 O    1.080
                            34 C    0.890
    36   8 O    2.221 --    35 S    1.889    38 O    0.134
    37   8 O    2.283 --    35 S    1.080    60 H    0.938    38 O    0.101
    38   8 O    2.236 --    35 S    1.897    36 O    0.134    37 O    0.101
    39   6 C    3.914 --    40 C    1.454    34 C    1.418    61 H    0.984
    40   6 C    3.870 --    39 C    1.454    31 C    1.421    62 H    0.988
    41   6 C    3.933 --    30 C    1.360    45 N    1.251    42 C    1.203
    42   6 C    3.837 --    43 C    1.644    41 C    1.203    63 H    0.998
    43   6 C    3.858 --    42 C    1.644    44 C    1.198    64 H    0.994
    44   6 C    3.954 --     2 C    1.394    45 N    1.242    43 C    1.198
    45   7 N    2.990 --    41 C    1.251    44 C    1.242     1 Co   0.714
    46   1 H    1.035 --     2 C    0.996
    47   1 H    1.027 --     4 C    0.994
    48   1 H    1.041 --     5 C    0.999
    49   1 H    1.050 --    10 C    0.989
    50   1 H    1.042 --    11 C    0.985
    51   1 H    1.017 --    15 O    0.938
    52   1 H    1.044 --    17 C    0.985
    53   1 H    1.051 --    18 C    0.988
    54   1 H    1.042 --    20 C    0.998
    55   1 H    1.038 --    21 C    0.998
    56   1 H    1.038 --    26 C    0.998
    57   1 H    1.041 --    27 C    0.998
    58   1 H    1.050 --    32 C    0.988
    59   1 H    1.044 --    33 C    0.985
    60   1 H    1.016 --    37 O    0.938
    61   1 H    1.042 --    39 C    0.984
    62   1 H    1.051 --    40 C    0.988
    63   1 H    1.042 --    42 C    0.998
    64   1 H    1.027 --    43 C    0.994
    65  27 Co   3.676 --    71 N    0.714   109 N    0.714    93 N    0.710
                            86 N    0.710
    66   6 C    3.841 --   108 C    1.394    67 C    1.393   110 H    0.996
    67   6 C    3.954 --    66 C    1.393    71 N    1.243    68 C    1.198
    68   6 C    3.856 --    69 C    1.645    67 C    1.198   111 H    0.994
    69   6 C    3.837 --    68 C    1.645    70 C    1.203   112 H    0.999
    70   6 C    3.933 --    72 C    1.363    71 N    1.248    69 C    1.203
    71   7 N    2.990 --    70 C    1.248    67 C    1.243    65 Co   0.714
    72   6 C    3.846 --    83 C    1.366    70 C    1.363    73 C    1.054
    73   6 C    3.895 --    82 C    1.422    74 C    1.421    72 C    1.054
    74   6 C    3.870 --    75 C    1.454    73 C    1.421   113 H    0.989
    75   6 C    3.915 --    74 C    1.454    76 C    1.418   114 H    0.985
    76   6 C    3.938 --    81 C    1.418    75 C    1.418    77 S    0.891
    77  16 S    5.801 --    80 O    1.896    78 O    1.890    79 O    1.079
                            76 C    0.891
    78   8 O    2.224 --    77 S    1.890    80 O    0.134
    79   8 O    2.282 --    77 S    1.079   115 H    0.938    80 O    0.100
    80   8 O    2.234 --    77 S    1.896    78 O    0.134    79 O    0.100
    81   6 C    3.915 --    82 C    1.454    76 C    1.418   116 H    0.984
    82   6 C    3.869 --    81 C    1.454    73 C    1.422   117 H    0.988
    83   6 C    3.924 --    72 C    1.366    86 N    1.240    84 C    1.209
    84   6 C    3.832 --    85 C    1.632    83 C    1.209   118 H    0.998
    85   6 C    3.850 --    84 C    1.632    87 C    1.219   119 H    0.998
    86   7 N    2.997 --    87 C    1.263    83 C    1.240    65 Co   0.710
    87   6 C    3.931 --    88 C    1.307    86 N    1.263    85 C    1.219
    88   6 C    3.871 --    87 C    1.307    89 C    1.306   152 C    1.208
    89   6 C    3.932 --    88 C    1.306    93 N    1.265    90 C    1.219
    90   6 C    3.848 --    91 C    1.632    89 C    1.219   120 H    0.998
    91   6 C    3.832 --    90 C    1.632    92 C    1.209   121 H    0.998
    92   6 C    3.924 --    94 C    1.368    93 N    1.238    91 C    1.209
    93   7 N    2.997 --    89 C    1.265    92 C    1.238    65 Co   0.710
    94   6 C    3.846 --    92 C    1.368   105 C    1.361    95 C    1.055
    95   6 C    3.894 --    96 C    1.422   104 C    1.421    94 C    1.055
    96   6 C    3.868 --    97 C    1.454    95 C    1.422   122 H    0.988
    97   6 C    3.915 --    96 C    1.454    98 C    1.419   123 H    0.985
    98   6 C    3.938 --    97 C    1.419   103 C    1.418    99 S    0.890
    99  16 S    5.802 --   102 O    1.897   100 O    1.889   101 O    1.080
                            98 C    0.890
   100   8 O    2.221 --    99 S    1.889   102 O    0.134
   101   8 O    2.283 --    99 S    1.080   124 H    0.938   102 O    0.101
   102   8 O    2.236 --    99 S    1.897   100 O    0.134   101 O    0.101
   103   6 C    3.914 --   104 C    1.454    98 C    1.418   125 H    0.984
   104   6 C    3.870 --   103 C    1.454    95 C    1.421   126 H    0.988
   105   6 C    3.932 --    94 C    1.361   109 N    1.250   106 C    1.203
   106   6 C    3.837 --   107 C    1.644   105 C    1.203   127 H    0.998
   107   6 C    3.858 --   106 C    1.644   108 C    1.198   128 H    0.994
   108   6 C    3.954 --    66 C    1.394   109 N    1.243   107 C    1.198
   109   7 N    2.991 --   105 C    1.250   108 C    1.243    65 Co   0.714
   110   1 H    1.035 --    66 C    0.996
   111   1 H    1.027 --    68 C    0.994
   112   1 H    1.041 --    69 C    0.999
   113   1 H    1.050 --    74 C    0.989
   114   1 H    1.043 --    75 C    0.985
   115   1 H    1.017 --    79 O    0.938
   116   1 H    1.043 --    81 C    0.984
   117   1 H    1.051 --    82 C    0.988
   118   1 H    1.042 --    84 C    0.998
   119   1 H    1.037 --    85 C    0.998
   120   1 H    1.038 --    90 C    0.998
   121   1 H    1.041 --    91 C    0.998
   122   1 H    1.050 --    96 C    0.988
   123   1 H    1.044 --    97 C    0.985
   124   1 H    1.017 --   101 O    0.938
   125   1 H    1.042 --   103 C    0.984
   126   1 H    1.050 --   104 C    0.988
   127   1 H    1.042 --   106 C    0.998
   128   1 H    1.027 --   107 C    0.994
   129   6 C    3.758 --   130 C    2.477    24 C    1.211   132 C    0.172
   130   6 C    3.834 --   129 C    2.477   131 C    1.358
   131   6 C    3.810 --   132 C    2.353   130 C    1.358   134 C    0.167
   132   6 C    3.847 --   131 C    2.353   133 C    1.388   129 C    0.172
   133   6 C    3.846 --   134 C    2.352   132 C    1.388   136 C    0.172
   134   6 C    3.811 --   133 C    2.352   135 C    1.360   131 C    0.167
   135   6 C    3.831 --   136 C    2.473   134 C    1.360
   136   6 C    3.759 --   135 C    2.473   154 C    1.216   133 C    0.172
   137   6 C    3.757 --   138 C    2.470   176 C    1.217   140 C    0.172
   138   6 C    3.831 --   137 C    2.470   139 C    1.363
   139   6 C    3.809 --   140 C    2.348   138 C    1.363   142 C    0.167
   140   6 C    3.845 --   139 C    2.348   141 C    1.391   137 C    0.172
   141   6 C    3.845 --   142 C    2.348   140 C    1.391   144 C    0.172
   142   6 C    3.809 --   141 C    2.348   143 C    1.363   139 C    0.167
   143   6 C    3.831 --   144 C    2.471   142 C    1.363
   144   6 C    3.757 --   143 C    2.471   217 C    1.217   141 C    0.172
   145   6 C    3.760 --   146 C    2.478   239 C    1.212   148 C    0.172
   146   6 C    3.832 --   145 C    2.478   147 C    1.356
   147   6 C    3.811 --   148 C    2.357   146 C    1.356   150 C    0.167
   148   6 C    3.846 --   147 C    2.357   149 C    1.383   145 C    0.172
   149   6 C    3.848 --   150 C    2.359   148 C    1.383   152 C    0.172
   150   6 C    3.810 --   149 C    2.359   151 C    1.354   147 C    0.167
   151   6 C    3.834 --   152 C    2.483   150 C    1.354
   152   6 C    3.759 --   151 C    2.483    88 C    1.208   149 C    0.172
   153  27 Co   3.650 --   174 N    0.708   197 N    0.708   181 N    0.708
                           159 N    0.708
   154   6 C    3.862 --   196 C    1.301   155 C    1.301   136 C    1.216
   155   6 C    3.931 --   154 C    1.301   159 N    1.266   156 C    1.221
   156   6 C    3.848 --   157 C    1.629   155 C    1.221   198 H    0.998
   157   6 C    3.833 --   156 C    1.629   158 C    1.212   199 H    0.998
   158   6 C    3.921 --   160 C    1.363   159 N    1.239   157 C    1.212
   159   7 N    2.990 --   155 C    1.266   158 C    1.239   153 Co   0.708
   160   6 C    3.843 --   171 C    1.366   158 C    1.363   161 C    1.055
   161   6 C    3.894 --   162 C    1.422   170 C    1.421   160 C    1.055
   162   6 C    3.869 --   163 C    1.453   161 C    1.422   200 H    0.988
   163   6 C    3.915 --   162 C    1.453   164 C    1.419   201 H    0.984
   164   6 C    3.938 --   163 C    1.419   169 C    1.418   165 S    0.890
   165  16 S    5.804 --   168 O    1.899   166 O    1.889   167 O    1.081
                           164 C    0.890
   166   8 O    2.220 --   165 S    1.889   168 O    0.134
   167   8 O    2.284 --   165 S    1.081   202 H    0.938   168 O    0.101
   168   8 O    2.239 --   165 S    1.899   166 O    0.134   167 O    0.101
   169   6 C    3.914 --   170 C    1.454   164 C    1.418   203 H    0.984
   170   6 C    3.870 --   169 C    1.454   161 C    1.421   204 H    0.988
   171   6 C    3.921 --   160 C    1.366   174 N    1.237   172 C    1.210
   172   6 C    3.832 --   173 C    1.630   171 C    1.210   205 H    0.998
   173   6 C    3.848 --   172 C    1.630   175 C    1.220   206 H    0.998
   174   7 N    2.990 --   175 C    1.268   171 C    1.237   153 Co   0.708
   175   6 C    3.931 --   176 C    1.301   174 N    1.268   173 C    1.220
   176   6 C    3.862 --   175 C    1.301   177 C    1.300   137 C    1.217
   177   6 C    3.931 --   176 C    1.300   181 N    1.268   178 C    1.221
   178   6 C    3.848 --   179 C    1.630   177 C    1.221   207 H    0.998
   179   6 C    3.832 --   178 C    1.630   180 C    1.211   208 H    0.998
   180   6 C    3.921 --   182 C    1.364   181 N    1.238   179 C    1.211
   181   7 N    2.990 --   177 C    1.268   180 C    1.238   153 Co   0.708
   182   6 C    3.843 --   180 C    1.364   193 C    1.364   183 C    1.055
   183   6 C    3.894 --   184 C    1.422   192 C    1.421   182 C    1.055
   184   6 C    3.868 --   185 C    1.453   183 C    1.422   209 H    0.988
   185   6 C    3.915 --   184 C    1.453   186 C    1.419   210 H    0.984
   186   6 C    3.938 --   185 C    1.419   191 C    1.418   187 S    0.890
   187  16 S    5.804 --   190 O    1.899   188 O    1.888   189 O    1.081
                           186 C    0.890
   188   8 O    2.220 --   187 S    1.888   190 O    0.134
   189   8 O    2.284 --   187 S    1.081   211 H    0.938   190 O    0.101
   190   8 O    2.239 --   187 S    1.899   188 O    0.134   189 O    0.101
   191   6 C    3.914 --   192 C    1.454   186 C    1.418   212 H    0.984
   192   6 C    3.870 --   191 C    1.454   183 C    1.421   213 H    0.988
   193   6 C    3.921 --   182 C    1.364   197 N    1.238   194 C    1.211
   194   6 C    3.833 --   195 C    1.629   193 C    1.211   214 H    0.998
   195   6 C    3.846 --   194 C    1.629   196 C    1.221   215 H    0.998
   196   6 C    3.931 --   154 C    1.301   197 N    1.267   195 C    1.221
   197   7 N    2.990 --   196 C    1.267   193 C    1.238   153 Co   0.708
   198   1 H    1.035 --   156 C    0.998
   199   1 H    1.041 --   157 C    0.998
   200   1 H    1.050 --   162 C    0.988
   201   1 H    1.044 --   163 C    0.984
   202   1 H    1.017 --   167 O    0.938
   203   1 H    1.041 --   169 C    0.984
   204   1 H    1.050 --   170 C    0.988
   205   1 H    1.042 --   172 C    0.998
   206   1 H    1.035 --   173 C    0.998
   207   1 H    1.035 --   178 C    0.998
   208   1 H    1.042 --   179 C    0.998
   209   1 H    1.050 --   184 C    0.988
   210   1 H    1.044 --   185 C    0.984
   211   1 H    1.017 --   189 O    0.938
   212   1 H    1.041 --   191 C    0.984
   213   1 H    1.050 --   192 C    0.988
   214   1 H    1.041 --   194 C    0.998
   215   1 H    1.035 --   195 C    0.998
   216  27 Co   3.650 --   244 N    0.709   222 N    0.709   237 N    0.708
                           260 N    0.707
   217   6 C    3.863 --   218 C    1.301   259 C    1.299   144 C    1.217
   218   6 C    3.931 --   217 C    1.301   222 N    1.268   219 C    1.220
   219   6 C    3.848 --   220 C    1.631   218 C    1.220   261 H    0.998
   220   6 C    3.833 --   219 C    1.631   221 C    1.210   262 H    0.998
   221   6 C    3.921 --   223 C    1.366   222 N    1.237   220 C    1.210
   222   7 N    2.990 --   218 C    1.268   221 C    1.237   216 Co   0.709
   223   6 C    3.843 --   221 C    1.366   234 C    1.362   224 C    1.055
   224   6 C    3.894 --   225 C    1.422   233 C    1.421   223 C    1.055
   225   6 C    3.869 --   226 C    1.453   224 C    1.422   263 H    0.988
   226   6 C    3.915 --   225 C    1.453   227 C    1.419   264 H    0.984
   227   6 C    3.938 --   226 C    1.419   232 C    1.418   228 S    0.890
   228  16 S    5.804 --   231 O    1.899   229 O    1.889   230 O    1.082
                           227 C    0.890
   229   8 O    2.220 --   228 S    1.889   231 O    0.134
   230   8 O    2.284 --   228 S    1.082   265 H    0.938   231 O    0.101
   231   8 O    2.238 --   228 S    1.899   229 O    0.134   230 O    0.101
   232   6 C    3.914 --   233 C    1.454   227 C    1.418   266 H    0.984
   233   6 C    3.868 --   232 C    1.454   224 C    1.421   267 H    0.988
   234   6 C    3.921 --   223 C    1.362   237 N    1.239   235 C    1.211
   235   6 C    3.833 --   236 C    1.629   234 C    1.211   268 H    0.998
   236   6 C    3.846 --   235 C    1.629   238 C    1.221   269 H    0.998
   237   7 N    2.990 --   238 C    1.266   234 C    1.239   216 Co   0.708
   238   6 C    3.931 --   239 C    1.301   237 N    1.266   236 C    1.221
   239   6 C    3.863 --   240 C    1.304   238 C    1.301   145 C    1.212
   240   6 C    3.931 --   239 C    1.304   244 N    1.265   241 C    1.220
   241   6 C    3.846 --   242 C    1.630   240 C    1.220   270 H    0.998
   242   6 C    3.833 --   241 C    1.630   243 C    1.211   271 H    0.998
   243   6 C    3.921 --   245 C    1.363   244 N    1.239   242 C    1.211
   244   7 N    2.990 --   240 C    1.265   243 C    1.239   216 Co   0.709
   245   6 C    3.843 --   256 C    1.365   243 C    1.363   246 C    1.056
   246   6 C    3.894 --   247 C    1.422   255 C    1.421   245 C    1.056
   247   6 C    3.867 --   248 C    1.453   246 C    1.422   272 H    0.988
   248   6 C    3.915 --   247 C    1.453   249 C    1.419   273 H    0.984
   249   6 C    3.938 --   248 C    1.419   254 C    1.418   250 S    0.890
   250  16 S    5.804 --   253 O    1.899   251 O    1.889   252 O    1.081
                           249 C    0.890
   251   8 O    2.221 --   250 S    1.889   253 O    0.134
   252   8 O    2.283 --   250 S    1.081   274 H    0.938   253 O    0.101
   253   8 O    2.237 --   250 S    1.899   251 O    0.134   252 O    0.101
   254   6 C    3.914 --   255 C    1.454   249 C    1.418   275 H    0.984
   255   6 C    3.867 --   254 C    1.454   246 C    1.421   276 H    0.988
   256   6 C    3.921 --   245 C    1.365   260 N    1.237   257 C    1.211
   257   6 C    3.832 --   258 C    1.630   256 C    1.211   277 H    0.998
   258   6 C    3.846 --   257 C    1.630   259 C    1.221   278 H    0.998
   259   6 C    3.931 --   217 C    1.299   260 N    1.269   258 C    1.221
   260   7 N    2.990 --   259 C    1.269   256 C    1.237   216 Co   0.707
   261   1 H    1.035 --   219 C    0.998
   262   1 H    1.041 --   220 C    0.998
   263   1 H    1.050 --   225 C    0.988
   264   1 H    1.044 --   226 C    0.984
   265   1 H    1.017 --   230 O    0.938
   266   1 H    1.041 --   232 C    0.984
   267   1 H    1.050 --   233 C    0.988
   268   1 H    1.042 --   235 C    0.998
   269   1 H    1.035 --   236 C    0.998
   270   1 H    1.035 --   241 C    0.998
   271   1 H    1.042 --   242 C    0.998
   272   1 H    1.050 --   247 C    0.988
   273   1 H    1.044 --   248 C    0.984
   274   1 H    1.016 --   252 O    0.938
   275   1 H    1.041 --   254 C    0.984
   276   1 H    1.050 --   255 C    0.988
   277   1 H    1.041 --   257 C    0.998
   278   1 H    1.035 --   258 C    0.998
 ---------------------------------------------------------------------------

Topologies differ in total number of bonds
Writing topology from bond orders to xtbtopo.mol

 dipole moment from electron density (au)
     X       Y       Z   
-136.6018  -1.6241  -0.3003  total (Debye):  347.233


           -------------------------------------------------
          | TOTAL ENERGY             -624.701591405762 Eh   |
          | GRADIENT NORM               0.117963461065 Eh/α |
          | HOMO-LUMO GAP               0.000661298313 eV   |
           -------------------------------------------------
########################################################################
[WARNING] Runtime exception occurred
-1- restart_readRestart: Dimension missmatch in restart file.
########################################################################

------------------------------------------------------------------------
 * finished run on 2022/07/30 at 08:11:16.948     
------------------------------------------------------------------------
 total:
 * wall-time:     0 d,  0 h,  2 min, 24.050 sec
 *  cpu-time:     0 d,  0 h,  2 min, 23.126 sec
 * ratio c/w:     0.994 speedup
 SCF:
 * wall-time:     0 d,  0 h,  2 min, 22.777 sec
 *  cpu-time:     0 d,  0 h,  2 min, 21.866 sec
 * ratio c/w:     0.994 speedup

