      -----------------------------------------------------------      
     |                   =====================                   |     
     |                           x T B                           |     
     |                   =====================                   |     
     |                         S. Grimme                         |     
     |          Mulliken Center for Theoretical Chemistry        |     
     |                    University of Bonn                     |     
      -----------------------------------------------------------      

   * xtb version 6.5.1 (b24c23e) compiled by 'conda@728c89f4b128' on 2022-07-12

   xtb is free software: you can redistribute it and/or modify it under
   the terms of the GNU Lesser General Public License as published by
   the Free Software Foundation, either version 3 of the License, or
   (at your option) any later version.
   
   xtb is distributed in the hope that it will be useful,
   but WITHOUT ANY WARRANTY; without even the implied warranty of
   MERCHANTABILITY or FITNESS FOR A PARTICULAR PURPOSE.  See the
   GNU Lesser General Public License for more details.
   
   Cite this work as:
   * C. Bannwarth, E. Caldeweyher, S. Ehlert, A. Hansen, P. Pracht,
     J. Seibert, S. Spicher, S. Grimme, WIREs Comput. Mol. Sci., 2020, 11,
     e01493. DOI: 10.1002/wcms.1493
   
   for GFN2-xTB:
   * C. Bannwarth, S. Ehlert and S. Grimme., J. Chem. Theory Comput., 2019,
     15, 1652-1671. DOI: 10.1021/acs.jctc.8b01176
   for GFN1-xTB:
   * S. Grimme, C. Bannwarth, P. Shushkov, J. Chem. Theory Comput., 2017,
     13, 1989-2009. DOI: 10.1021/acs.jctc.7b00118
   for GFN0-xTB:
   * P. Pracht, E. Caldeweyher, S. Ehlert, S. Grimme, ChemRxiv, 2019, preprint.
     DOI: 10.26434/chemrxiv.8326202.v1
   for GFN-FF:
   * S. Spicher and S. Grimme, Angew. Chem. Int. Ed., 2020, 59, 15665-15673.
     DOI: 10.1002/anie.202004239
   
   for ALPB and GBSA implicit solvation:
   * S. Ehlert, M. Stahn, S. Spicher, S. Grimme, J. Chem. Theory Comput.,
     2021, 17, 4250-4261. DOI: 10.1021/acs.jctc.1c00471
   
   for DFT-D4:
   * E. Caldeweyher, C. Bannwarth and S. Grimme, J. Chem. Phys., 2017,
     147, 034112. DOI: 10.1063/1.4993215
   * E. Caldeweyher, S. Ehlert, A. Hansen, H. Neugebauer, S. Spicher,
     C. Bannwarth and S. Grimme, J. Chem. Phys., 2019, 150, 154122.
     DOI: 10.1063/1.5090222
   * E. Caldeweyher, J.-M. Mewes, S. Ehlert and S. Grimme, Phys. Chem. Chem. Phys.
     2020, 22, 8499-8512. DOI: 10.1039/D0CP00502A
   
   for sTDA-xTB:
   * S. Grimme and C. Bannwarth, J. Chem. Phys., 2016, 145, 054103.
     DOI: 10.1063/1.4959605
   
   in the mass-spec context:
   * V. Asgeirsson, C. Bauer and S. Grimme, Chem. Sci., 2017, 8, 4879.
     DOI: 10.1039/c7sc00601b
   * J. Koopman and S. Grimme, ACS Omega 2019, 4, 12, 15120-15133.
     DOI: 10.1021/acsomega.9b02011
   
   for metadynamics refer to:
   * S. Grimme, J. Chem. Theory Comput., 2019, 155, 2847-2862
     DOI: 10.1021/acs.jctc.9b00143
   
   for SPH calculations refer to:
   * S. Spicher and S. Grimme, J. Chem. Theory Comput., 2021, 17, 1701-1714
     DOI: 10.1021/acs.jctc.0c01306
   
   with help from (in alphabetical order)
   P. Atkinson, C. Bannwarth, F. Bohle, G. Brandenburg, E. Caldeweyher
   M. Checinski, S. Dohm, S. Ehlert, S. Ehrlich, I. Gerasimov, C. Hölzer
   A. Katbashev, J. Koopman, C. Lavigne, S. Lehtola, F. März, M. Müller,
   F. Musil, H. Neugebauer, J. Pisarek, C. Plett, P. Pracht, F. Pultar,
   J. Seibert, P. Shushkov, S. Spicher, M. Stahn, M. Steiner, T. Strunk,
   J. Stückrath, T. Rose, and J. Unsleber
   
 * started run on 2022/07/30 at 08:54:03.810     

           -------------------------------------------------
          |                Calculation Setup                |
           -------------------------------------------------

          program call               : xtb Cu_PhOH_C4_2.xyz --gfn 1 --opt -T 48
          hostname                   : cx3-15-15.cx3.hpc.ic.ac.uk
          coordinate file            : Cu_PhOH_C4_2.xyz
          omp threads                :                     1

   ID    Z sym.   atoms
    1   29 Cu     1, 59
    2    6 C      2-6, 8-12, 14-18, 20-25, 27-31, 33-38, 60-64, 66-70, 72-76,
                  78-83, 85-89, 91-96, 117-120
    3    7 N      7, 19, 26, 39, 65, 77, 84, 97
    4    8 O      13, 32, 71, 90
    5    1 H      40-58, 98-116
########################################################################
[WARNING] Please study the warnings concerning your input carefully
-1- prog_main_parseArguments: Unknown option '-T' provided
########################################################################

           -------------------------------------------------
          |                 G F N 1 - x T B                 |
           -------------------------------------------------

        Reference                      10.1021/acs.jctc.7b00118
      * Hamiltonian:
        H0-scaling (s, p, d)           1.850000    2.250000    2.000000
        zeta-weighting                 0.000000
      * Dispersion:
        s8                             2.400000
        a1                             0.630000
        a2                             5.000000
        s9                             0.000000
      * Repulsion:
        kExp                           1.500000
        rExp                           1.000000
      * Coulomb:
        alpha                          2.000000
        third order                    atomic
        anisotropic                    false
      * Halogen bond correction:
        rad-scale                      1.300000
        damping                        0.440000


          ...................................................
          :                      SETUP                      :
          :.................................................:
          :  # basis functions                 416          :
          :  # atomic orbitals                 414          :
          :  # shells                          242          :
          :  # electrons                       396          :
          :  # halogen bonds                     0          :
          :  max. iterations                   250          :
          :  Hamiltonian                  GFN1-xTB          :
          :  restarted?                      false          :
          :  GBSA solvation                  false          :
          :  PC potential                    false          :
          :  electronic temp.          300.0000000     K    :
          :  accuracy                    1.0000000          :
          :  -> integral cutoff          0.2500000E+02      :
          :  -> integral neglect         0.1000000E-07      :
          :  -> SCF convergence          0.1000000E-05 Eh   :
          :  -> wf. convergence          0.2000000E-04 e    :
          :  Broyden damping             0.4000000          :
          ...................................................

 iter      E             dE          RMSdq      gap      omega  full diag
   1   -220.1963645 -0.220196E+03  0.106E+01    0.15       0.0  T
   2   -219.5126210  0.683743E+00  0.648E+00    0.57       1.0  T
   3   -183.3396294  0.361730E+02  0.992E+00    0.09       1.0  T
   4   -194.7008347 -0.113612E+02  0.872E+00    0.17       1.0  T
   5   -219.5358458 -0.248350E+02  0.171E+00    0.58       1.0  T
   6   -219.9010670 -0.365221E+00  0.117E+00    0.46       1.0  T
   7   -220.0350454 -0.133978E+00  0.108E+00    0.08       1.0  T
   8   -220.3514365 -0.316391E+00  0.842E-01    0.08       1.0  T
   9   -220.4748392 -0.123403E+00  0.635E-01    0.10       1.0  T
  10   -220.4820408 -0.720158E-02  0.559E-01    0.08       1.0  T
  11   -220.4397146  0.423261E-01  0.524E-01    0.04       1.0  T
  12   -220.5149410 -0.752264E-01  0.313E-01    0.05       1.0  T
  13   -220.5039622  0.109788E-01  0.307E-01    0.03       1.0  T
  14   -220.5184989 -0.145367E-01  0.242E-01    0.04       1.0  T
  15   -220.5297313 -0.112324E-01  0.102E-01    0.03       1.0  T
  16   -220.5329192 -0.318787E-02  0.464E-02    0.03       1.0  T
  17   -220.5334672 -0.547955E-03  0.497E-02    0.04       1.0  T
  18   -220.5338756 -0.408406E-03  0.264E-02    0.03       1.0  T
  19   -220.5339026 -0.270557E-04  0.235E-02    0.03       1.0  T
  20   -220.5340159 -0.113245E-03  0.910E-03    0.03       1.0  T
  21   -220.5340410 -0.250773E-04  0.254E-03    0.03       3.6  T
  22   -220.5340428 -0.188485E-05  0.125E-03    0.03       7.3  T
  23   -220.5340428  0.214824E-07  0.117E-03    0.03       7.8  T
  24   -220.5340432 -0.378303E-06  0.218E-04    0.03      41.9  T
  25   -220.5340432  0.261640E-07  0.356E-04    0.03      25.6  T
  26   -220.5340432 -0.289137E-07  0.196E-04    0.03      46.6  T
  27   -220.5340432 -0.118768E-07  0.386E-05    0.03     236.3  T

   *** convergence criteria satisfied after 27 iterations ***

         #    Occupation            Energy/Eh            Energy/eV
      -------------------------------------------------------------
         1        2.0000           -0.7912308             -21.5305
       ...           ...                  ...                  ...
       192        2.0000           -0.3969047             -10.8003
       193        2.0000           -0.3945271             -10.7356
       194        2.0000           -0.3912117             -10.6454
       195        2.0000           -0.3886752             -10.5764
       196        2.0000           -0.3659554              -9.9582
       197        1.9651           -0.3572763              -9.7220
       198        1.1668           -0.3537666              -9.6265 (HOMO)
       199        0.5622           -0.3525544              -9.5935 (LUMO)
       200        0.3059           -0.3518204              -9.5735
       201                         -0.3233044              -8.7976
       202                         -0.3230079              -8.7895
       203                         -0.2970558              -8.0833
       ...                                ...                  ...
       414                          5.8343851             158.7617
      -------------------------------------------------------------
                  HL-Gap            0.0012122 Eh            0.0330 eV
             Fermi-level           -0.3534466 Eh           -9.6178 eV

 SCC (total)                   0 d,  0 h,  0 min,  1.446 sec
 SCC setup                      ...        0 min,  0.004 sec (  0.297%)
 Dispersion                     ...        0 min,  0.003 sec (  0.212%)
 classical contributions        ...        0 min,  0.001 sec (  0.089%)
 integral evaluation            ...        0 min,  0.110 sec (  7.612%)
 iterations                     ...        0 min,  1.040 sec ( 71.938%)
 molecular gradient             ...        0 min,  0.277 sec ( 19.172%)
 printout                       ...        0 min,  0.010 sec (  0.679%)

         :::::::::::::::::::::::::::::::::::::::::::::::::::::
         ::                     SUMMARY                     ::
         :::::::::::::::::::::::::::::::::::::::::::::::::::::
         :: total energy            -216.477298473244 Eh    ::
         :: gradient norm              3.144877619635 Eh/a0 ::
         :: HOMO-LUMO gap              0.032985411093 eV    ::
         ::.................................................::
         :: SCC energy              -220.534043211561 Eh    ::
         :: -> electrostatic           0.284058375180 Eh    ::
         :: repulsion energy           4.162502756849 Eh    ::
         :: dispersion energy         -0.105758018532 Eh    ::
         :: halogen bond corr.         0.000000000000 Eh    ::
         :: add. restraining           0.000000000000 Eh    ::
         :: total charge              -0.000000000003 e     ::
         :::::::::::::::::::::::::::::::::::::::::::::::::::::

      ----------------------------------------------------------- 
     |                   =====================                   |
     |                        A N C O P T                        |
     |                   =====================                   |
     |               Approximate Normal Coordinate               |
     |                Rational Function Optimizer                |
      ----------------------------------------------------------- 

          ...................................................
          :                      SETUP                      :
          :.................................................:
          :   optimization level            normal          :
          :   max. optcycles                   360          :
          :   ANC micro-cycles                  20          :
          :   degrees of freedom               354          :
          :.................................................:
          :   RF solver                   davidson          :
          :   write xtbopt.log                true          :
          :   linear?                        false          :
          :   energy convergence         0.5000000E-05 Eh   :
          :   grad. convergence          0.1000000E-02 Eh/α :
          :   maximium RF displ.         1.0000000          :
          :   Hlow (freq-cutoff)         0.1000000E-01      :
          :   Hmax (freq-cutoff)         5.0000000          :
          :   S6 in model hess.         20.0000000          :
          ...................................................

generating ANC from model Hessian ...
Using Lindh-Hessian (1995)
 Shifting diagonal of input Hessian by    1.0033981008994457E-002
 Lowest  eigenvalues of input Hessian
    0.010000    0.010020    0.010031    0.000000    0.000000    0.000000
    0.000000    0.000000    0.000000    0.010103    0.010175    0.010191
    0.010366    0.010395    0.010488    0.010559    0.010573    0.010734
 Highest eigenvalues
    2.104456    2.234272    3.048669    3.185019    3.953400    4.203051


........................................................................
.............................. CYCLE    1 ..............................
........................................................................
   1   -220.5340432 -0.220534E+03  0.119E-05    0.03       0.0  T
   2   -220.5340432  0.147816E-07  0.211E-04    0.03      43.2  T
   3   -220.5340432 -0.134432E-07  0.652E-05    0.03     140.1  T
   4   -220.5340432 -0.114298E-08  0.270E-05    0.03     337.9  T
     SCC iter.                  ...        0 min,  0.157 sec
     gradient                   ...        0 min,  0.280 sec
 * total energy  :  -216.4772985 Eh     change       -0.1547278E-09 Eh
   gradient norm :     3.1448767 Eh/α   predicted     0.0000000E+00 (-100.00%)
   displ. norm   :     0.5816425 α      lambda       -0.1785025E+01
   maximum displ.:     0.4593492 α      in ANC's #354, #353, #332, ...

........................................................................
.............................. CYCLE    2 ..............................
........................................................................
   1   -220.6000515 -0.220600E+03  0.471E-01    0.01       0.0  T
   2   -220.5534660  0.465855E-01  0.475E-01    0.06       1.0  T
   3   -220.3096508  0.243815E+00  0.933E-01    0.61       1.0  T
   4   -220.5930590 -0.283408E+00  0.356E-01    0.05       1.0  T
   5   -220.5802786  0.127804E-01  0.380E-01    0.05       1.0  T
   6   -220.4466381  0.133641E+00  0.822E-01    0.22       1.0  T
   7   -220.4515163 -0.487822E-02  0.786E-01    0.19       1.0  T
   8   -220.6246700 -0.173154E+00  0.192E-02    0.00       1.0  T
   9   -220.6215957  0.307432E-02  0.107E-01    0.01       1.0  T
  10   -220.6235596 -0.196394E-02  0.671E-02    0.01       1.0  T
  11   -220.6236374 -0.778255E-04  0.640E-02    0.01       1.0  T
  12   -220.6245988 -0.961359E-03  0.256E-02    0.01       1.0  T
  13   -220.6247776 -0.178823E-03  0.254E-03    0.00       3.6  T
  14   -220.6247777 -0.962197E-07  0.243E-03    0.00       3.8  T
  15   -220.6247793 -0.155362E-05  0.505E-04    0.00      18.1  T
  16   -220.6247791  0.112635E-06  0.801E-04    0.00      11.4  T
  17   -220.6247793 -0.176406E-06  0.703E-05    0.00     129.9  T
  18   -220.6247793  0.351739E-08  0.134E-04    0.00      68.1  T
     SCC iter.                  ...        0 min,  0.697 sec
     gradient                   ...        0 min,  0.278 sec
 * total energy  :  -217.2983909 Eh     change       -0.8210924E+00 Eh
   gradient norm :     0.5393046 Eh/α   predicted    -0.1194457E+01 (  45.47%)
   displ. norm   :     0.4359727 α      lambda       -0.1665749E+00
   maximum displ.:     0.1184039 α      in ANC's #169, #113, #116, ...

........................................................................
.............................. CYCLE    3 ..............................
........................................................................
   1   -220.7225304 -0.220723E+03  0.133E-01    0.01       0.0  T
   2   -220.5588421  0.163688E+00  0.756E-01    0.19       1.0  T
   3   -220.6413979 -0.825557E-01  0.535E-01    0.09       1.0  T
   4   -220.7176839 -0.762860E-01  0.172E-01    0.02       1.0  T
   5   -220.7245612 -0.687733E-02  0.679E-02    0.01       1.0  T
   6   -220.7246576 -0.964206E-04  0.656E-02    0.01       1.0  T
   7   -220.7248947 -0.237066E-03  0.581E-02    0.01       1.0  T
   8   -220.7258396 -0.944949E-03  0.125E-02    0.01       1.0  T
   9   -220.7258493 -0.970303E-05  0.107E-02    0.01       1.0  T
  10   -220.7258823 -0.330125E-04  0.311E-04    0.01      29.4  T
  11   -220.7258811  0.125403E-05  0.214E-03    0.01       4.3  T
  12   -220.7258823 -0.126140E-05  0.294E-04    0.01      31.1  T
  13   -220.7258824 -0.126961E-07  0.212E-04    0.01      43.2  T
  14   -220.7258824 -0.125861E-07  0.540E-06    0.01    1691.1  T
  15   -220.7258824  0.118177E-09  0.211E-05    0.01     432.0  T
     SCC iter.                  ...        0 min,  0.582 sec
     gradient                   ...        0 min,  0.278 sec
 * total energy  :  -217.4055663 Eh     change       -0.1071754E+00 Eh
   gradient norm :     0.2853924 Eh/α   predicted    -0.9911823E-01 (  -7.52%)
   displ. norm   :     0.5355132 α      lambda       -0.9204416E-01
   maximum displ.:     0.1773009 α      in ANC's #116, #102, #113, ...

........................................................................
.............................. CYCLE    4 ..............................
........................................................................
   1   -220.7689118 -0.220769E+03  0.146E-01    0.01       0.0  T
   2   -220.5936423  0.175270E+00  0.772E-01    0.23       1.0  T
   3   -220.6739183 -0.802761E-01  0.578E-01    0.10       1.0  T
   4   -220.7689785 -0.950601E-01  0.118E-01    0.02       1.0  T
   5   -220.7708633 -0.188483E-02  0.807E-02    0.02       1.0  T
   6   -220.7719464 -0.108313E-02  0.544E-02    0.01       1.0  T
   7   -220.7708722  0.107419E-02  0.804E-02    0.02       1.0  T
   8   -220.7727039 -0.183170E-02  0.154E-02    0.01       1.0  T
   9   -220.7726986  0.528349E-05  0.155E-02    0.01       1.0  T
  10   -220.7727673 -0.687021E-04  0.175E-03    0.01       5.2  T
  11   -220.7727668  0.501166E-06  0.218E-03    0.01       4.2  T
  12   -220.7727682 -0.135499E-05  0.516E-05    0.01     177.0  T
  13   -220.7727682  0.335566E-07  0.348E-04    0.01      26.2  T
  14   -220.7727682 -0.341591E-07  0.218E-05    0.01     418.8  T
  15   -220.7727682 -0.128466E-09  0.307E-06    0.01    2971.3  T
     SCC iter.                  ...        0 min,  0.578 sec
     gradient                   ...        0 min,  0.277 sec
 * total energy  :  -217.4618010 Eh     change       -0.5623469E-01 Eh
   gradient norm :     0.1177441 Eh/α   predicted    -0.5922008E-01 (   5.31%)
   displ. norm   :     0.4597948 α      lambda       -0.2209818E-01
   maximum displ.:     0.1318786 α      in ANC's #21, #113, #116, ...

........................................................................
.............................. CYCLE    5 ..............................
........................................................................
   1   -220.7850444 -0.220785E+03  0.640E-02    0.01       0.0  T
   2   -220.6549314  0.130113E+00  0.666E-01    0.13       1.0  T
   3   -220.7809891 -0.126058E+00  0.128E-01    0.02       1.0  T
   4   -220.7853690 -0.437989E-02  0.360E-02    0.01       1.0  T
   5   -220.7855988 -0.229787E-03  0.240E-02    0.01       1.0  T
   6   -220.7857595 -0.160705E-03  0.353E-03    0.01       2.6  T
   7   -220.7857201  0.393237E-04  0.119E-02    0.01       1.0  T
   8   -220.7857598 -0.396992E-04  0.237E-03    0.01       3.8  T
   9   -220.7857606 -0.749454E-06  0.183E-03    0.01       5.0  T
  10   -220.7857612 -0.638209E-06  0.106E-03    0.01       8.6  T
  11   -220.7857615 -0.295697E-06  0.358E-04    0.01      25.5  T
  12   -220.7857615 -0.197803E-07  0.238E-04    0.01      38.4  T
  13   -220.7857616 -0.163232E-07  0.156E-05    0.01     583.7  T
  14   -220.7857616 -0.445368E-10  0.922E-06    0.01     990.3  T
     SCC iter.                  ...        0 min,  0.539 sec
     gradient                   ...        0 min,  0.278 sec
 * total energy  :  -217.4774737 Eh     change       -0.1567273E-01 Eh
   gradient norm :     0.0618760 Eh/α   predicted    -0.1338503E-01 ( -14.60%)
   displ. norm   :     0.5295898 α      lambda       -0.1116507E-01
   maximum displ.:     0.2342794 α      in ANC's #21, #32, #78, ...

........................................................................
.............................. CYCLE    6 ..............................
........................................................................
   1   -220.7701006 -0.220770E+03  0.353E-02    0.01       0.0  T
   2   -220.6899545  0.801461E-01  0.527E-01    0.08       1.0  T
   3   -220.7699395 -0.799850E-01  0.362E-02    0.01       1.0  T
   4   -220.7701535 -0.213974E-03  0.226E-02    0.01       1.0  T
   5   -220.7702760 -0.122507E-03  0.104E-02    0.01       1.0  T
   6   -220.7703012 -0.252449E-04  0.431E-03    0.01       2.1  T
   7   -220.7703051 -0.391589E-05  0.196E-03    0.01       4.7  T
   8   -220.7703062 -0.109435E-05  0.205E-04    0.01      44.6  T
   9   -220.7703062 -0.266587E-08  0.196E-04    0.01      46.5  T
  10   -220.7703062 -0.108579E-07  0.712E-05    0.01     128.3  T
     SCC iter.                  ...        0 min,  0.389 sec
     gradient                   ...        0 min,  0.276 sec
 * total energy  :  -217.4857002 Eh     change       -0.8226532E-02 Eh
   gradient norm :     0.0429095 Eh/α   predicted    -0.7148244E-02 ( -13.11%)
   displ. norm   :     0.5686537 α      lambda       -0.6407023E-02
   maximum displ.:     0.3248846 α      in ANC's #21, #32, #22, ...

........................................................................
.............................. CYCLE    7 ..............................
........................................................................
   1   -220.7579886 -0.220758E+03  0.188E-02    0.01       0.0  T
   2   -220.7573831  0.605500E-03  0.479E-02    0.01       1.0  T
   3   -220.7464774  0.109058E-01  0.201E-01    0.03       1.0  T
   4   -220.7580191 -0.115417E-01  0.709E-03    0.01       1.3  T
   5   -220.7580206 -0.151505E-05  0.585E-03    0.01       1.6  T
   6   -220.7580311 -0.104862E-04  0.122E-03    0.01       7.5  T
   7   -220.7580314 -0.277889E-06  0.282E-04    0.01      32.3  T
   8   -220.7580314 -0.165021E-07  0.935E-05    0.01      97.6  T
   9   -220.7580314 -0.203670E-08  0.368E-05    0.01     247.9  T
     SCC iter.                  ...        0 min,  0.350 sec
     gradient                   ...        0 min,  0.276 sec
 * total energy  :  -217.4906497 Eh     change       -0.4949493E-02 Eh
   gradient norm :     0.0301050 Eh/α   predicted    -0.4239551E-02 ( -14.34%)
   displ. norm   :     0.6175953 α      lambda       -0.4559323E-02
   maximum displ.:     0.4099196 α      in ANC's #21, #22, #32, ...

........................................................................
.............................. CYCLE    8 ..............................
........................................................................
   1   -220.7484927 -0.220748E+03  0.179E-02    0.00       0.0  T
   2   -220.7227149  0.257778E-01  0.301E-01    0.04       1.0  T
   3   -220.7485306 -0.258157E-01  0.893E-03    0.00       1.0  T
   4   -220.7485334 -0.275550E-05  0.644E-03    0.00       1.4  T
   5   -220.7485398 -0.644773E-05  0.394E-03    0.00       2.3  T
   6   -220.7485439 -0.410040E-05  0.930E-04    0.00       9.8  T
   7   -220.7485441 -0.207047E-06  0.287E-04    0.00      31.8  T
   8   -220.7485441 -0.223108E-07  0.898E-05    0.00     101.7  T
   9   -220.7485441 -0.224222E-08  0.320E-05    0.00     285.2  T
     SCC iter.                  ...        0 min,  0.351 sec
     gradient                   ...        0 min,  0.279 sec
 * total energy  :  -217.4941684 Eh     change       -0.3518704E-02 Eh
   gradient norm :     0.0204831 Eh/α   predicted    -0.3149199E-02 ( -10.50%)
   displ. norm   :     0.6496145 α      lambda       -0.3547627E-02
   maximum displ.:     0.4475285 α      in ANC's #21, #22, #32, ...

........................................................................
.............................. CYCLE    9 ..............................
........................................................................
   1   -220.7453086 -0.220745E+03  0.197E-02    0.00       0.0  T
   2   -220.6853351  0.599735E-01  0.459E-01    0.07       1.0  T
   3   -220.7453579 -0.600228E-01  0.114E-02    0.00       1.0  T
   4   -220.7453861 -0.282396E-04  0.439E-03    0.00       2.1  T
   5   -220.7453924 -0.624602E-05  0.232E-03    0.00       3.9  T
   6   -220.7453933 -0.929560E-06  0.793E-04    0.00      11.5  T
   7   -220.7453934 -0.100842E-06  0.252E-04    0.00      36.2  T
   8   -220.7453934 -0.182968E-07  0.633E-05    0.00     144.3  T
   9   -220.7453934 -0.371841E-09  0.398E-05    0.00     229.4  T
     SCC iter.                  ...        0 min,  0.348 sec
     gradient                   ...        0 min,  0.278 sec
 * total energy  :  -217.4965180 Eh     change       -0.2349537E-02 Eh
   gradient norm :     0.0162199 Eh/α   predicted    -0.2522363E-02 (   7.36%)
   displ. norm   :     0.5703506 α      lambda       -0.2675201E-02
   maximum displ.:     0.4017708 α      in ANC's #21, #22, #25, ...

........................................................................
.............................. CYCLE   10 ..............................
........................................................................
   1   -220.7445245 -0.220745E+03  0.107E-02    0.00       0.0  T
   2   -220.7389387  0.558583E-02  0.141E-01    0.02       1.0  T
   3   -220.7445295 -0.559084E-02  0.725E-03    0.00       1.3  T
   4   -220.7445132  0.162874E-04  0.107E-02    0.00       1.0  T
   5   -220.7445385 -0.253398E-04  0.497E-03    0.00       1.8  T
   6   -220.7445447 -0.619787E-05  0.127E-03    0.00       7.2  T
   7   -220.7445451 -0.396220E-06  0.151E-04    0.00      60.6  T
   8   -220.7445451 -0.547459E-08  0.441E-05    0.00     207.1  T
     SCC iter.                  ...        0 min,  0.313 sec
     gradient                   ...        0 min,  0.276 sec
 * total energy  :  -217.4982720 Eh     change       -0.1754090E-02 Eh
   gradient norm :     0.0139920 Eh/α   predicted    -0.1772745E-02 (   1.06%)
   displ. norm   :     0.4688663 α      lambda       -0.1401050E-02
   maximum displ.:     0.3216420 α      in ANC's #21, #22, #7, ...

........................................................................
.............................. CYCLE   11 ..............................
........................................................................
   1   -220.7437937 -0.220744E+03  0.579E-03    0.00       0.0  T
   2   -220.7406771  0.311662E-02  0.105E-01    0.01       1.0  T
   3   -220.7437767 -0.309959E-02  0.911E-03    0.00       1.0  T
   4   -220.7437997 -0.230288E-04  0.176E-03    0.00       5.2  T
   5   -220.7438005 -0.795375E-06  0.792E-04    0.00      11.5  T
   6   -220.7438006 -0.638846E-07  0.384E-04    0.00      23.8  T
   7   -220.7438006 -0.339512E-07  0.110E-04    0.00      83.1  T
   8   -220.7438006 -0.258160E-08  0.340E-05    0.00     268.6  T
     SCC iter.                  ...        0 min,  0.311 sec
     gradient                   ...        0 min,  0.279 sec
 * total energy  :  -217.4994223 Eh     change       -0.1150258E-02 Eh
   gradient norm :     0.0131792 Eh/α   predicted    -0.8545534E-03 ( -25.71%)
   displ. norm   :     0.5321501 α      lambda       -0.1321236E-02
   maximum displ.:     0.3288634 α      in ANC's #21, #22, #7, ...

........................................................................
.............................. CYCLE   12 ..............................
........................................................................
   1   -220.7429679 -0.220743E+03  0.642E-03    0.00       0.0  T
   2   -220.7402397  0.272814E-02  0.983E-02    0.01       1.0  T
   3   -220.7429584 -0.271870E-02  0.784E-03    0.00       1.2  T
   4   -220.7429737 -0.152256E-04  0.278E-03    0.00       3.3  T
   5   -220.7429751 -0.143693E-05  0.156E-03    0.00       5.9  T
   6   -220.7429756 -0.560104E-06  0.516E-04    0.00      17.7  T
   7   -220.7429757 -0.712446E-07  0.132E-04    0.00      69.4  T
   8   -220.7429757 -0.352287E-08  0.507E-05    0.00     180.2  T
     SCC iter.                  ...        0 min,  0.311 sec
     gradient                   ...        0 min,  0.280 sec
 * total energy  :  -217.5004303 Eh     change       -0.1007992E-02 Eh
   gradient norm :     0.0101094 Eh/α   predicted    -0.8476973E-03 ( -15.90%)
   displ. norm   :     0.5103852 α      lambda       -0.7907805E-03
   maximum displ.:     0.2924250 α      in ANC's #21, #7, #22, ...

........................................................................
.............................. CYCLE   13 ..............................
........................................................................
   1   -220.7396409 -0.220740E+03  0.516E-03    0.00       0.0  T
   2   -220.7378575  0.178339E-02  0.795E-02    0.01       1.0  T
   3   -220.7396401 -0.178259E-02  0.453E-03    0.00       2.0  T
   4   -220.7396446 -0.449749E-05  0.193E-03    0.00       4.7  T
   5   -220.7396452 -0.654241E-06  0.114E-03    0.00       8.0  T
   6   -220.7396455 -0.287385E-06  0.369E-04    0.00      24.7  T
   7   -220.7396455 -0.354121E-07  0.991E-05    0.00      92.1  T
   8   -220.7396456 -0.251381E-08  0.283E-05    0.00     322.4  T
     SCC iter.                  ...        0 min,  0.313 sec
     gradient                   ...        0 min,  0.276 sec
 * total energy  :  -217.5010165 Eh     change       -0.5861808E-03 Eh
   gradient norm :     0.0081858 Eh/α   predicted    -0.4983899E-03 ( -14.98%)
   displ. norm   :     0.4230230 α      lambda       -0.4519463E-03
   maximum displ.:     0.2057782 α      in ANC's #21, #7, #22, ...

........................................................................
.............................. CYCLE   14 ..............................
........................................................................
   1   -220.7369099 -0.220737E+03  0.425E-03    0.00       0.0  T
   2   -220.7345144  0.239556E-02  0.920E-02    0.01       1.0  T
   3   -220.7369122 -0.239777E-02  0.254E-03    0.00       3.6  T
   4   -220.7369135 -0.130956E-05  0.131E-03    0.00       7.0  T
   5   -220.7369138 -0.349891E-06  0.738E-04    0.00      12.4  T
   6   -220.7369139 -0.106941E-06  0.364E-04    0.00      25.1  T
   7   -220.7369140 -0.306840E-07  0.988E-05    0.00      92.4  T
   8   -220.7369140 -0.259124E-08  0.274E-05    0.00     332.7  T
     SCC iter.                  ...        0 min,  0.312 sec
     gradient                   ...        0 min,  0.277 sec
 * total energy  :  -217.5013577 Eh     change       -0.3412660E-03 Eh
   gradient norm :     0.0061248 Eh/α   predicted    -0.2664152E-03 ( -21.93%)
   displ. norm   :     0.3549537 α      lambda       -0.3285960E-03
   maximum displ.:     0.1913743 α      in ANC's #7, #18, #21, ...

........................................................................
.............................. CYCLE   15 ..............................
........................................................................
   1   -220.7358640 -0.220736E+03  0.369E-03    0.00       0.0  T
   2   -220.7335800  0.228396E-02  0.898E-02    0.01       1.0  T
   3   -220.7358655 -0.228546E-02  0.254E-03    0.00       3.6  T
   4   -220.7358675 -0.201147E-05  0.934E-04    0.00       9.8  T
   5   -220.7358677 -0.148248E-06  0.623E-04    0.00      14.7  T
   6   -220.7358677 -0.572701E-07  0.398E-04    0.00      22.9  T
   7   -220.7358677 -0.376803E-07  0.920E-05    0.00      99.2  T
   8   -220.7358678 -0.244049E-08  0.233E-05    0.00     392.4  T
     SCC iter.                  ...        0 min,  0.311 sec
     gradient                   ...        0 min,  0.278 sec
 * total energy  :  -217.5016140 Eh     change       -0.2562722E-03 Eh
   gradient norm :     0.0045624 Eh/α   predicted    -0.1850001E-03 ( -27.81%)
   displ. norm   :     0.3390050 α      lambda       -0.2935240E-03
   maximum displ.:     0.1986791 α      in ANC's #7, #18, #13, ...

........................................................................
.............................. CYCLE   16 ..............................
........................................................................
   1   -220.7356118 -0.220736E+03  0.426E-03    0.00       0.0  T
   2   -220.7311741  0.443765E-02  0.125E-01    0.02       1.0  T
   3   -220.7356146 -0.444044E-02  0.256E-03    0.00       3.6  T
   4   -220.7356167 -0.207550E-05  0.103E-03    0.00       8.8  T
   5   -220.7356169 -0.211633E-06  0.755E-04    0.00      12.1  T
   6   -220.7356170 -0.119375E-06  0.294E-04    0.00      31.0  T
   7   -220.7356170 -0.192510E-07  0.483E-05    0.00     188.8  T
   8   -220.7356170 -0.683173E-09  0.228E-05    0.00     400.6  T
     SCC iter.                  ...        0 min,  0.308 sec
     gradient                   ...        0 min,  0.279 sec
 * total energy  :  -217.5018471 Eh     change       -0.2331105E-03 Eh
   gradient norm :     0.0048273 Eh/α   predicted    -0.1636372E-03 ( -29.80%)
   displ. norm   :     0.3586572 α      lambda       -0.2789074E-03
   maximum displ.:     0.2109936 α      in ANC's #7, #13, #18, ...

........................................................................
.............................. CYCLE   17 ..............................
........................................................................
   1   -220.7360655 -0.220736E+03  0.443E-03    0.00       0.0  T
   2   -220.7307734  0.529212E-02  0.137E-01    0.02       1.0  T
   3   -220.7360690 -0.529565E-02  0.228E-03    0.00       4.0  T
   4   -220.7360703 -0.123819E-05  0.119E-03    0.00       7.7  T
   5   -220.7360707 -0.411097E-06  0.624E-04    0.00      14.6  T
   6   -220.7360708 -0.776008E-07  0.221E-04    0.00      41.4  T
   7   -220.7360708 -0.948921E-08  0.575E-05    0.00     158.8  T
   8   -220.7360708 -0.892555E-09  0.128E-05    0.00     712.8  T
     SCC iter.                  ...        0 min,  0.313 sec
     gradient                   ...        0 min,  0.278 sec
 * total energy  :  -217.5020738 Eh     change       -0.2266721E-03 Eh
   gradient norm :     0.0061824 Eh/α   predicted    -0.1573934E-03 ( -30.56%)
   displ. norm   :     0.3953023 α      lambda       -0.2782388E-03
   maximum displ.:     0.2323892 α      in ANC's #7, #13, #12, ...

........................................................................
.............................. CYCLE   18 ..............................
........................................................................
   1   -220.7362084 -0.220736E+03  0.419E-03    0.00       0.0  T
   2   -220.7313306  0.487784E-02  0.131E-01    0.02       1.0  T
   3   -220.7362108 -0.488020E-02  0.275E-03    0.00       3.3  T
   4   -220.7362126 -0.176727E-05  0.936E-04    0.00       9.7  T
   5   -220.7362128 -0.203620E-06  0.518E-04    0.00      17.6  T
   6   -220.7362128 -0.713645E-07  0.141E-04    0.00      64.8  T
   7   -220.7362129 -0.235156E-08  0.428E-05    0.00     213.5  T
     SCC iter.                  ...        0 min,  0.274 sec
     gradient                   ...        0 min,  0.276 sec
 * total energy  :  -217.5023069 Eh     change       -0.2330776E-03 Eh
   gradient norm :     0.0068498 Eh/α   predicted    -0.1608606E-03 ( -30.98%)
   displ. norm   :     0.4387846 α      lambda       -0.2993595E-03
   maximum displ.:     0.2609902 α      in ANC's #7, #13, #12, ...

........................................................................
.............................. CYCLE   19 ..............................
........................................................................
   1   -220.7369413 -0.220737E+03  0.320E-03    0.00       0.0  T
   2   -220.7346884  0.225284E-02  0.892E-02    0.01       1.0  T
   3   -220.7369397 -0.225126E-02  0.374E-03    0.00       2.4  T
   4   -220.7369435 -0.382054E-05  0.614E-04    0.00      14.9  T
   5   -220.7369436 -0.884877E-07  0.387E-04    0.00      23.6  T
   6   -220.7369436 -0.342525E-07  0.186E-04    0.00      49.2  T
   7   -220.7369436 -0.707334E-08  0.414E-05    0.00     220.8  T
     SCC iter.                  ...        0 min,  0.274 sec
     gradient                   ...        0 min,  0.273 sec
 * total energy  :  -217.5025563 Eh     change       -0.2494560E-03 Eh
   gradient norm :     0.0062095 Eh/α   predicted    -0.1784987E-03 ( -28.44%)
   displ. norm   :     0.4655487 α      lambda       -0.2892383E-03
   maximum displ.:     0.2832975 α      in ANC's #7, #13, #12, ...

........................................................................
.............................. CYCLE   20 ..............................
........................................................................
   1   -220.7377222 -0.220738E+03  0.242E-03    0.00       0.0  T
   2   -220.7376085  0.113629E-03  0.201E-02    0.00       1.0  T
   3   -220.7376672 -0.586457E-04  0.140E-02    0.00       1.0  T
   4   -220.7377234 -0.561872E-04  0.720E-04    0.00      12.7  T
   5   -220.7377235 -0.153126E-06  0.402E-04    0.00      22.7  T
   6   -220.7377235 -0.241759E-07  0.210E-04    0.00      43.5  T
   7   -220.7377235 -0.866049E-08  0.448E-05    0.00     203.7  T
   8   -220.7377235 -0.541263E-09  0.146E-05    0.00     625.1  T
     SCC iter.                  ...        0 min,  0.311 sec
     gradient                   ...        0 min,  0.277 sec
 * total energy  :  -217.5027866 Eh     change       -0.2302533E-03 Eh
   gradient norm :     0.0048663 Eh/α   predicted    -0.1759651E-03 ( -23.58%)
   displ. norm   :     0.4335595 α      lambda       -0.2154351E-03
   maximum displ.:     0.2701005 α      in ANC's #7, #13, #12, ...
 * RMSD in coord.:     0.5798252 α      energy gain  -0.1025488E+01 Eh

generating ANC from model Hessian ...
Using Lindh-Hessian (1995)
 Shifting diagonal of input Hessian by    1.0030394901210432E-002
 Lowest  eigenvalues of input Hessian
    0.010000    0.010014    0.010024    0.000000    0.000000    0.000000
    0.000000    0.000000    0.000000    0.010046    0.010111    0.010163
    0.010177    0.010400    0.010540    0.010557    0.010580    0.010724
 Highest eigenvalues
    2.107125    2.107314    2.134201    2.134211    2.369149    2.891747


........................................................................
.............................. CYCLE   21 ..............................
........................................................................
   1   -220.7384589 -0.220738E+03  0.309E-03    0.00       0.0  T
   2   -220.7367719  0.168700E-02  0.772E-02    0.01       1.0  T
   3   -220.7384591 -0.168721E-02  0.270E-03    0.00       3.4  T
   4   -220.7384612 -0.206988E-05  0.922E-04    0.00       9.9  T
   5   -220.7384614 -0.197005E-06  0.638E-04    0.00      14.3  T
   6   -220.7384615 -0.949746E-07  0.149E-04    0.00      61.1  T
   7   -220.7384615 -0.191241E-08  0.682E-05    0.00     133.9  T
     SCC iter.                  ...        0 min,  0.275 sec
     gradient                   ...        0 min,  0.274 sec
 * total energy  :  -217.5029546 Eh     change       -0.1680358E-03 Eh
   gradient norm :     0.0041712 Eh/α   predicted     0.0000000E+00 (-100.00%)
   displ. norm   :     0.0584125 α      lambda       -0.6020819E-04
   maximum displ.:     0.0252214 α      in ANC's #8, #19, #12, ...

........................................................................
.............................. CYCLE   22 ..............................
........................................................................
   1   -220.7398749 -0.220740E+03  0.271E-03    0.00       0.0  T
   2   -220.7376996  0.217529E-02  0.877E-02    0.01       1.0  T
   3   -220.7398760 -0.217637E-02  0.167E-03    0.00       5.5  T
   4   -220.7398766 -0.671676E-06  0.437E-04    0.00      20.9  T
   5   -220.7398766 -0.189678E-07  0.288E-04    0.00      31.7  T
   6   -220.7398767 -0.268370E-07  0.971E-05    0.00      94.0  T
   7   -220.7398767 -0.212603E-08  0.169E-05    0.00     541.5  T
     SCC iter.                  ...        0 min,  0.274 sec
     gradient                   ...        0 min,  0.276 sec
 * total energy  :  -217.5030126 Eh     change       -0.5802266E-04 Eh
   gradient norm :     0.0023880 Eh/α   predicted    -0.3398520E-04 ( -41.43%)
   displ. norm   :     0.2734736 α      lambda       -0.2305689E-03
   maximum displ.:     0.1171079 α      in ANC's #8, #19, #12, ...

........................................................................
.............................. CYCLE   23 ..............................
........................................................................
   1   -220.7423188 -0.220742E+03  0.989E-03    0.00       0.0  T
   2   -220.7143632  0.279557E-01  0.315E-01    0.04       1.0  T
   3   -220.7423406 -0.279774E-01  0.378E-03    0.00       2.4  T
   4   -220.7423437 -0.312403E-05  0.127E-03    0.00       7.2  T
   5   -220.7423441 -0.408654E-06  0.766E-04    0.00      11.9  T
   6   -220.7423443 -0.152950E-06  0.303E-04    0.00      30.1  T
   7   -220.7423443 -0.155269E-07  0.640E-05    0.00     142.6  T
   8   -220.7423443 -0.123910E-08  0.264E-05    0.00     346.4  T
     SCC iter.                  ...        0 min,  0.313 sec
     gradient                   ...        0 min,  0.276 sec
 * total energy  :  -217.5031015 Eh     change       -0.8887972E-04 Eh
   gradient norm :     0.0052612 Eh/α   predicted    -0.1239369E-03 (  39.44%)
   displ. norm   :     0.2188223 α      lambda       -0.2110790E-03
   maximum displ.:     0.0989363 α      in ANC's #19, #8, #12, ...

........................................................................
.............................. CYCLE   24 ..............................
........................................................................
   1   -220.7413279 -0.220741E+03  0.418E-03    0.00       0.0  T
   2   -220.7363950  0.493299E-02  0.132E-01    0.02       1.0  T
   3   -220.7413265 -0.493151E-02  0.451E-03    0.00       2.0  T
   4   -220.7413319 -0.544314E-05  0.854E-04    0.00      10.7  T
   5   -220.7413321 -0.176304E-06  0.459E-04    0.00      19.9  T
   6   -220.7413321 -0.420594E-07  0.241E-04    0.00      37.9  T
   7   -220.7413321 -0.147434E-07  0.274E-05    0.00     332.7  T
   8   -220.7413321 -0.165073E-09  0.108E-05    0.00     844.1  T
     SCC iter.                  ...        0 min,  0.314 sec
     gradient                   ...        0 min,  0.276 sec
 * total energy  :  -217.5031728 Eh     change       -0.7132212E-04 Eh
   gradient norm :     0.0066090 Eh/α   predicted    -0.1105976E-03 (  55.07%)
   displ. norm   :     0.0461146 α      lambda       -0.8611597E-04
   maximum displ.:     0.0227633 α      in ANC's #12, #8, #19, ...

........................................................................
.............................. CYCLE   25 ..............................
........................................................................
   1   -220.7405793 -0.220741E+03  0.226E-03    0.00       0.0  T
   2   -220.7393401  0.123927E-02  0.663E-02    0.01       1.0  T
   3   -220.7405794 -0.123929E-02  0.204E-03    0.00       4.5  T
   4   -220.7405804 -0.105761E-05  0.413E-04    0.00      22.1  T
   5   -220.7405804  0.899567E-08  0.322E-04    0.00      28.4  T
   6   -220.7405804 -0.380061E-07  0.969E-05    0.00      94.2  T
   7   -220.7405804 -0.206430E-08  0.172E-05    0.00     531.1  T
     SCC iter.                  ...        0 min,  0.275 sec
     gradient                   ...        0 min,  0.279 sec
 * total energy  :  -217.5032408 Eh     change       -0.6797593E-04 Eh
   gradient norm :     0.0041818 Eh/α   predicted    -0.4314985E-04 ( -36.52%)
   displ. norm   :     0.1820815 α      lambda       -0.1347979E-03
   maximum displ.:     0.0956451 α      in ANC's #12, #8, #19, ...

........................................................................
.............................. CYCLE   26 ..............................
........................................................................
   1   -220.7385651 -0.220739E+03  0.406E-03    0.00       0.0  T
   2   -220.7346885  0.387656E-02  0.117E-01    0.02       1.0  T
   3   -220.7385665 -0.387794E-02  0.297E-03    0.00       3.1  T
   4   -220.7385686 -0.213305E-05  0.728E-04    0.00      12.5  T
   5   -220.7385686  0.272008E-07  0.547E-04    0.00      16.7  T
   6   -220.7385687 -0.114166E-06  0.191E-04    0.00      47.9  T
   7   -220.7385687 -0.808168E-08  0.387E-05    0.00     235.7  T
     SCC iter.                  ...        0 min,  0.273 sec
     gradient                   ...        0 min,  0.296 sec
 * total energy  :  -217.5033307 Eh     change       -0.8988215E-04 Eh
   gradient norm :     0.0020001 Eh/α   predicted    -0.6963796E-04 ( -22.52%)
   displ. norm   :     0.2236117 α      lambda       -0.7631609E-04
   maximum displ.:     0.1159461 α      in ANC's #12, #8, #19, ...

........................................................................
.............................. CYCLE   27 ..............................
........................................................................
   1   -220.7373070 -0.220737E+03  0.141E-03    0.00       0.0  T
   2   -220.7371507  0.156360E-03  0.236E-02    0.00       1.0  T
   3   -220.7373060 -0.155334E-03  0.220E-03    0.00       4.1  T
   4   -220.7373073 -0.128285E-05  0.402E-04    0.00      22.7  T
   5   -220.7373073 -0.383409E-10  0.258E-04    0.00      35.4  T
   6   -220.7373073 -0.290678E-07  0.732E-05    0.00     124.7  T
   7   -220.7373073 -0.937746E-09  0.249E-05    0.00     367.3  T
     SCC iter.                  ...        0 min,  0.274 sec
     gradient                   ...        0 min,  0.279 sec
 * total energy  :  -217.5033908 Eh     change       -0.6011328E-04 Eh
   gradient norm :     0.0033349 Eh/α   predicted    -0.4006591E-04 ( -33.35%)
   displ. norm   :     0.2775139 α      lambda       -0.8745753E-04
   maximum displ.:     0.1460202 α      in ANC's #12, #8, #19, ...

........................................................................
.............................. CYCLE   28 ..............................
........................................................................
   1   -220.7369246 -0.220737E+03  0.112E-03    0.00       0.0  T
   2   -220.7367954  0.129249E-03  0.214E-02    0.00       1.0  T
   3   -220.7369242 -0.128842E-03  0.150E-03    0.00       6.1  T
   4   -220.7369248 -0.582228E-06  0.356E-04    0.00      25.6  T
   5   -220.7369248 -0.200124E-07  0.204E-04    0.00      44.7  T
   6   -220.7369248 -0.123843E-07  0.549E-05    0.00     166.3  T
   7   -220.7369248 -0.505537E-09  0.234E-05    0.00     390.1  T
     SCC iter.                  ...        0 min,  0.276 sec
     gradient                   ...        0 min,  0.293 sec
 * total energy  :  -217.5034630 Eh     change       -0.7214096E-04 Eh
   gradient norm :     0.0036045 Eh/α   predicted    -0.4709801E-04 ( -34.71%)
   displ. norm   :     0.3343336 α      lambda       -0.1008768E-03
   maximum displ.:     0.1813222 α      in ANC's #12, #8, #19, ...

........................................................................
.............................. CYCLE   29 ..............................
........................................................................
   1   -220.7373743 -0.220737E+03  0.116E-03    0.00       0.0  T
   2   -220.7373390  0.352767E-04  0.112E-02    0.00       1.0  T
   3   -220.7373718 -0.327233E-04  0.312E-03    0.00       2.9  T
   4   -220.7373744 -0.265527E-05  0.385E-04    0.00      23.7  T
   5   -220.7373744 -0.668263E-08  0.312E-04    0.00      29.3  T
   6   -220.7373745 -0.315410E-07  0.455E-05    0.00     200.7  T
   7   -220.7373745 -0.359762E-09  0.183E-05    0.00     499.3  T
     SCC iter.                  ...        0 min,  0.274 sec
     gradient                   ...        0 min,  0.278 sec
 * total energy  :  -217.5035421 Eh     change       -0.7918763E-04 Eh
   gradient norm :     0.0026924 Eh/α   predicted    -0.5607693E-04 ( -29.18%)
   displ. norm   :     0.3159576 α      lambda       -0.8014910E-04
   maximum displ.:     0.1790936 α      in ANC's #12, #8, #19, ...

........................................................................
.............................. CYCLE   30 ..............................
........................................................................
   1   -220.7381656 -0.220738E+03  0.131E-03    0.00       0.0  T
   2   -220.7379443  0.221263E-03  0.280E-02    0.00       1.0  T
   3   -220.7381653 -0.220980E-03  0.148E-03    0.00       6.2  T
   4   -220.7381658 -0.527879E-06  0.363E-04    0.00      25.1  T
   5   -220.7381659 -0.161322E-07  0.285E-04    0.00      32.1  T
   6   -220.7381659 -0.234045E-07  0.498E-05    0.00     183.5  T
   7   -220.7381659 -0.350639E-09  0.147E-05    0.00     622.3  T
     SCC iter.                  ...        0 min,  0.276 sec
     gradient                   ...        0 min,  0.281 sec
 * total energy  :  -217.5036047 Eh     change       -0.6255312E-04 Eh
   gradient norm :     0.0019284 Eh/α   predicted    -0.4407610E-04 ( -29.54%)
   displ. norm   :     0.4126046 α      lambda       -0.6223818E-04
   maximum displ.:     0.2434116 α      in ANC's #12, #8, #5, ...

........................................................................
.............................. CYCLE   31 ..............................
........................................................................
   1   -220.7391114 -0.220739E+03  0.171E-03    0.00       0.0  T
   2   -220.7386644  0.447037E-03  0.398E-02    0.01       1.0  T
   3   -220.7391107 -0.446367E-03  0.212E-03    0.00       4.3  T
   4   -220.7391119 -0.114838E-05  0.531E-04    0.00      17.2  T
   5   -220.7391120 -0.750269E-07  0.292E-04    0.00      31.3  T
   6   -220.7391120 -0.188158E-07  0.722E-05    0.00     126.4  T
   7   -220.7391120 -0.396057E-09  0.396E-05    0.00     230.3  T
     SCC iter.                  ...        0 min,  0.275 sec
     gradient                   ...        0 min,  0.278 sec
 * total energy  :  -217.5036705 Eh     change       -0.6578835E-04 Eh
   gradient norm :     0.0018140 Eh/α   predicted    -0.3347357E-04 ( -49.12%)
   displ. norm   :     0.2306865 α      lambda       -0.3412052E-04
   maximum displ.:     0.1439341 α      in ANC's #12, #8, #5, ...

........................................................................
.............................. CYCLE   32 ..............................
........................................................................
   1   -220.7394338 -0.220739E+03  0.102E-03    0.00       0.0  T
   2   -220.7393326  0.101183E-03  0.189E-02    0.00       1.0  T
   3   -220.7394329 -0.100236E-03  0.200E-03    0.00       4.6  T
   4   -220.7394339 -0.106284E-05  0.394E-04    0.00      23.2  T
   5   -220.7394340 -0.431387E-07  0.189E-04    0.00      48.4  T
   6   -220.7394340 -0.791903E-08  0.625E-05    0.00     146.1  T
     SCC iter.                  ...        0 min,  0.236 sec
     gradient                   ...        0 min,  0.276 sec
 * total energy  :  -217.5037107 Eh     change       -0.4022022E-04 Eh
   gradient norm :     0.0014207 Eh/α   predicted    -0.1746417E-04 ( -56.58%)
   displ. norm   :     0.2125068 α      lambda       -0.3479045E-04
   maximum displ.:     0.1315800 α      in ANC's #12, #5, #8, ...

........................................................................
.............................. CYCLE   33 ..............................
........................................................................
   1   -220.7398798 -0.220740E+03  0.101E-03    0.00       0.0  T
   2   -220.7398206  0.591780E-04  0.145E-02    0.00       1.0  T
   3   -220.7398792 -0.585766E-04  0.163E-03    0.00       5.6  T
   4   -220.7398799 -0.663457E-06  0.556E-04    0.00      16.4  T
   5   -220.7398799 -0.647445E-07  0.273E-04    0.00      33.4  T
   6   -220.7398800 -0.198635E-07  0.682E-05    0.00     133.9  T
   7   -220.7398800 -0.111740E-08  0.181E-05    0.00     505.7  T
     SCC iter.                  ...        0 min,  0.274 sec
     gradient                   ...        0 min,  0.277 sec
 * total energy  :  -217.5037477 Eh     change       -0.3696579E-04 Eh
   gradient norm :     0.0013660 Eh/α   predicted    -0.1774847E-04 ( -51.99%)
   displ. norm   :     0.2000053 α      lambda       -0.2975429E-04
   maximum displ.:     0.1259162 α      in ANC's #12, #5, #18, ...

........................................................................
.............................. CYCLE   34 ..............................
........................................................................
   1   -220.7391511 -0.220739E+03  0.886E-04    0.00       0.0  T
   2   -220.7391183  0.327628E-04  0.108E-02    0.00       1.0  T
   3   -220.7391493 -0.310308E-04  0.256E-03    0.00       3.6  T
   4   -220.7391511 -0.181356E-05  0.277E-04    0.00      33.0  T
   5   -220.7391511 -0.898325E-09  0.166E-04    0.00      55.2  T
   6   -220.7391511 -0.102234E-07  0.524E-05    0.00     174.2  T
     SCC iter.                  ...        0 min,  0.236 sec
     gradient                   ...        0 min,  0.280 sec
 * total energy  :  -217.5037793 Eh     change       -0.3161705E-04 Eh
   gradient norm :     0.0015234 Eh/α   predicted    -0.1514247E-04 ( -52.11%)
   displ. norm   :     0.1630181 α      lambda       -0.2118994E-04
   maximum displ.:     0.1010112 α      in ANC's #12, #5, #6, ...

........................................................................
.............................. CYCLE   35 ..............................
........................................................................
   1   -220.7392651 -0.220739E+03  0.810E-04    0.00       0.0  T
   2   -220.7391066  0.158508E-03  0.237E-02    0.00       1.0  T
   3   -220.7392650 -0.158428E-03  0.905E-04    0.00      10.1  T
   4   -220.7392652 -0.210357E-06  0.222E-04    0.00      41.2  T
   5   -220.7392652 -0.100435E-07  0.111E-04    0.00      82.1  T
   6   -220.7392653 -0.355371E-08  0.329E-05    0.00     277.7  T
     SCC iter.                  ...        0 min,  0.234 sec
     gradient                   ...        0 min,  0.277 sec
 * total energy  :  -217.5038052 Eh     change       -0.2594707E-04 Eh
   gradient norm :     0.0012783 Eh/α   predicted    -0.1072340E-04 ( -58.67%)
   displ. norm   :     0.1954838 α      lambda       -0.2417682E-04
   maximum displ.:     0.1228208 α      in ANC's #12, #6, #5, ...

........................................................................
.............................. CYCLE   36 ..............................
........................................................................
   1   -220.7385511 -0.220739E+03  0.675E-04    0.00       0.0  T
   2   -220.7385501  0.100862E-05  0.193E-03    0.00       4.7  T
   3   -220.7385374  0.127534E-04  0.700E-03    0.00       1.3  T
   4   -220.7385512 -0.137885E-04  0.271E-04    0.00      33.6  T
   5   -220.7385512 -0.205782E-07  0.122E-04    0.00      75.0  T
   6   -220.7385512 -0.279985E-08  0.514E-05    0.00     177.5  T
     SCC iter.                  ...        0 min,  0.236 sec
     gradient                   ...        0 min,  0.275 sec
 * total energy  :  -217.5038310 Eh     change       -0.2578102E-04 Eh
   gradient norm :     0.0010424 Eh/α   predicted    -0.1229417E-04 ( -52.31%)
   displ. norm   :     0.1469361 α      lambda       -0.1366971E-04
   maximum displ.:     0.0944722 α      in ANC's #12, #6, #19, ...

........................................................................
.............................. CYCLE   37 ..............................
........................................................................
   1   -220.7389090 -0.220739E+03  0.112E-03    0.00       0.0  T
   2   -220.7388690  0.400125E-04  0.119E-02    0.00       1.0  T
   3   -220.7389073 -0.382868E-04  0.258E-03    0.00       3.5  T
   4   -220.7389091 -0.178122E-05  0.377E-04    0.00      24.2  T
   5   -220.7389091 -0.140611E-07  0.193E-04    0.00      47.2  T
   6   -220.7389091 -0.163765E-07  0.507E-05    0.00     180.1  T
     SCC iter.                  ...        0 min,  0.236 sec
     gradient                   ...        0 min,  0.277 sec
 * total energy  :  -217.5038428 Eh     change       -0.1175679E-04 Eh
   gradient norm :     0.0016184 Eh/α   predicted    -0.6901254E-05 ( -41.30%)
   displ. norm   :     0.0864748 α      lambda       -0.6615265E-05
   maximum displ.:     0.0593674 α      in ANC's #12, #6, #5, ...

........................................................................
.............................. CYCLE   38 ..............................
........................................................................
   1   -220.7384124 -0.220738E+03  0.102E-03    0.00       0.0  T
   2   -220.7382037  0.208660E-03  0.272E-02    0.00       1.0  T
   3   -220.7384122 -0.208488E-03  0.115E-03    0.00       7.9  T
   4   -220.7384126 -0.337922E-06  0.224E-04    0.00      40.7  T
   5   -220.7384126 -0.928233E-08  0.117E-04    0.00      78.2  T
   6   -220.7384126 -0.433226E-08  0.355E-05    0.00     257.3  T
     SCC iter.                  ...        0 min,  0.235 sec
     gradient                   ...        0 min,  0.282 sec
 * total energy  :  -217.5038496 Eh     change       -0.6787108E-05 Eh
   gradient norm :     0.0006834 Eh/α   predicted    -0.3323140E-05 ( -51.04%)
   displ. norm   :     0.0880286 α      lambda        0.1599845E-05
   maximum displ.:     0.0604520 α      in ANC's #12, #6, #5, ...

........................................................................
.............................. CYCLE   39 ..............................
........................................................................
   1   -220.7378442 -0.220738E+03  0.104E-03    0.00       0.0  T
   2   -220.7376285  0.215637E-03  0.276E-02    0.00       1.0  T
   3   -220.7378440 -0.215475E-03  0.115E-03    0.00       7.9  T
   4   -220.7378443 -0.332843E-06  0.228E-04    0.00      40.1  T
   5   -220.7378443 -0.926389E-08  0.120E-04    0.00      76.3  T
   6   -220.7378444 -0.455802E-08  0.359E-05    0.00     254.1  T
     SCC iter.                  ...        0 min,  0.236 sec
     gradient                   ...        0 min,  0.295 sec
 * total energy  :  -217.5038500 Eh     change       -0.4821597E-06 Eh
   gradient norm :     0.0017924 Eh/α   predicted     0.8018501E-06 (-266.30%)
   displ. norm   :     0.0261950 α      lambda       -0.6039762E-05
   maximum displ.:     0.0144411 α      in ANC's #18, #27, #6, ...

........................................................................
.............................. CYCLE   40 ..............................
........................................................................
   1   -220.7381763 -0.220738E+03  0.559E-04    0.00       0.0  T
   2   -220.7381517  0.245564E-04  0.933E-03    0.00       1.0  T
   3   -220.7381761 -0.243781E-04  0.885E-04    0.00      10.3  T
   4   -220.7381763 -0.195145E-06  0.203E-04    0.00      45.0  T
   5   -220.7381763 -0.132069E-07  0.780E-05    0.00     117.0  T
   6   -220.7381763 -0.157644E-08  0.284E-05    0.00     321.4  T
     SCC iter.                  ...        0 min,  0.236 sec
     gradient                   ...        0 min,  0.278 sec
 * total energy  :  -217.5038571 Eh     change       -0.7072041E-05 Eh
   gradient norm :     0.0007990 Eh/α   predicted    -0.3022351E-05 ( -57.26%)
   displ. norm   :     0.0764458 α      lambda       -0.9994128E-05
   maximum displ.:     0.0357575 α      in ANC's #12, #18, #6, ...

........................................................................
.............................. CYCLE   41 ..............................
........................................................................
   1   -220.7389297 -0.220739E+03  0.806E-04    0.00       0.0  T
   2   -220.7388458  0.839112E-04  0.172E-02    0.00       1.0  T
   3   -220.7389290 -0.832782E-04  0.162E-03    0.00       5.6  T
   4   -220.7389297 -0.679166E-06  0.409E-04    0.00      22.3  T
   5   -220.7389298 -0.510456E-07  0.111E-04    0.00      82.4  T
   6   -220.7389298 -0.229292E-08  0.307E-05    0.00     297.8  T
     SCC iter.                  ...        0 min,  0.235 sec
     gradient                   ...        0 min,  0.278 sec
 * total energy  :  -217.5038668 Eh     change       -0.9686689E-05 Eh
   gradient norm :     0.0008250 Eh/α   predicted    -0.5013572E-05 ( -48.24%)
   displ. norm   :     0.0772447 α      lambda        0.1725695E-05
   maximum displ.:     0.0361718 α      in ANC's #12, #18, #6, ...

........................................................................
.............................. CYCLE   42 ..............................
........................................................................
   1   -220.7396012 -0.220740E+03  0.794E-04    0.00       0.0  T
   2   -220.7395175  0.837250E-04  0.172E-02    0.00       1.0  T
   3   -220.7396006 -0.831450E-04  0.156E-03    0.00       5.9  T
   4   -220.7396012 -0.628693E-06  0.403E-04    0.00      22.6  T
   5   -220.7396013 -0.492921E-07  0.112E-04    0.00      81.6  T
   6   -220.7396013 -0.231955E-08  0.305E-05    0.00     298.8  T
     SCC iter.                  ...        0 min,  0.237 sec
     gradient                   ...        0 min,  0.280 sec
 * total energy  :  -217.5038660 Eh     change        0.8157280E-06 Eh
   gradient norm :     0.0020134 Eh/α   predicted     0.8648077E-06 (   6.02%)
   displ. norm   :     0.0236229 α      lambda       -0.6153905E-05
   maximum displ.:     0.0127834 α      in ANC's #12, #6, #5, ...
 * RMSD in coord.:     0.2967686 α      energy gain  -0.1079402E-02 Eh

generating ANC from model Hessian ...
Using Lindh-Hessian (1995)
 Shifting diagonal of input Hessian by    1.0028040220970147E-002
 Lowest  eigenvalues of input Hessian
    0.010000    0.010010    0.010021    0.000000    0.000000    0.000000
    0.000000    0.000000    0.000000    0.010080    0.010104    0.010158
    0.010210    0.010405    0.010548    0.010551    0.010576    0.010716
 Highest eigenvalues
    2.106626    2.106873    2.136152    2.136157    2.364369    2.885505


........................................................................
.............................. CYCLE   43 ..............................
........................................................................
   1   -220.7392683 -0.220739E+03  0.368E-04    0.00       0.0  T
   2   -220.7392623  0.596602E-05  0.460E-03    0.00       2.0  T
   3   -220.7392683 -0.593147E-05  0.425E-04    0.00      21.5  T
   4   -220.7392683 -0.353828E-07  0.157E-04    0.00      58.0  T
   5   -220.7392683 -0.794753E-08  0.740E-05    0.00     123.4  T
     SCC iter.                  ...        0 min,  0.198 sec
     gradient                   ...        0 min,  0.279 sec
 * total energy  :  -217.5038709 Eh     change       -0.4890778E-05 Eh
   gradient norm :     0.0011388 Eh/α   predicted     0.0000000E+00 (-100.00%)
   displ. norm   :     0.0169669 α      lambda       -0.3364150E-05
   maximum displ.:     0.0078627 α      in ANC's #8, #13, #6, ...

........................................................................
.............................. CYCLE   44 ..............................
........................................................................
   1   -220.7389312 -0.220739E+03  0.567E-04    0.00       0.0  T
   2   -220.7389062  0.250539E-04  0.943E-03    0.00       1.0  T
   3   -220.7389311 -0.249627E-04  0.687E-04    0.00      13.3  T
   4   -220.7389312 -0.105531E-06  0.207E-04    0.00      44.1  T
   5   -220.7389312 -0.118012E-07  0.993E-05    0.00      92.0  T
   6   -220.7389312 -0.328669E-08  0.200E-05    0.00     457.2  T
     SCC iter.                  ...        0 min,  0.236 sec
     gradient                   ...        0 min,  0.277 sec
 * total energy  :  -217.5038745 Eh     change       -0.3575559E-05 Eh
   gradient norm :     0.0003708 Eh/α   predicted    -0.1757091E-05 ( -50.86%)
   displ. norm   :     0.0336891 α      lambda       -0.3238770E-05
   maximum displ.:     0.0165957 α      in ANC's #8, #13, #6, ...

   *** GEOMETRY OPTIMIZATION CONVERGED AFTER 44 ITERATIONS ***

------------------------------------------------------------------------
 total energy gain   :        -1.0265760 Eh     -644.1862 kcal/mol
 total RMSD          :         0.7751644 a0        0.4102 Å
 total power (kW/mol):       -61.2562469 (step)  -85.0462 (real)
------------------------------------------------------------------------

 ANCopt (total)                0 d,  0 h,  0 min, 31.692 sec
 optimizer setup                ...        0 min,  0.000 sec (  0.001%)
 model hessian                  ...        0 min,  0.126 sec (  0.399%)
 ANC generation                 ...        0 min,  0.061 sec (  0.191%)
 coordinate transformation      ...        0 min,  0.005 sec (  0.017%)
 single point calculation       ...        0 min, 31.452 sec ( 99.243%)
 optimization log               ...        0 min,  0.022 sec (  0.068%)
 hessian update                 ...        0 min,  0.005 sec (  0.016%)
 rational function              ...        0 min,  0.017 sec (  0.052%)

================
 final structure:
================
120
 xtb: 6.5.1 (b24c23e)
Cu          15.56037141313694       -0.05616249083795       -0.00563579548281
C           12.15543267604907       -0.09054572530377       -0.10000826332501
C           12.78936256659956       -1.32202169865787       -0.03040943247183
C           12.11275910123945       -2.58486537146204        0.04664406011046
C           13.07045415643132       -3.54128860168060        0.13279907099225
C           14.34219172423943       -2.87148635503561        0.09734698999076
N           14.13960567348004       -1.52458447254267        0.00394941847646
C           15.58588363306754       -3.50307397838661        0.17729410021521
C           15.59619413652445       -4.98476662207513        0.27224711498162
C           15.08037672132694       -5.76708139139639       -0.76109228749719
C           15.08489242668385       -7.15080118490625       -0.67230558915168
C           15.60319619638661       -7.76858012612773        0.46331898492632
O           15.62188661086134       -9.12055240180273        0.59440677979733
C           16.12001391026564       -6.99862947619656        1.50365645211690
C           16.11760820429173       -5.61868364102366        1.40256786287573
C           16.81848104408190       -2.84708533902141        0.17866949264238
C           18.09601371395716       -3.50112464559794        0.20549419749034
C           19.04254235836196       -2.52884533696348        0.17359394149538
N           17.00792928916691       -1.49132601811261        0.12061010824671
C           18.35167426219191       -1.27563467969193        0.12074160888995
C           18.98823374843242       -0.02337543654607        0.06084025455265
C           18.33096916630057        1.21744170317786       -0.01232793258028
C           19.00040212155862        2.48031520522071       -0.09929265455062
C           18.03738575033419        3.43504586367934       -0.15797936267193
C           16.77119325063627        2.76117223942310       -0.10009195101623
N           16.98379700235947        1.40998827433471       -0.02089746463062
C           15.52667832423622        3.39299468782927       -0.14675274507212
C           15.51068194186889        4.87642050793815       -0.19712641814741
C           16.05138218802571        5.62875822421009        0.84844371890390
C           16.03059523294213        7.01178508002574        0.81154556075695
C           15.47002015309293        7.66559189647976       -0.28409182239417
O           15.46721562549344        9.02395414503100       -0.28919779127005
C           14.93141446573335        6.92906769983781       -1.33641425565531
C           14.95106854045958        5.54365157348645       -1.28710087834848
C           14.29404804123413        2.73469837316428       -0.14971963453597
C           13.01058450037177        3.38270413086897       -0.15626720629857
C           12.06979060515402        2.40584341647075       -0.15305693171743
C           12.76852151644842        1.15303378867398       -0.13150548911902
N           14.11522546284690        1.38134217250958       -0.12523383342774
H           11.07035190827089       -0.10009490480285       -0.11461139334073
H           11.04119534266517       -2.70903824328122        0.04394386249269
H           12.93393539859398       -4.60675462868159        0.22565494783739
H           14.68737982186954       -5.28779215532814       -1.65089355861439
H           14.68841730563329       -7.75428227333063       -1.48191058783518
H           15.24316460231154       -9.55459150909812       -0.18186730326420
H           16.51602857770255       -7.49246268867313        2.38239364927088
H           16.50840862778673       -5.01925050500125        2.21720424695821
H           18.24589450970986       -4.56838522966916        0.23011899409195
H           20.11500751019198       -2.64097249591708        0.17905417964836
H           20.07076577951596        2.60975856573155       -0.11887513902149
H           18.16927176751423        4.50118184784611       -0.24787510573448
H           16.47595941506638        5.12054438945046        1.70702802109429
H           16.44259581379936        7.59728365856440        1.62416812016093
H           15.05523293604698        9.37180296770666       -1.09141297820116
H           14.50010170664301        7.44205841442207       -2.18939899257663
H           14.54246333099860        4.97171517110525       -2.11284087306893
H           12.85505509507041        4.44957067623537       -0.14960592254328
H           10.99614913386298        2.51045947222384       -0.15526187561126
Cu          29.02321804936197        0.05532581060072       -0.01328847401732
C           32.42815300410938        0.07632247622800       -0.10906458637358
C           31.79402377165583        1.30445972724118       -0.22214231079028
C           32.47042883598593        2.56481686082368       -0.33396580776746
C           31.51264985709356        3.52348458520751       -0.38825554326456
C           30.24103941833238        2.85588068201333       -0.32116650911278
N           30.44378691249020        1.50987201321259       -0.21582802218397
C           28.99747729507349        3.49265214837444       -0.32898203458616
C           28.98714492237991        4.97274950661359       -0.44733562820994
C           29.49542902928414        5.59906921309085       -1.58535462082189
C           29.49110319982342        6.98132591349951       -1.69496469156608
C           28.98070357510680        7.75525884120550       -0.65554436186708
O           28.96262886202157        9.11212361644419       -0.71861621704358
C           28.47134314431878        7.14210852597709        0.48760946171220
C           28.47342283033427        5.76186634497497        0.58449391939372
C           27.76504926079312        2.84413296260572       -0.22868476320198
C           26.48751666831888        3.49590512580367       -0.28968430853396
C           25.54103533795658        2.52919173823649       -0.18065754659610
N           27.57559840375573        1.49388518004028       -0.09361866431663
C           26.23191923361658        1.28080319750009       -0.05867320754891
C           25.59541519890462        0.03257800634313        0.05836909586375
C           26.25272480005646       -1.20625976770656        0.15953304235937
C           25.58330994002202       -2.46897007978520        0.24859106275860
C           26.54631118081076       -3.42234903290017        0.32646795905432
C           27.81249145338255       -2.74681649947928        0.29262324273219
N           27.59991080566561       -1.39794517018159        0.18056183958045
C           29.05704407866409       -3.37861486831539        0.34049418598085
C           29.07284820417242       -4.85384091897650        0.50323215722482
C           28.52402687545069       -5.44880168147295        1.64189204221335
C           28.54447904704912       -6.82276208331713        1.80404329320778
C           29.11317165327277       -7.62668291521465        0.81792003874278
O           29.11561502400432       -8.97168011268020        1.00796930029284
C           29.65995437697801       -7.04843372751385       -0.32514790713821
C           29.64033146541234       -5.67031404049664       -0.47545181874128
C           30.28979802924519       -2.72702593185276        0.24753130599117
C           31.57331131026676       -3.36842545035245        0.33948171107374
C           32.51406685979840       -2.40094385618800        0.20403600001822
C           31.81524085328975       -1.15867051314248        0.04098320974168
N           30.46853432485916       -1.38431293683349        0.07632560454669
H           33.51325151947430        0.08394411686786       -0.12360497963189
H           33.54194529194312        2.68717609460092       -0.35752181478505
H           31.64903846829024        4.59092425280994       -0.45490446683126
H           29.88249624786731        4.99739556513403       -2.40026236277523
H           29.88181574765193        7.46279756820187       -2.58511525680018
H           29.33594400746902        9.43061961412980       -1.55141071672929
H           28.08121959937473        7.75660104207541        1.28953288423718
H           28.08838532584137        5.28504970269228        1.47896205953008
H           26.33759427328994        4.55605421534394       -0.41508857918109
H           24.46857998300103        2.64138872653380       -0.18698714681324
H           24.51297932855428       -2.60008566686292        0.24473592270509
H           26.41435266383143       -4.49059297744555        0.38605953557588
H           28.09335328459706       -4.82293041174696        2.41553046239993
H           28.12604808766786       -7.28582258843916        2.68913797277457
H           29.53395852772938       -9.43080315147413        0.26738192765992
H           30.09756820920099       -7.67824912387761       -1.09234998726646
H           30.05512139443931       -5.22266357107459       -1.37182023398179
H           31.72899041872401       -4.42291358520866        0.50152778032681
H           33.58771078045083       -2.50422485149610        0.22069013313584
C           21.61664711010205       -0.00101549307150        0.06867910410369
C           20.39489632374881       -0.01158174698114        0.06587583844556
C           22.96695835285432        0.00985539700402        0.06814765466123
C           24.18874892162807        0.02166946416552        0.06502655058523

 Bond Distances (Angstroems)
 ---------------------------
Cu1-N7=2.0433        Cu1-N19=2.0423       Cu1-N26=2.0435       Cu1-N39=2.0419       C2-C3=1.3868         C2-C38=1.3869        
C2-H40=1.0852        C3-C2=1.3868         C3-C4=1.4347         C3-N7=1.3658         C4-C3=1.4347         C4-C5=1.3562         
C4-H41=1.0787        C5-C4=1.3562         C5-C6=1.4378         C5-H42=1.0782        C6-C5=1.4378         C6-N7=1.3653         
C6-C8=1.3972         N7-Cu1=2.0433        N7-C3=1.3658         N7-C6=1.3653         C8-C6=1.3972         C8-C9=1.4848         
C8-C16=1.3963        C9-C8=1.4848         C9-C10=1.3949        C9-C15=1.3969        C10-C9=1.3949        C10-C11=1.3866       
C10-H43=1.0844       C11-C10=1.3866       C11-C12=1.3928       C11-H44=1.0848       C12-C11=1.3928       C12-O13=1.3584       
C12-C14=1.3936       O13-C12=1.3584       O13-H45=0.9667       C14-C12=1.3936       C14-C15=1.3836       C14-H46=1.0830       
C15-C9=1.3969        C15-C14=1.3836       C15-H47=1.0843       C16-C8=1.3963        C16-C17=1.4355       C16-N19=1.3702       
C17-C16=1.4355       C17-C18=1.3573       C17-H48=1.0780       C18-C17=1.3573       C18-C20=1.4320       C18-H49=1.0783       
N19-Cu1=2.0423       N19-C16=1.3702       N19-C20=1.3609       C20-C18=1.4320       C20-N19=1.3609       C20-C21=1.4060       
C21-C20=1.4060       C21-C22=1.4061       C21-C118=1.4067      C22-C21=1.4061       C22-C23=1.4320       C22-N26=1.3609       
C23-C22=1.4320       C23-C24=1.3573       C23-H50=1.0783       C24-C23=1.3573       C24-C25=1.4355       C24-H51=1.0780       
C25-C24=1.4355       C25-N26=1.3701       C25-C27=1.3965       N26-Cu1=2.0435       N26-C22=1.3609       N26-C25=1.3701       
C27-C25=1.3965       C27-C28=1.4844       C27-C35=1.3974       C28-C27=1.4844       C28-C29=1.3970       C28-C34=1.3951       
C29-C28=1.3970       C29-C30=1.3837       C29-H52=1.0843       C30-C29=1.3837       C30-C31=1.3936       C30-H53=1.0830       
C31-C30=1.3936       C31-O32=1.3584       C31-C33=1.3928       O32-C31=1.3584       O32-H54=0.9666       C33-C31=1.3928       
C33-C34=1.3864       C33-H55=1.0848       C34-C28=1.3951       C34-C33=1.3864       C34-H56=1.0844       C35-C27=1.3974       
C35-C36=1.4378       C35-N39=1.3653       C36-C35=1.4378       C36-C37=1.3562       C36-H57=1.0782       C37-C36=1.3562       
C37-C38=1.4347       C37-H58=1.0787       C38-C2=1.3869        C38-C37=1.4347       C38-N39=1.3659       N39-Cu1=2.0419       
N39-C35=1.3653       N39-C38=1.3659       H40-C2=1.0852        H41-C4=1.0787        H42-C5=1.0782        H43-C10=1.0844       
H44-C11=1.0848       H45-O13=0.9667       H46-C14=1.0830       H47-C15=1.0843       H48-C17=1.0780       H49-C18=1.0783       
H50-C23=1.0783       H51-C24=1.0780       H52-C29=1.0843       H53-C30=1.0830       H54-O32=0.9666       H55-C33=1.0848       
H56-C34=1.0844       H57-C36=1.0782       H58-C37=1.0787       Cu59-N65=2.0432      Cu59-N77=2.0424      Cu59-N84=2.0434      
Cu59-N97=2.0419      C60-C61=1.3868       C60-C96=1.3869       C60-H98=1.0852       C61-C60=1.3868       C61-C62=1.4348       
C61-N65=1.3658       C62-C61=1.4348       C62-C63=1.3562       C62-H99=1.0787       C63-C62=1.3562       C63-C64=1.4378       
C63-H100=1.0782      C64-C63=1.4378       C64-N65=1.3653       C64-C66=1.3971       N65-Cu59=2.0432      N65-C61=1.3658       
N65-C64=1.3653       C66-C64=1.3971       C66-C67=1.4849       C66-C74=1.3963       C67-C66=1.4849       C67-C68=1.3949       
C67-C73=1.3969       C68-C67=1.3949       C68-C69=1.3866       C68-H101=1.0844      C69-C68=1.3866       C69-C70=1.3928       
C69-H102=1.0848      C70-C69=1.3928       C70-O71=1.3585       C70-C72=1.3936       O71-C70=1.3585       O71-H103=0.9666      
C72-C70=1.3936       C72-C73=1.3836       C72-H104=1.0830      C73-C67=1.3969       C73-C72=1.3836       C73-H105=1.0843      
C74-C66=1.3963       C74-C75=1.4355       C74-N77=1.3701       C75-C74=1.4355       C75-C76=1.3573       C75-H106=1.0780      
[...]
     4   6 C    3.955 --     5 C    1.654     3 C    1.171    41 H    0.976
     5   6 C    3.958 --     4 C    1.654     6 C    1.173    42 H    0.973
     6   6 C    3.913 --     8 C    1.319     7 N    1.239     5 C    1.173
     7   7 N    3.243 --     6 C    1.239     3 C    1.229     1 Cu   0.505
     8   6 C    3.935 --    16 C    1.327     6 C    1.319     9 C    1.026
     9   6 C    3.989 --    10 C    1.395    15 C    1.384     8 C    1.026
    10   6 C    3.988 --    11 C    1.451     9 C    1.395    43 H    0.973
                            14 C    0.105
    11   6 C    3.988 --    10 C    1.451    12 C    1.373    44 H    0.970
                            15 C    0.103
    12   6 C    3.901 --    11 C    1.373    14 C    1.365    13 O    1.039
    13   8 O    2.043 --    12 C    1.039    45 H    0.865
    14   6 C    3.990 --    15 C    1.466    12 C    1.365    46 H    0.971
                            10 C    0.105
    15   6 C    3.988 --    14 C    1.466     9 C    1.384    47 H    0.973
                            11 C    0.103
    16   6 C    3.908 --     8 C    1.327    19 N    1.221    17 C    1.180
    17   6 C    3.954 --    18 C    1.642    16 C    1.180    48 H    0.973
    18   6 C    3.956 --    17 C    1.642    20 C    1.187    49 H    0.974
    19   7 N    3.248 --    20 C    1.256    16 C    1.221     1 Cu   0.503
    20   6 C    3.899 --    21 C    1.260    19 N    1.256    18 C    1.187
    21   6 C    3.938 --    20 C    1.260    22 C    1.260   118 C    1.185
    22   6 C    3.899 --    21 C    1.260    26 N    1.257    23 C    1.187
    23   6 C    3.956 --    24 C    1.641    22 C    1.187    50 H    0.974
    24   6 C    3.955 --    23 C    1.641    25 C    1.180    51 H    0.973
    25   6 C    3.908 --    27 C    1.327    26 N    1.222    24 C    1.180
    26   7 N    3.248 --    22 C    1.257    25 C    1.222     1 Cu   0.503
    27   6 C    3.935 --    25 C    1.327    35 C    1.319    28 C    1.028
    28   6 C    3.989 --    34 C    1.394    29 C    1.384    27 C    1.028
    29   6 C    3.988 --    30 C    1.466    28 C    1.384    52 H    0.973
                            33 C    0.102
    30   6 C    3.990 --    29 C    1.466    31 C    1.365    53 H    0.971
                            34 C    0.105
    31   6 C    3.901 --    33 C    1.372    30 C    1.365    32 O    1.039
    32   8 O    2.043 --    31 C    1.039    54 H    0.865
    33   6 C    3.988 --    34 C    1.452    31 C    1.372    55 H    0.970
                            29 C    0.102
    34   6 C    3.988 --    33 C    1.452    28 C    1.394    56 H    0.973
                            30 C    0.105
    35   6 C    3.913 --    27 C    1.319    39 N    1.239    36 C    1.173
    36   6 C    3.958 --    37 C    1.654    35 C    1.173    57 H    0.973
    37   6 C    3.954 --    36 C    1.654    38 C    1.172    58 H    0.976
    38   6 C    3.918 --     2 C    1.361    39 N    1.229    37 C    1.172
    39   7 N    3.243 --    35 C    1.239    38 C    1.229     1 Cu   0.506
    40   1 H    1.002 --     2 C    0.971
    41   1 H    0.998 --     4 C    0.976
    42   1 H    1.005 --     5 C    0.973
    43   1 H    1.005 --    10 C    0.973
    44   1 H    0.999 --    11 C    0.970
    45   1 H    0.887 --    13 O    0.865
    46   1 H    0.999 --    14 C    0.971
    47   1 H    1.005 --    15 C    0.973
    48   1 H    1.005 --    17 C    0.973
    49   1 H    1.002 --    18 C    0.974
    50   1 H    1.002 --    23 C    0.974
    51   1 H    1.005 --    24 C    0.973
    52   1 H    1.005 --    29 C    0.973
    53   1 H    0.999 --    30 C    0.971
    54   1 H    0.887 --    32 O    0.865
    55   1 H    0.999 --    33 C    0.970
    56   1 H    1.005 --    34 C    0.973
    57   1 H    1.005 --    36 C    0.973
    58   1 H    0.998 --    37 C    0.976
    59  29 Cu   2.186 --    97 N    0.505    65 N    0.505    77 N    0.503
                            84 N    0.503
    60   6 C    3.928 --    61 C    1.361    96 C    1.361    98 H    0.971
    61   6 C    3.918 --    60 C    1.361    65 N    1.229    62 C    1.171
    62   6 C    3.955 --    63 C    1.654    61 C    1.171    99 H    0.976
    63   6 C    3.958 --    62 C    1.654    64 C    1.173   100 H    0.973
    64   6 C    3.913 --    66 C    1.319    65 N    1.239    63 C    1.173
    65   7 N    3.243 --    64 C    1.239    61 C    1.229    59 Cu   0.505
    66   6 C    3.935 --    74 C    1.327    64 C    1.319    67 C    1.026
    67   6 C    3.989 --    68 C    1.395    73 C    1.384    66 C    1.026
    68   6 C    3.988 --    69 C    1.451    67 C    1.395   101 H    0.973
                            72 C    0.105
    69   6 C    3.988 --    68 C    1.451    70 C    1.373   102 H    0.970
                            73 C    0.103
    70   6 C    3.901 --    69 C    1.373    72 C    1.365    71 O    1.039
    71   8 O    2.043 --    70 C    1.039   103 H    0.865
    72   6 C    3.990 --    73 C    1.466    70 C    1.365   104 H    0.971
                            68 C    0.105
    73   6 C    3.988 --    72 C    1.466    67 C    1.384   105 H    0.973
                            69 C    0.103
    74   6 C    3.908 --    66 C    1.327    77 N    1.221    75 C    1.180
    75   6 C    3.954 --    76 C    1.642    74 C    1.180   106 H    0.973
    76   6 C    3.956 --    75 C    1.642    78 C    1.187   107 H    0.974
    77   7 N    3.248 --    78 C    1.256    74 C    1.221    59 Cu   0.503
    78   6 C    3.899 --    79 C    1.260    77 N    1.256    76 C    1.187
    79   6 C    3.938 --    78 C    1.260    80 C    1.260   120 C    1.185
    80   6 C    3.899 --    79 C    1.260    84 N    1.256    81 C    1.187
    81   6 C    3.956 --    82 C    1.641    80 C    1.187   108 H    0.974
    82   6 C    3.955 --    81 C    1.641    83 C    1.180   109 H    0.973
    83   6 C    3.908 --    85 C    1.326    84 N    1.222    82 C    1.180
    84   7 N    3.248 --    80 C    1.256    83 C    1.222    59 Cu   0.503
    85   6 C    3.935 --    83 C    1.326    93 C    1.318    86 C    1.028
    86   6 C    3.989 --    92 C    1.394    87 C    1.384    85 C    1.028
    87   6 C    3.988 --    88 C    1.466    86 C    1.384   110 H    0.973
                            91 C    0.102
    88   6 C    3.990 --    87 C    1.466    89 C    1.365   111 H    0.971
                            92 C    0.105
    89   6 C    3.901 --    91 C    1.372    88 C    1.365    90 O    1.039
    90   8 O    2.043 --    89 C    1.039   112 H    0.865
    91   6 C    3.988 --    92 C    1.452    89 C    1.372   113 H    0.970
                            87 C    0.102
    92   6 C    3.988 --    91 C    1.452    86 C    1.394   114 H    0.973
                            88 C    0.105
    93   6 C    3.913 --    85 C    1.318    97 N    1.239    94 C    1.173
    94   6 C    3.958 --    95 C    1.654    93 C    1.173   115 H    0.973
    95   6 C    3.954 --    94 C    1.654    96 C    1.172   116 H    0.976
    96   6 C    3.918 --    60 C    1.361    97 N    1.229    95 C    1.172
    97   7 N    3.243 --    93 C    1.239    96 C    1.229    59 Cu   0.505
    98   1 H    1.002 --    60 C    0.971
    99   1 H    0.998 --    62 C    0.976
   100   1 H    1.005 --    63 C    0.973
   101   1 H    1.005 --    68 C    0.973
   102   1 H    0.999 --    69 C    0.970
   103   1 H    0.887 --    71 O    0.865
   104   1 H    0.999 --    72 C    0.971
   105   1 H    1.005 --    73 C    0.973
   106   1 H    1.005 --    75 C    0.973
   107   1 H    1.002 --    76 C    0.974
   108   1 H    1.002 --    81 C    0.974
   109   1 H    1.005 --    82 C    0.973
   110   1 H    1.005 --    87 C    0.973
   111   1 H    0.999 --    88 C    0.971
   112   1 H    0.887 --    90 O    0.865
   113   1 H    0.999 --    91 C    0.970
   114   1 H    1.005 --    92 C    0.973
   115   1 H    1.005 --    94 C    0.973
   116   1 H    0.998 --    95 C    0.976
   117   6 C    3.936 --   118 C    2.481   119 C    1.305
   118   6 C    3.927 --   117 C    2.481    21 C    1.185   120 C    0.200
   119   6 C    3.936 --   120 C    2.481   117 C    1.305
   120   6 C    3.927 --   119 C    2.481    79 C    1.185   118 C    0.200
 ---------------------------------------------------------------------------

Topologies differ in total number of bonds
Writing topology from bond orders to xtbtopo.mol

 dipole moment from electron density (au)
     X       Y       Z   
   0.0000  -0.1995  -2.7499  total (Debye):    7.008

           -------------------------------------------------
          |                Geometry Summary                 |
           -------------------------------------------------

      molecular mass/u    :     1158.1751150
   center of mass at/Å    :       22.2917806       0.0016915       0.0195279
  moments of inertia/u·Å² :        0.2215160E+05   0.5471335E+05   0.7626138E+05
rotational constants/cm⁻¹ :        0.7610121E-03   0.3081082E-03   0.2210507E-03

 * 124 selected distances

     #   Z          #   Z                                           value/Å
     2   6 C        3   6 C                                       1.3868109
     3   6 C        4   6 C                                       1.4347488
     4   6 C        5   6 C                                       1.3562257
     5   6 C        6   6 C                                       1.4377791
     3   6 C        7   7 N                                       1.3657851
     6   6 C        7   7 N                                       1.3652506
     6   6 C        8   6 C                                       1.3971630
     9   6 C       10   6 C                                       1.3949461
    10   6 C       11   6 C                                       1.3865729
    11   6 C       12   6 C                                       1.3928148
    12   6 C       13   8 O                                       1.3584413
    12   6 C       14   6 C                                       1.3936380
     9   6 C       15   6 C                                       1.3969069
    14   6 C       15   6 C                                       1.3836457
     8   6 C       16   6 C                                       1.3962878
    16   6 C       17   6 C                                       1.4354710
    17   6 C       18   6 C                                       1.3572993
    16   6 C       19   7 N                                       1.3701625
    18   6 C       20   6 C                                       1.4320019
    19   7 N       20   6 C                                       1.3609459
    20   6 C       21   6 C                                       1.4060404
    21   6 C       22   6 C                                       1.4060504
    22   6 C       23   6 C                                       1.4319753
    23   6 C       24   6 C                                       1.3573340
    24   6 C       25   6 C                                       1.4355140
    22   6 C       26   7 N                                       1.3608897
    25   6 C       26   7 N                                       1.3700987
    25   6 C       27   6 C                                       1.3964937
    28   6 C       29   6 C                                       1.3969918
    29   6 C       30   6 C                                       1.3836753
    30   6 C       31   6 C                                       1.3936030
    31   6 C       32   8 O                                       1.3583749
    31   6 C       33   6 C                                       1.3928197
    28   6 C       34   6 C                                       1.3951377
    33   6 C       34   6 C                                       1.3864329
    27   6 C       35   6 C                                       1.3974050
    35   6 C       36   6 C                                       1.4377877
    36   6 C       37   6 C                                       1.3562303
     2   6 C       38   6 C                                       1.3868527
    37   6 C       38   6 C                                       1.4346504
    35   6 C       39   7 N                                       1.3653389
    38   6 C       39   7 N                                       1.3659341
     2   6 C       40   1 H                                       1.0852211
     4   6 C       41   1 H                                       1.0787378
     5   6 C       42   1 H                                       1.0781826
    10   6 C       43   1 H                                       1.0843944
    11   6 C       44   1 H                                       1.0848237
    13   8 O       45   1 H                                       0.9666550
    14   6 C       46   1 H                                       1.0829950
    15   6 C       47   1 H                                       1.0842867
    17   6 C       48   1 H                                       1.0780148
    18   6 C       49   1 H                                       1.0783246
    23   6 C       50   1 H                                       1.0783402
    24   6 C       51   1 H                                       1.0780173
    29   6 C       52   1 H                                       1.0843036
    30   6 C       53   1 H                                       1.0830091
    32   8 O       54   1 H                                       0.9665805
    33   6 C       55   1 H                                       1.0847918
    34   6 C       56   1 H                                       1.0843967
    36   6 C       57   1 H                                       1.0781643
    37   6 C       58   1 H                                       1.0787287
    60   6 C       61   6 C                                       1.3868049
    61   6 C       62   6 C                                       1.4347574
    62   6 C       63   6 C                                       1.3562198
    63   6 C       64   6 C                                       1.4377724
    61   6 C       65   7 N                                       1.3657870
    64   6 C       65   7 N                                       1.3652628
    64   6 C       66   6 C                                       1.3971350
    67   6 C       68   6 C                                       1.3948895
    68   6 C       69   6 C                                       1.3866027
    69   6 C       70   6 C                                       1.3927939
    70   6 C       71   8 O                                       1.3584503
    70   6 C       72   6 C                                       1.3936292
    67   6 C       73   6 C                                       1.3968852
    72   6 C       73   6 C                                       1.3836400
    66   6 C       74   6 C                                       1.3962507
    74   6 C       75   6 C                                       1.4354852
    75   6 C       76   6 C                                       1.3572947
    74   6 C       77   7 N                                       1.3701474
    76   6 C       78   6 C                                       1.4320178
    77   7 N       78   6 C                                       1.3609185
    78   6 C       79   6 C                                       1.4060237
    79   6 C       80   6 C                                       1.4060617
    80   6 C       81   6 C                                       1.4319516
    81   6 C       82   6 C                                       1.3573386
    82   6 C       83   6 C                                       1.4355147
    80   6 C       84   7 N                                       1.3609173
    83   6 C       84   7 N                                       1.3701104
    83   6 C       85   6 C                                       1.3965573
    86   6 C       87   6 C                                       1.3970433
    87   6 C       88   6 C                                       1.3836469
    88   6 C       89   6 C                                       1.3936066
    89   6 C       90   8 O                                       1.3583602
    89   6 C       91   6 C                                       1.3928202
    86   6 C       92   6 C                                       1.3951660
    91   6 C       92   6 C                                       1.3864309
    85   6 C       93   6 C                                       1.3974594
    93   6 C       94   6 C                                       1.4377952 (max)
    94   6 C       95   6 C                                       1.3562402
    60   6 C       96   6 C                                       1.3868611
    95   6 C       96   6 C                                       1.4346384
    93   6 C       97   7 N                                       1.3653339
    96   6 C       97   7 N                                       1.3659365
    60   6 C       98   1 H                                       1.0852228
    62   6 C       99   1 H                                       1.0787374
    63   6 C      100   1 H                                       1.0781798
    68   6 C      101   1 H                                       1.0843925
    69   6 C      102   1 H                                       1.0848223
    71   8 O      103   1 H                                       0.9666182
    72   6 C      104   1 H                                       1.0829953
    73   6 C      105   1 H                                       1.0842885
    75   6 C      106   1 H                                       1.0780164
    76   6 C      107   1 H                                       1.0783269
    81   6 C      108   1 H                                       1.0783385
    82   6 C      109   1 H                                       1.0780118
    87   6 C      110   1 H                                       1.0843022
    88   6 C      111   1 H                                       1.0830061
    90   8 O      112   1 H                                       0.9665791 (min)
    91   6 C      113   1 H                                       1.0847915
    92   6 C      114   1 H                                       1.0843976
    94   6 C      115   1 H                                       1.0781653
    95   6 C      116   1 H                                       1.0787288
   117   6 C      118   6 C                                       1.2217998
   119   6 C      120   6 C                                       1.2218518

 * 5 distinct bonds (by element types)

   Z      Z             #   av. dist./Å        max./Å        min./Å
   1 H    6 C          34     1.0814546     1.0852228     1.0780118
   6 C    6 C          66     1.3939135     1.4377952     1.2217998
   6 C    7 N          16     1.3655512     1.3701625     1.3608897
   1 H    8 O           4     0.9666082     0.9666550     0.9665791
   6 C    8 O           4     1.3584067     1.3584503     1.3583602


optimized geometry written to: xtbopt.xyz


           -------------------------------------------------
          | TOTAL ENERGY             -217.503874452402 Eh   |
          | GRADIENT NORM               0.000370883404 Eh/α |
          | HOMO-LUMO GAP               0.000047938189 eV   |
           -------------------------------------------------

------------------------------------------------------------------------
 * finished run on 2022/07/30 at 08:54:37.607     
------------------------------------------------------------------------
 total:
 * wall-time:     0 d,  0 h,  0 min, 33.797 sec
 *  cpu-time:     0 d,  0 h,  0 min, 33.633 sec
 * ratio c/w:     0.995 speedup
 SCF:
 * wall-time:     0 d,  0 h,  0 min,  1.447 sec
 *  cpu-time:     0 d,  0 h,  0 min,  1.440 sec
 * ratio c/w:     0.995 speedup
 ANC optimizer:
 * wall-time:     0 d,  0 h,  0 min, 32.223 sec
 *  cpu-time:     0 d,  0 h,  0 min, 32.072 sec
 * ratio c/w:     0.995 speedup

