      -----------------------------------------------------------      
     |                   =====================                   |     
     |                           x T B                           |     
     |                   =====================                   |     
     |                         S. Grimme                         |     
     |          Mulliken Center for Theoretical Chemistry        |     
     |                    University of Bonn                     |     
      -----------------------------------------------------------      

   * xtb version 6.5.1 (b24c23e) compiled by 'conda@728c89f4b128' on 2022-07-12

   xtb is free software: you can redistribute it and/or modify it under
   the terms of the GNU Lesser General Public License as published by
   the Free Software Foundation, either version 3 of the License, or
   (at your option) any later version.
   
   xtb is distributed in the hope that it will be useful,
   but WITHOUT ANY WARRANTY; without even the implied warranty of
   MERCHANTABILITY or FITNESS FOR A PARTICULAR PURPOSE.  See the
   GNU Lesser General Public License for more details.
   
   Cite this work as:
   * C. Bannwarth, E. Caldeweyher, S. Ehlert, A. Hansen, P. Pracht,
     J. Seibert, S. Spicher, S. Grimme, WIREs Comput. Mol. Sci., 2020, 11,
     e01493. DOI: 10.1002/wcms.1493
   
   for GFN2-xTB:
   * C. Bannwarth, S. Ehlert and S. Grimme., J. Chem. Theory Comput., 2019,
     15, 1652-1671. DOI: 10.1021/acs.jctc.8b01176
   for GFN1-xTB:
   * S. Grimme, C. Bannwarth, P. Shushkov, J. Chem. Theory Comput., 2017,
     13, 1989-2009. DOI: 10.1021/acs.jctc.7b00118
   for GFN0-xTB:
   * P. Pracht, E. Caldeweyher, S. Ehlert, S. Grimme, ChemRxiv, 2019, preprint.
     DOI: 10.26434/chemrxiv.8326202.v1
   for GFN-FF:
   * S. Spicher and S. Grimme, Angew. Chem. Int. Ed., 2020, 59, 15665-15673.
     DOI: 10.1002/anie.202004239
   
   for ALPB and GBSA implicit solvation:
   * S. Ehlert, M. Stahn, S. Spicher, S. Grimme, J. Chem. Theory Comput.,
     2021, 17, 4250-4261. DOI: 10.1021/acs.jctc.1c00471
   
   for DFT-D4:
   * E. Caldeweyher, C. Bannwarth and S. Grimme, J. Chem. Phys., 2017,
     147, 034112. DOI: 10.1063/1.4993215
   * E. Caldeweyher, S. Ehlert, A. Hansen, H. Neugebauer, S. Spicher,
     C. Bannwarth and S. Grimme, J. Chem. Phys., 2019, 150, 154122.
     DOI: 10.1063/1.5090222
   * E. Caldeweyher, J.-M. Mewes, S. Ehlert and S. Grimme, Phys. Chem. Chem. Phys.
     2020, 22, 8499-8512. DOI: 10.1039/D0CP00502A
   
   for sTDA-xTB:
   * S. Grimme and C. Bannwarth, J. Chem. Phys., 2016, 145, 054103.
     DOI: 10.1063/1.4959605
   
   in the mass-spec context:
   * V. Asgeirsson, C. Bauer and S. Grimme, Chem. Sci., 2017, 8, 4879.
     DOI: 10.1039/c7sc00601b
   * J. Koopman and S. Grimme, ACS Omega 2019, 4, 12, 15120-15133.
     DOI: 10.1021/acsomega.9b02011
   
   for metadynamics refer to:
   * S. Grimme, J. Chem. Theory Comput., 2019, 155, 2847-2862
     DOI: 10.1021/acs.jctc.9b00143
   
   for SPH calculations refer to:
   * S. Spicher and S. Grimme, J. Chem. Theory Comput., 2021, 17, 1701-1714
     DOI: 10.1021/acs.jctc.0c01306
   
   with help from (in alphabetical order)
   P. Atkinson, C. Bannwarth, F. Bohle, G. Brandenburg, E. Caldeweyher
   M. Checinski, S. Dohm, S. Ehlert, S. Ehrlich, I. Gerasimov, C. Hölzer
   A. Katbashev, J. Koopman, C. Lavigne, S. Lehtola, F. März, M. Müller,
   F. Musil, H. Neugebauer, J. Pisarek, C. Plett, P. Pracht, F. Pultar,
   J. Seibert, P. Shushkov, S. Spicher, M. Stahn, M. Steiner, T. Strunk,
   J. Stückrath, T. Rose, and J. Unsleber
   
 * started run on 2022/07/29 at 22:42:26.111     

           -------------------------------------------------
          |                Calculation Setup                |
           -------------------------------------------------

          program call               : xtb Co_PhCHO_C6_3.xyz --gfn 1 --opt -T 48
          hostname                   : cx3-15-15.cx3.hpc.ic.ac.uk
          coordinate file            : Co_PhCHO_C6_3.xyz
          omp threads                :                     1

   ID    Z sym.   atoms
    1   27 Co     1, 61, 133
    2    6 C      2-6, 8-13, 15-19, 21-26, 28-33, 35-40, 62-66, 68-73, 75-79,
                  81-86, 88-93, 95-100, 121-132, 134-138, 140-145, 147-151,
                  153-158, 160-165, 167-172
    3    7 N      7, 20, 27, 41, 67, 80, 87, 101, 139, 152, 159, 173
    4    8 O      14, 34, 74, 94, 146, 166
    5    1 H      42-60, 102-120, 174-191

molecular fragmentation (1/2 indicates fragments):
111111111111111111111111111111111111111111111111111111111111222222222222
222222222222222222222222222222222222222222222222222222222222222222222222
22222222222222222222222222222222222222222222222
# atoms in fragment 1/2:    60   131
 fragment masses (1/2) :      574.47     1292.07
CMA distance (Bohr)    :  46.440
constraining FC (au)   :  0.0500
########################################################################
[WARNING] Please study the warnings concerning your input carefully
-1- prog_main_parseArguments: Unknown option '-T' provided
########################################################################

           -------------------------------------------------
          |                 G F N 1 - x T B                 |
           -------------------------------------------------

        Reference                      10.1021/acs.jctc.7b00118
      * Hamiltonian:
        H0-scaling (s, p, d)           1.850000    2.250000    2.000000
        zeta-weighting                 0.000000
      * Dispersion:
        s8                             2.400000
        a1                             0.630000
        a2                             5.000000
        s9                             0.000000
      * Repulsion:
        kExp                           1.500000
        rExp                           1.000000
      * Coulomb:
        alpha                          2.000000
        third order                    atomic
        anisotropic                    false
      * Halogen bond correction:
        rad-scale                      1.300000
        damping                        0.440000


          ...................................................
          :                      SETUP                      :
          :.................................................:
          :  # basis functions                 670          :
          :  # atomic orbitals                 667          :
          :  # shells                          385          :
          :  # electrons                       635          :
          :  # halogen bonds                     0          :
          :  max. iterations                   250          :
          :  Hamiltonian                  GFN1-xTB          :
          :  restarted?                      false          :
          :  GBSA solvation                  false          :
          :  PC potential                    false          :
          :  electronic temp.          300.0000000     K    :
          :  accuracy                    1.0000000          :
          :  -> integral cutoff          0.2500000E+02      :
          :  -> integral neglect         0.1000000E-07      :
          :  -> SCF convergence          0.1000000E-05 Eh   :
          :  -> wf. convergence          0.2000000E-04 e    :
          :  Broyden damping             0.4000000          :
          ...................................................

 iter      E             dE          RMSdq      gap      omega  full diag
   1   -350.7353409 -0.350735E+03  0.109E+01    0.34       0.0  T
   2   -305.8313551  0.449040E+02  0.117E+01    0.05       1.0  T
   3   -328.2494875 -0.224181E+02  0.780E+00    0.09       1.0  T
   4     39.6589858  0.367908E+03  0.124E+01    0.01       1.0  T
   5    744.4721335  0.704813E+03  0.159E+01    0.03       1.0  T
   6      2.2319170 -0.742240E+03  0.105E+01    0.07       1.0  T
   7   -341.8583722 -0.344090E+03  0.504E+00    0.26       1.0  T
   8   -345.0538410 -0.319547E+01  0.432E+00    0.07       1.0  T
   9   -349.3318932 -0.427805E+01  0.366E+00    0.10       1.0  T
  10   -350.8157075 -0.148381E+01  0.313E+00    0.14       1.0  T
  11   -350.9283514 -0.112644E+00  0.294E+00    0.11       1.0  T
  12   -351.0176412 -0.892898E-01  0.280E+00    0.13       1.0  T
  13   -351.3052391 -0.287598E+00  0.271E+00    0.34       1.0  T
  14   -351.0235230  0.281716E+00  0.262E+00    0.12       1.0  T
  15   -351.3802476 -0.356725E+00  0.207E+00    0.24       1.0  T
  16   -351.3792035  0.104416E-02  0.203E+00    0.15       1.0  T
  17   -351.8636350 -0.484432E+00  0.144E+00    0.23       1.0  T
  18   -352.1190486 -0.255414E+00  0.927E-01    0.10       1.0  T
  19   -351.9277114  0.191337E+00  0.977E-01    0.15       1.0  T
  20   -351.7293461  0.198365E+00  0.118E+00    0.09       1.0  T
  21   -351.6908509  0.384952E-01  0.119E+00    0.08       1.0  T
  22   -352.2922720 -0.601421E+00  0.668E-01    0.05       1.0  T
  23   -351.9238299  0.368442E+00  0.830E-01    0.15       1.0  T
  24   -352.2555875 -0.331758E+00  0.934E-01    0.01       1.0  T
  25   -352.3224669 -0.668794E-01  0.804E-01    0.03       1.0  T
  26   -352.1195290  0.202938E+00  0.102E+00    0.04       1.0  T
  27   -352.1515798 -0.320508E-01  0.981E-01    0.04       1.0  T
  28   -352.3823151 -0.230735E+00  0.754E-01    0.01       1.0  T
  29   -352.2536857  0.128629E+00  0.888E-01    0.03       1.0  T
  30   -351.6361021  0.617584E+00  0.135E+00    0.06       1.0  T
  31   -351.9224872 -0.286385E+00  0.113E+00    0.05       1.0  T
  32   -352.4633197 -0.540833E+00  0.484E-01    0.01       1.0  T
  33   -352.4075208  0.557990E-01  0.621E-01    0.01       1.0  T
  34   -352.4495407 -0.420199E-01  0.535E-01    0.04       1.0  T
  35   -352.5405549 -0.910142E-01  0.298E-01    0.01       1.0  T
  36   -352.4878227  0.527322E-01  0.467E-01    0.03       1.0  T
  37   -352.5841538 -0.963311E-01  0.136E-01    0.00       1.0  T
  38   -352.5903750 -0.622122E-02  0.652E-02    0.01       1.0  T
  39   -352.5767341  0.136409E-01  0.187E-01    0.00       1.0  T
  40   -352.5856814 -0.894729E-02  0.123E-01    0.01       1.0  T
  41   -352.5873203 -0.163891E-02  0.103E-01    0.01       1.0  T
  42   -352.5907331 -0.341277E-02  0.509E-02    0.01       1.0  T
  43   -352.5910991 -0.366037E-03  0.391E-02    0.01       1.0  T
  44   -352.5916570 -0.557893E-03  0.115E-02    0.01       1.0  T
  45   -352.5916534  0.362677E-05  0.107E-02    0.01       1.0  T
  46   -352.5916724 -0.190526E-04  0.896E-03    0.01       1.0  T
  47   -352.5916903 -0.178985E-04  0.679E-03    0.01       1.1  T
  48   -352.5916966 -0.622365E-05  0.517E-03    0.01       1.4  T
  49   -352.5916836  0.130021E-04  0.741E-03    0.01       1.0  T
  50   -352.5917044 -0.208111E-04  0.347E-03    0.01       2.1  T
  51   -352.5916941  0.102746E-04  0.490E-03    0.01       1.5  T
  52   -352.5917051 -0.110221E-04  0.249E-03    0.01       2.9  T
  53   -352.5917088 -0.366321E-05  0.864E-04    0.01       8.4  T
  54   -352.5917083  0.466741E-06  0.117E-03    0.01       6.2  T
  55   -352.5917081  0.215880E-06  0.144E-03    0.01       5.0  T
  56   -352.5917081 -0.280408E-07  0.133E-03    0.01       5.4  T
  57   -352.5917090 -0.867992E-06  0.333E-04    0.01      21.8  T
  58   -352.5917090 -0.355391E-07  0.249E-04    0.01      29.0  T
  59   -352.5917090 -0.225967E-07  0.670E-05    0.01     107.9  T
  60   -352.5917090  0.683110E-08  0.138E-04    0.01      52.4  T

   *** convergence criteria satisfied after 60 iterations ***

         #    Occupation            Energy/Eh            Energy/eV
      -------------------------------------------------------------
         1        2.0000           -0.7892093             -21.4755
       ...           ...                  ...                  ...
       312        2.0000           -0.4027757             -10.9601
       313        2.0000           -0.4027195             -10.9586
       314        1.8266           -0.3933946             -10.7048
       315        1.8241           -0.3933795             -10.7044
       316        1.7740           -0.3931090             -10.6970
       317        1.2669           -0.3916053             -10.6561
       318        1.2580           -0.3915858             -10.6556 (HOMO)
       319        1.0504           -0.3911518             -10.6438 (LUMO)
       320                         -0.3640924              -9.9075
       321                         -0.3633152              -9.8863
       322                         -0.3550540              -9.6615
       323                         -0.3489662              -9.4959
       ...                                ...                  ...
       667                          1.6305075              44.3684
      -------------------------------------------------------------
                  HL-Gap            0.0004340 Eh            0.0118 eV
             Fermi-level           -0.3910490 Eh          -10.6410 eV

 SCC (total)                   0 d,  0 h,  0 min,  7.862 sec
 SCC setup                      ...        0 min,  0.010 sec (  0.130%)
 Dispersion                     ...        0 min,  0.007 sec (  0.084%)
 classical contributions        ...        0 min,  0.002 sec (  0.027%)
 integral evaluation            ...        0 min,  0.194 sec (  2.463%)
 iterations                     ...        0 min,  7.190 sec ( 91.457%)
 molecular gradient             ...        0 min,  0.432 sec (  5.498%)
 printout                       ...        0 min,  0.027 sec (  0.341%)

         :::::::::::::::::::::::::::::::::::::::::::::::::::::
         ::                     SUMMARY                     ::
         :::::::::::::::::::::::::::::::::::::::::::::::::::::
         :: total energy            -347.140308268474 Eh    ::
         :: gradient norm              0.676974925303 Eh/a0 ::
         :: HOMO-LUMO gap              0.011810781836 eV    ::
         ::.................................................::
         :: SCC energy              -352.591709041655 Eh    ::
         :: -> electrostatic           0.486584475202 Eh    ::
         :: repulsion energy           5.618533329093 Eh    ::
         :: dispersion energy         -0.167132555911 Eh    ::
         :: halogen bond corr.         0.000000000000 Eh    ::
         :: add. restraining           0.000000000000 Eh    ::
         :: total charge               0.000000000002 e     ::
         :::::::::::::::::::::::::::::::::::::::::::::::::::::

      ----------------------------------------------------------- 
     |                   =====================                   |
     |                        A N C O P T                        |
     |                   =====================                   |
     |               Approximate Normal Coordinate               |
     |                Rational Function Optimizer                |
      ----------------------------------------------------------- 

          ...................................................
          :                      SETUP                      :
          :.................................................:
          :   optimization level            normal          :
          :   max. optcycles                   573          :
          :   ANC micro-cycles                  20          :
          :   degrees of freedom               567          :
          :.................................................:
          :   RF solver                   davidson          :
          :   write xtbopt.log                true          :
          :   linear?                        false          :
          :   energy convergence         0.5000000E-05 Eh   :
          :   grad. convergence          0.1000000E-02 Eh/α :
          :   maximium RF displ.         1.0000000          :
          :   Hlow (freq-cutoff)         0.1000000E-01      :
          :   Hmax (freq-cutoff)         5.0000000          :
          :   S6 in model hess.         20.0000000          :
          ...................................................

generating ANC from model Hessian ...
Using Lindh-Hessian (1995)
 Shifting diagonal of input Hessian by    1.0044379658159418E-002
 Lowest  eigenvalues of input Hessian
    0.010000    0.010013    0.010024    0.010027    0.010032    0.010033
    0.010039    0.010042    0.000000    0.000000    0.000000    0.000000
    0.000000    0.000000    0.010048    0.010054    0.010064    0.010145
 Highest eigenvalues
    2.176903    2.198795    2.639815    2.643222    3.034557    3.050993


........................................................................
.............................. CYCLE    1 ..............................
........................................................................
   1   -352.5917090 -0.352592E+03  0.437E-05    0.01       0.0  T
   2   -352.5917038  0.528786E-05  0.312E-03    0.01       2.3  T
   3   -352.5917090 -0.523563E-05  0.310E-04    0.01      23.3  T
   4   -352.5917090 -0.190937E-08  0.309E-04    0.01      23.4  T
   5   -352.5917090 -0.415198E-07  0.131E-04    0.01      55.1  T
   6   -352.5917090 -0.749549E-08  0.622E-05    0.01     116.3  T
     SCC iter.                  ...        0 min,  0.726 sec
     gradient                   ...        0 min,  0.452 sec
 * total energy  :  -347.1403083 Eh     change       -0.6740549E-08 Eh
   gradient norm :     0.6769757 Eh/α   predicted     0.0000000E+00 (-100.00%)
   displ. norm   :     0.4727353 α      lambda       -0.2487169E+00
   maximum displ.:     0.1269005 α      in ANC's #108, #451, #187, ...

........................................................................
.............................. CYCLE    2 ..............................
........................................................................
   1   -352.6099512 -0.352610E+03  0.249E-01    0.00       0.0  T
   2   -352.0341000  0.575851E+00  0.103E+00    0.20       1.0  T
   3   -352.2514898 -0.217390E+00  0.862E-01    0.03       1.0  T
   4   -351.4829575  0.768532E+00  0.146E+00    0.09       1.0  T
   5   -352.3985760 -0.915618E+00  0.643E-01    0.00       1.0  T
   6   -351.5549884  0.843588E+00  0.152E+00    0.10       1.0  T
   7   -351.8544963 -0.299508E+00  0.124E+00    0.05       1.0  T
   8   -352.4861385 -0.631642E+00  0.540E-01    0.00       1.0  T
   9   -352.5333062 -0.471678E-01  0.438E-01    0.00       1.0  T
  10   -352.6045368 -0.712305E-01  0.216E-01    0.02       1.0  T
  11   -352.6168918 -0.123550E-01  0.164E-01    0.00       1.0  T
  12   -352.6281607 -0.112689E-01  0.732E-02    0.00       1.0  T
  13   -352.6303373 -0.217653E-02  0.313E-02    0.01       1.0  T
  14   -352.6282278  0.210946E-02  0.720E-02    0.00       1.0  T
  15   -352.6290817 -0.853939E-03  0.585E-02    0.01       1.0  T
  16   -352.6305258 -0.144409E-02  0.270E-02    0.00       1.0  T
  17   -352.6304437  0.821488E-04  0.295E-02    0.01       1.0  T
  18   -352.6308863 -0.442609E-03  0.282E-03    0.00       2.6  T
  19   -352.6308500  0.363068E-04  0.882E-03    0.01       1.0  T
  20   -352.6308879 -0.379590E-04  0.201E-03    0.01       3.6  T
  21   -352.6308847  0.323369E-05  0.322E-03    0.01       2.2  T
  22   -352.6308893 -0.455736E-05  0.118E-03    0.01       6.1  T
  23   -352.6308900 -0.690570E-06  0.112E-04    0.00      64.3  T
  24   -352.6308900  0.529030E-08  0.152E-04    0.00      47.6  T
     SCC iter.                  ...        0 min,  2.873 sec
     gradient                   ...        0 min,  0.436 sec
 * total energy  :  -347.3225419 Eh     change       -0.1822336E+00 Eh
   gradient norm :     0.3189082 Eh/α   predicted    -0.1521987E+00 ( -16.48%)
   displ. norm   :     0.5801331 α      lambda       -0.1275087E+00
   maximum displ.:     0.2221908 α      in ANC's #108, #61, #187, ...

........................................................................
.............................. CYCLE    3 ..............................
........................................................................
   1   -352.6584519 -0.352658E+03  0.209E-01    0.00       0.0  T
   2   -352.1098018  0.548650E+00  0.101E+00    0.19       1.0  T
   3   -352.2861369 -0.176335E+00  0.886E-01    0.05       1.0  T
   4   -351.6192514  0.666885E+00  0.141E+00    0.15       1.0  T
   5   -352.4891118 -0.869860E+00  0.584E-01    0.02       1.0  T
   6   -351.6686421  0.820470E+00  0.147E+00    0.15       1.0  T
   7   -352.3955127 -0.726871E+00  0.759E-01    0.08       1.0  T
   8   -352.4464300 -0.509173E-01  0.680E-01    0.00       1.0  T
   9   -352.6682472 -0.221817E+00  0.934E-02    0.01       1.0  T
  10   -352.5991775  0.690698E-01  0.387E-01    0.00       1.0  T
  11   -352.6327286 -0.335512E-01  0.290E-01    0.02       1.0  T
  12   -352.6668661 -0.341374E-01  0.124E-01    0.00       1.0  T
  13   -352.6721950 -0.532897E-02  0.519E-02    0.00       1.0  T
  14   -352.6723179 -0.122887E-03  0.491E-02    0.00       1.0  T
  15   -352.6733238 -0.100592E-02  0.211E-02    0.00       1.0  T
  16   -352.6735406 -0.216769E-03  0.688E-03    0.00       1.1  T
  17   -352.6735588 -0.181767E-04  0.317E-03    0.00       2.3  T
  18   -352.6735272  0.316217E-04  0.843E-03    0.00       1.0  T
  19   -352.6735578 -0.306507E-04  0.344E-03    0.00       2.1  T
  20   -352.6735589 -0.104051E-05  0.321E-03    0.00       2.3  T
  21   -352.6735580  0.900723E-06  0.346E-03    0.00       2.1  T
  22   -352.6735631 -0.518658E-05  0.116E-03    0.00       6.2  T
  23   -352.6735637 -0.599065E-06  0.289E-04    0.00      25.1  T
  24   -352.6735637 -0.313861E-08  0.274E-04    0.00      26.4  T
  25   -352.6735638 -0.288636E-07  0.117E-04    0.00      61.6  T
  26   -352.6735638 -0.667671E-08  0.734E-06    0.00     985.8  T
     SCC iter.                  ...        0 min,  3.113 sec
     gradient                   ...        0 min,  0.436 sec
 * total energy  :  -347.4167705 Eh     change       -0.9422862E-01 Eh
   gradient norm :     0.1385692 Eh/α   predicted    -0.8521129E-01 (  -9.57%)
   displ. norm   :     0.7601655 α      lambda       -0.7272942E-01
   maximum displ.:     0.3844322 α      in ANC's #108, #61, #187, ...

........................................................................
.............................. CYCLE    4 ..............................
........................................................................
   1   -352.6837634 -0.352684E+03  0.136E-01    0.00       0.0  T
   2   -352.3626372  0.321126E+00  0.819E-01    0.16       1.0  T
   3   -352.3089398  0.536974E-01  0.876E-01    0.07       1.0  T
   4   -352.4425406 -0.133601E+00  0.692E-01    0.10       1.0  T
   5   -352.5650261 -0.122486E+00  0.516E-01    0.02       1.0  T
   6   -352.6352333 -0.702072E-01  0.315E-01    0.00       1.0  T
   7   -352.4791342  0.156099E+00  0.660E-01    0.08       1.0  T
   8   -352.6245413 -0.145407E+00  0.358E-01    0.01       1.0  T
   9   -352.6625821 -0.380409E-01  0.231E-01    0.02       1.0  T
  10   -352.6815623 -0.189801E-01  0.127E-01    0.00       1.0  T
  11   -352.6884602 -0.689795E-02  0.417E-02    0.00       1.0  T
  12   -352.6892453 -0.785110E-03  0.134E-02    0.00       1.0  T
  13   -352.6893290 -0.837082E-04  0.192E-03    0.00       3.8  T
  14   -352.6893301 -0.102804E-05  0.103E-03    0.00       7.0  T
  15   -352.6893292  0.846822E-06  0.170E-03    0.00       4.3  T
  16   -352.6893302 -0.100071E-05  0.880E-04    0.00       8.2  T
  17   -352.6893305 -0.244154E-06  0.502E-04    0.00      14.4  T
  18   -352.6893306 -0.102128E-06  0.191E-04    0.00      38.0  T
  19   -352.6893306 -0.153766E-07  0.620E-05    0.00     116.8  T
     SCC iter.                  ...        0 min,  2.281 sec
     gradient                   ...        0 min,  0.438 sec
 * total energy  :  -347.4800226 Eh     change       -0.6325204E-01 Eh
   gradient norm :     0.1007792 Eh/α   predicted    -0.5737815E-01 (  -9.29%)
   displ. norm   :     0.8876553 α      lambda       -0.6689347E-01
   maximum displ.:     0.4824804 α      in ANC's #108, #61, #24, ...

........................................................................
.............................. CYCLE    5 ..............................
........................................................................
   1   -352.6876331 -0.352688E+03  0.110E-01    0.00       0.0  T
   2   -352.4297528  0.257880E+00  0.757E-01    0.02       1.0  T
   3   -352.1744865  0.255266E+00  0.961E-01    0.09       1.0  T
   4   -352.4996945 -0.325208E+00  0.610E-01    0.08       1.0  T
   5   -352.6343407 -0.134646E+00  0.333E-01    0.04       1.0  T
   6   -352.6641677 -0.298270E-01  0.222E-01    0.01       1.0  T
   7   -352.5979272  0.662405E-01  0.447E-01    0.05       1.0  T
   8   -352.6049263 -0.699909E-02  0.408E-01    0.05       1.0  T
   9   -352.6608444 -0.559181E-01  0.264E-01    0.01       1.0  T
  10   -352.6894510 -0.286066E-01  0.498E-02    0.00       1.0  T
  11   -352.6904623 -0.101133E-02  0.374E-03    0.00       1.9  T
  12   -352.6902466  0.215730E-03  0.216E-02    0.00       1.0  T
  13   -352.6904477 -0.201055E-03  0.659E-03    0.00       1.1  T
  14   -352.6904682 -0.205080E-04  0.135E-03    0.00       5.4  T
  15   -352.6904689 -0.771915E-06  0.295E-04    0.00      24.5  T
  16   -352.6904689  0.662687E-07  0.427E-04    0.00      16.9  T
  17   -352.6904690 -0.781496E-07  0.210E-04    0.00      34.4  T
  18   -352.6904689  0.310196E-07  0.331E-04    0.00      21.8  T
  19   -352.6904690 -0.358094E-07  0.171E-04    0.00      42.3  T
  20   -352.6904690 -0.135492E-07  0.100E-05    0.00     721.0  T
     SCC iter.                  ...        0 min,  2.401 sec
     gradient                   ...        0 min,  0.441 sec
 * total energy  :  -347.5427059 Eh     change       -0.6268333E-01 Eh
   gradient norm :     0.1018334 Eh/α   predicted    -0.5980052E-01 (  -4.60%)
   displ. norm   :     0.9091977 α      lambda       -0.6302720E-01
   maximum displ.:     0.5113693 α      in ANC's #108, #61, #24, ...

........................................................................
.............................. CYCLE    6 ..............................
........................................................................
   1   -352.6832350 -0.352683E+03  0.953E-02    0.01       0.0  T
   2   -352.3778578  0.305377E+00  0.814E-01    0.01       1.0  T
   3   -352.4576157 -0.797579E-01  0.672E-01    0.09       1.0  T
   4   -352.4260844  0.315312E-01  0.712E-01    0.08       1.0  T
   5   -352.6103782 -0.184294E+00  0.388E-01    0.03       1.0  T
   6   -352.4039272  0.206451E+00  0.767E-01    0.13       1.0  T
   7   -352.3268939  0.770333E-01  0.842E-01    0.15       1.0  T
   8   -352.6834840 -0.356590E+00  0.669E-02    0.00       1.0  T
   9   -352.6699780  0.135060E-01  0.176E-01    0.01       1.0  T
  10   -352.6810149 -0.110370E-01  0.948E-02    0.01       1.0  T
  11   -352.6843526 -0.333768E-02  0.447E-02    0.00       1.0  T
  12   -352.6852368 -0.884187E-03  0.134E-02    0.00       1.0  T
  13   -352.6853254 -0.885935E-04  0.147E-03    0.00       4.9  T
  14   -352.6853072  0.181503E-04  0.617E-03    0.00       1.2  T
  15   -352.6853198 -0.125900E-04  0.368E-03    0.00       2.0  T
  16   -352.6853262 -0.635849E-05  0.690E-04    0.00      10.5  T
  17   -352.6853262 -0.184432E-07  0.678E-04    0.00      10.7  T
  18   -352.6853264 -0.220736E-06  0.899E-05    0.00      80.5  T
  19   -352.6853264 -0.153767E-08  0.738E-05    0.00      98.0  T
     SCC iter.                  ...        0 min,  2.282 sec
     gradient                   ...        0 min,  0.437 sec
 * total energy  :  -347.5935905 Eh     change       -0.5088461E-01 Eh
   gradient norm :     0.0811096 Eh/α   predicted    -0.5756403E-01 (  13.13%)
   displ. norm   :     0.7678612 α      lambda       -0.3511677E-01
   maximum displ.:     0.3798785 α      in ANC's #108, #61, #24, ...

........................................................................
.............................. CYCLE    7 ..............................
........................................................................
   1   -352.7225294 -0.352723E+03  0.352E-02    0.00       0.0  T
   2   -352.5627503  0.159779E+00  0.561E-01    0.07       1.0  T
   3   -352.6227799 -0.600297E-01  0.443E-01    0.06       1.0  T
   4   -352.7004858 -0.777059E-01  0.218E-01    0.02       1.0  T
   5   -352.6487037  0.517821E-01  0.385E-01    0.01       1.0  T
   6   -352.7191102 -0.704065E-01  0.876E-02    0.01       1.0  T
   7   -352.7187964  0.313754E-03  0.909E-02    0.01       1.0  T
   8   -352.7218593 -0.306286E-02  0.452E-02    0.01       1.0  T
   9   -352.7220968 -0.237570E-03  0.406E-02    0.00       1.0  T
  10   -352.7228521 -0.755239E-03  0.859E-03    0.00       1.0  T
  11   -352.7228844 -0.323210E-04  0.274E-03    0.00       2.6  T
  12   -352.7228837  0.641370E-06  0.298E-03    0.00       2.4  T
  13   -352.7228874 -0.366899E-05  0.114E-03    0.00       6.4  T
  14   -352.7228880 -0.615120E-06  0.169E-04    0.00      42.7  T
  15   -352.7228880 -0.128597E-07  0.607E-05    0.00     119.2  T
     SCC iter.                  ...        0 min,  1.813 sec
     gradient                   ...        0 min,  0.438 sec
 * total energy  :  -347.6217768 Eh     change       -0.2818634E-01 Eh
   gradient norm :     0.0669858 Eh/α   predicted    -0.2791102E-01 (  -0.98%)
   displ. norm   :     0.7537492 α      lambda       -0.2940923E-01
   maximum displ.:     0.3819845 α      in ANC's #61, #24, #108, ...

........................................................................
.............................. CYCLE    8 ..............................
........................................................................
   1   -352.7828293 -0.352783E+03  0.584E-02    0.00       0.0  T
   2   -351.9876614  0.795168E+00  0.124E+00    0.19       1.0  T
   3   -352.6575404 -0.669879E+00  0.510E-01    0.04       1.0  T
   4   -352.5999558  0.575845E-01  0.598E-01    0.05       1.0  T
   5   -352.7746747 -0.174719E+00  0.144E-01    0.00       1.0  T
   6   -352.7832864 -0.861170E-02  0.428E-02    0.00       1.0  T
   7   -352.7788499  0.443644E-02  0.104E-01    0.00       1.0  T
   8   -352.7826938 -0.384389E-02  0.527E-02    0.00       1.0  T
   9   -352.7745913  0.810246E-02  0.142E-01    0.01       1.0  T
  10   -352.7817251 -0.713380E-02  0.710E-02    0.01       1.0  T
  11   -352.7841476 -0.242249E-02  0.118E-02    0.00       1.0  T
  12   -352.7841554 -0.774730E-05  0.106E-02    0.00       1.0  T
  13   -352.7841741 -0.186806E-04  0.883E-03    0.00       1.0  T
  14   -352.7842077 -0.336701E-04  0.345E-03    0.00       2.1  T
  15   -352.7842119 -0.416733E-05  0.177E-03    0.00       4.1  T
  16   -352.7842133 -0.140113E-05  0.579E-04    0.00      12.5  T
  17   -352.7842133  0.614801E-08  0.582E-04    0.00      12.4  T
  18   -352.7842134 -0.152549E-06  0.152E-04    0.00      47.7  T
  19   -352.7842135 -0.109840E-07  0.259E-05    0.00     279.7  T
     SCC iter.                  ...        0 min,  2.290 sec
     gradient                   ...        0 min,  0.442 sec
 * total energy  :  -347.6444121 Eh     change       -0.2263523E-01 Eh
   gradient norm :     0.0424607 Eh/α   predicted    -0.2305888E-01 (   1.87%)
   displ. norm   :     0.8411747 α      lambda       -0.2088291E-01
   maximum displ.:     0.4416704 α      in ANC's #61, #24, #16, ...

........................................................................
.............................. CYCLE    9 ..............................
........................................................................
   1   -352.8314098 -0.352831E+03  0.881E-02    0.00       0.0  T
   2   -351.5140354  0.131737E+01  0.167E+00    0.27       1.0  T
   3   -352.7297086 -0.121567E+01  0.459E-01    0.01       1.0  T
   4   -352.7892784 -0.595698E-01  0.303E-01    0.03       1.0  T
   5   -352.6053021  0.183976E+00  0.691E-01    0.01       1.0  T
   6   -352.7541809 -0.148879E+00  0.413E-01    0.01       1.0  T
   7   -352.8062390 -0.520581E-01  0.242E-01    0.02       1.0  T
   8   -352.8349743 -0.287353E-01  0.122E-02    0.00       1.0  T
   9   -352.8347720  0.202364E-03  0.235E-02    0.00       1.0  T
  10   -352.8350194 -0.247425E-03  0.928E-03    0.00       1.0  T
  11   -352.8347477  0.271685E-03  0.250E-02    0.00       1.0  T
  12   -352.8350418 -0.294143E-03  0.648E-03    0.00       1.1  T
  13   -352.8350611 -0.192848E-04  0.241E-03    0.00       3.0  T
  14   -352.8350373  0.238581E-04  0.728E-03    0.00       1.0  T
  15   -352.8350583 -0.209819E-04  0.343E-03    0.00       2.1  T
  16   -352.8350643 -0.602816E-05  0.226E-04    0.00      32.1  T
  17   -352.8350642  0.497500E-07  0.363E-04    0.00      19.9  T
  18   -352.8350643 -0.655123E-07  0.586E-05    0.00     123.5  T
  19   -352.8350643  0.346288E-07  0.271E-04    0.00      26.7  T
  20   -352.8350643 -0.360986E-07  0.191E-05    0.00     378.3  T
     SCC iter.                  ...        0 min,  2.405 sec
     gradient                   ...        0 min,  0.441 sec
 * total energy  :  -347.6607981 Eh     change       -0.1638607E-01 Eh
   gradient norm :     0.0335776 Eh/α   predicted    -0.1782957E-01 (   8.81%)
   displ. norm   :     0.8902425 α      lambda       -0.1991942E-01
   maximum displ.:     0.4377441 α      in ANC's #61, #24, #15, ...

........................................................................
.............................. CYCLE   10 ..............................
........................................................................
   1   -352.8694557 -0.352869E+03  0.126E-01    0.00       0.0  T
   2   -351.4432547  0.142620E+01  0.176E+00    0.31       1.0  T
   3   -352.7640643 -0.132081E+01  0.474E-01    0.01       1.0  T
   4   -352.7891223 -0.250581E-01  0.424E-01    0.01       1.0  T
   5   -352.8755868 -0.864645E-01  0.411E-02    0.00       1.0  T
   6   -352.7479910  0.127596E+00  0.516E-01    0.00       1.0  T
   7   -352.8470596 -0.990685E-01  0.243E-01    0.03       1.0  T
   8   -352.8687561 -0.216965E-01  0.122E-01    0.01       1.0  T
   9   -352.8751540 -0.639783E-02  0.465E-02    0.00       1.0  T
  10   -352.8757505 -0.596558E-03  0.317E-02    0.00       1.0  T
  11   -352.8754667  0.283787E-03  0.400E-02    0.00       1.0  T
  12   -352.8759813 -0.514582E-03  0.238E-02    0.00       1.0  T
  13   -352.8761118 -0.130453E-03  0.173E-02    0.00       1.0  T
  14   -352.8761836 -0.718401E-04  0.125E-02    0.00       1.0  T
  15   -352.8762418 -0.581739E-04  0.635E-03    0.00       1.1  T
  16   -352.8762593 -0.175589E-04  0.229E-03    0.00       3.2  T
  17   -352.8762611 -0.181685E-05  0.128E-03    0.00       5.6  T
  18   -352.8762619 -0.783205E-06  0.281E-04    0.00      25.7  T
  19   -352.8762620 -0.381761E-07  0.523E-05    0.00     138.3  T
  20   -352.8762620 -0.872717E-09  0.319E-05    0.00     226.8  T
     SCC iter.                  ...        0 min,  2.418 sec
     gradient                   ...        0 min,  0.445 sec
 * total energy  :  -347.6730762 Eh     change       -0.1227804E-01 Eh
   gradient norm :     0.0460467 Eh/α   predicted    -0.1785311E-01 (  45.41%)
   displ. norm   :     0.7426543 α      lambda       -0.1523134E-01
   maximum displ.:     0.3887587 α      in ANC's #24, #61, #16, ...

........................................................................
.............................. CYCLE   11 ..............................
........................................................................
   1   -352.9202484 -0.352920E+03  0.865E-02    0.00       0.0  T
   2   -351.6242616  0.129599E+01  0.166E+00    0.29       1.0  T
   3   -352.8745634 -0.125030E+01  0.312E-01    0.01       1.0  T
   4   -352.8986846 -0.241212E-01  0.220E-01    0.01       1.0  T
   5   -352.9005528 -0.186820E-02  0.216E-01    0.01       1.0  T
   6   -352.9225749 -0.220221E-01  0.421E-02    0.00       1.0  T
   7   -352.8994223  0.231527E-01  0.224E-01    0.00       1.0  T
   8   -352.9141229 -0.147007E-01  0.137E-01    0.01       1.0  T
   9   -352.9231173 -0.899433E-02  0.287E-02    0.00       1.0  T
  10   -352.9227418  0.375503E-03  0.388E-02    0.00       1.0  T
  11   -352.9230618 -0.320032E-03  0.294E-02    0.00       1.0  T
  12   -352.9232799 -0.218128E-03  0.206E-02    0.00       1.0  T
  13   -352.9234176 -0.137660E-03  0.122E-02    0.00       1.0  T
  14   -352.9234517 -0.341271E-04  0.900E-03    0.00       1.0  T
  15   -352.9234885 -0.367461E-04  0.260E-03    0.00       2.8  T
  16   -352.9234917 -0.320258E-05  0.517E-04    0.00      14.0  T
  17   -352.9234918 -0.125806E-06  0.117E-04    0.00      61.8  T
  18   -352.9234918 -0.592831E-08  0.412E-05    0.00     175.5  T
     SCC iter.                  ...        0 min,  2.171 sec
     gradient                   ...        0 min,  0.439 sec
 * total energy  :  -347.6844525 Eh     change       -0.1137628E-01 Eh
   gradient norm :     0.0314240 Eh/α   predicted    -0.1181598E-01 (   3.87%)
   displ. norm   :     0.8378839 α      lambda       -0.1478454E-01
   maximum displ.:     0.4318170 α      in ANC's #24, #64, #61, ...

........................................................................
.............................. CYCLE   12 ..............................
........................................................................
   1   -352.9617333 -0.352962E+03  0.792E-02    0.00       0.0  T
   2   -351.7004786  0.126125E+01  0.163E+00    0.29       1.0  T
   3   -352.9274482 -0.122697E+01  0.271E-01    0.03       1.0  T
   4   -352.9249029  0.254534E-02  0.277E-01    0.03       1.0  T
   5   -352.9618698 -0.369670E-01  0.755E-02    0.00       1.0  T
   6   -352.9571139  0.475597E-02  0.119E-01    0.01       1.0  T
   7   -352.9143964  0.427174E-01  0.322E-01    0.00       1.0  T
   8   -352.9629329 -0.485365E-01  0.534E-02    0.01       1.0  T
   9   -352.9642260 -0.129304E-02  0.161E-02    0.00       1.0  T
  10   -352.9638853  0.340667E-03  0.300E-02    0.00       1.0  T
  11   -352.9642397 -0.354417E-03  0.141E-02    0.00       1.0  T
  12   -352.9642214  0.182810E-04  0.154E-02    0.00       1.0  T
  13   -352.9642808 -0.593394E-04  0.108E-02    0.00       1.0  T
  14   -352.9643311 -0.502711E-04  0.415E-03    0.00       1.7  T
  15   -352.9643381 -0.704879E-05  0.179E-03    0.00       4.1  T
  16   -352.9643396 -0.147061E-05  0.482E-04    0.00      15.0  T
  17   -352.9643397 -0.115135E-06  0.474E-05    0.00     152.5  T
  18   -352.9643397 -0.490843E-09  0.330E-05    0.00     219.5  T
     SCC iter.                  ...        0 min,  2.173 sec
     gradient                   ...        0 min,  0.444 sec
 * total energy  :  -347.6916956 Eh     change       -0.7243094E-02 Eh
   gradient norm :     0.0465149 Eh/α   predicted    -0.1258203E-01 (  73.71%)
   displ. norm   :     0.6838421 α      lambda       -0.1282754E-01
   maximum displ.:     0.3998735 α      in ANC's #24, #16, #15, ...

........................................................................
.............................. CYCLE   13 ..............................
........................................................................
   1   -352.9958416 -0.352996E+03  0.548E-02    0.00       0.0  T
   2   -352.2198168  0.776025E+00  0.127E+00    0.29       1.0  T
   3   -352.9382639 -0.718447E+00  0.347E-01    0.00       1.0  T
   4   -352.9898673 -0.516034E-01  0.117E-01    0.00       1.0  T
   5   -352.9669765  0.228909E-01  0.242E-01    0.01       1.0  T
   6   -352.9922855 -0.253091E-01  0.979E-02    0.00       1.0  T
   7   -352.9904982  0.178729E-02  0.114E-01    0.01       1.0  T
   8   -352.9947306 -0.423234E-02  0.674E-02    0.00       1.0  T
   9   -352.9965757 -0.184509E-02  0.243E-02    0.00       1.0  T
  10   -352.9968139 -0.238239E-03  0.938E-03    0.00       1.0  T
  11   -352.9968544 -0.404717E-04  0.269E-03    0.00       2.7  T
  12   -352.9968525  0.185653E-05  0.334E-03    0.00       2.2  T
  13   -352.9968528 -0.271181E-06  0.327E-03    0.00       2.2  T
  14   -352.9968572 -0.443805E-05  0.130E-03    0.00       5.6  T
  15   -352.9968579 -0.676437E-06  0.551E-04    0.00      13.1  T
  16   -352.9968581 -0.147554E-06  0.128E-05    0.00     565.7  T
  17   -352.9968581  0.247081E-08  0.732E-05    0.00      98.8  T
     SCC iter.                  ...        0 min,  2.057 sec
     gradient                   ...        0 min,  0.447 sec
 * total energy  :  -347.7017749 Eh     change       -0.1007935E-01 Eh
   gradient norm :     0.0251979 Eh/α   predicted    -0.9413107E-02 (  -6.61%)
   displ. norm   :     0.8137444 α      lambda       -0.1010008E-01
   maximum displ.:     0.4899350 α      in ANC's #24, #15, #16, ...

........................................................................
.............................. CYCLE   14 ..............................
........................................................................
   1   -353.0229963 -0.353023E+03  0.346E-02    0.00       0.0  T
   2   -352.7367637  0.286233E+00  0.775E-01    0.14       1.0  T
   3   -352.9267188 -0.189955E+00  0.443E-01    0.00       1.0  T
   4   -353.0151238 -0.884049E-01  0.128E-01    0.01       1.0  T
   5   -353.0093551  0.576860E-02  0.166E-01    0.02       1.0  T
   6   -353.0205181 -0.111629E-01  0.756E-02    0.01       1.0  T
   7   -353.0174008  0.311721E-02  0.110E-01    0.00       1.0  T
   8   -353.0228695 -0.546862E-02  0.303E-02    0.00       1.0  T
   9   -353.0226736  0.195829E-03  0.367E-02    0.00       1.0  T
  10   -353.0233354 -0.661784E-03  0.188E-03    0.00       3.8  T
  11   -353.0233359 -0.471620E-06  0.172E-03    0.00       4.2  T
  12   -353.0233359  0.179846E-07  0.171E-03    0.00       4.2  T
  13   -353.0233373 -0.138933E-05  0.180E-04    0.00      40.2  T
  14   -353.0233372  0.508297E-07  0.376E-04    0.00      19.3  T
  15   -353.0233373 -0.542487E-07  0.161E-04    0.00      44.9  T
  16   -353.0233373 -0.132283E-07  0.151E-05    0.00     479.4  T
     SCC iter.                  ...        0 min,  1.935 sec
     gradient                   ...        0 min,  0.447 sec
 * total energy  :  -347.7089978 Eh     change       -0.7222902E-02 Eh
   gradient norm :     0.0292806 Eh/α   predicted    -0.8394082E-02 (  16.21%)
   displ. norm   :     0.8215781 α      lambda       -0.1066935E-01
   maximum displ.:     0.4927787 α      in ANC's #24, #16, #15, ...

........................................................................
.............................. CYCLE   15 ..............................
........................................................................
   1   -353.0508872 -0.353051E+03  0.226E-02    0.00       0.0  T
   2   -352.7740689  0.276818E+00  0.752E-01    0.05       1.0  T
   3   -353.0361273 -0.262058E+00  0.173E-01    0.01       1.0  T
   4   -352.9806960  0.554313E-01  0.374E-01    0.02       1.0  T
   5   -353.0441396 -0.634436E-01  0.120E-01    0.00       1.0  T
   6   -353.0417999  0.233966E-02  0.138E-01    0.02       1.0  T
   7   -353.0399077  0.189223E-02  0.151E-01    0.00       1.0  T
   8   -353.0500026 -0.100949E-01  0.472E-02    0.00       1.0  T
   9   -353.0503224 -0.319849E-03  0.403E-02    0.00       1.0  T
  10   -353.0510145 -0.692091E-03  0.159E-02    0.00       1.0  T
  11   -353.0511328 -0.118307E-03  0.500E-03    0.00       1.4  T
  12   -353.0511442 -0.113852E-04  0.189E-03    0.00       3.8  T
  13   -353.0511456 -0.133857E-05  0.891E-04    0.00       8.1  T
  14   -353.0511459 -0.390234E-06  0.168E-04    0.00      43.1  T
  15   -353.0511460 -0.840305E-08  0.101E-04    0.00      71.5  T
     SCC iter.                  ...        0 min,  1.805 sec
     gradient                   ...        0 min,  0.445 sec
 * total energy  :  -347.7159382 Eh     change       -0.6940378E-02 Eh
   gradient norm :     0.0292830 Eh/α   predicted    -0.8935554E-02 (  28.75%)
   displ. norm   :     0.7509176 α      lambda       -0.9555331E-02
   maximum displ.:     0.4570399 α      in ANC's #24, #15, #16, ...

........................................................................
.............................. CYCLE   16 ..............................
........................................................................
   1   -353.0805693 -0.353081E+03  0.389E-02    0.01       0.0  T
   2   -352.7749714  0.305598E+00  0.800E-01    0.01       1.0  T
   3   -353.0663911 -0.291420E+00  0.173E-01    0.01       1.0  T
   4   -353.0565706  0.982056E-02  0.220E-01    0.02       1.0  T
   5   -353.0301798  0.263908E-01  0.327E-01    0.04       1.0  T
   6   -353.0324312 -0.225140E-02  0.315E-01    0.04       1.0  T
   7   -353.0643049 -0.318737E-01  0.187E-01    0.00       1.0  T
   8   -353.0811983 -0.168934E-01  0.172E-02    0.00       1.0  T
   9   -353.0812451 -0.468086E-04  0.146E-02    0.00       1.0  T
  10   -353.0813342 -0.890809E-04  0.596E-03    0.00       1.2  T
  11   -353.0812850  0.492143E-04  0.116E-02    0.00       1.0  T
  12   -353.0813505 -0.655131E-04  0.131E-03    0.00       5.5  T
  13   -353.0813513 -0.818283E-06  0.228E-04    0.00      31.8  T
  14   -353.0813513 -0.883847E-08  0.194E-04    0.00      37.4  T
  15   -353.0813513 -0.143168E-07  0.854E-05    0.00      84.7  T
     SCC iter.                  ...        0 min,  1.808 sec
     gradient                   ...        0 min,  0.448 sec
 * total energy  :  -347.7224189 Eh     change       -0.6480675E-02 Eh
   gradient norm :     0.0249539 Eh/α   predicted    -0.7471681E-02 (  15.29%)
   displ. norm   :     0.7768366 α      lambda       -0.8026545E-02
   maximum displ.:     0.4976772 α      in ANC's #24, #15, #16, ...

........................................................................
.............................. CYCLE   17 ..............................
........................................................................
   1   -353.1032227 -0.353103E+03  0.342E-02    0.01       0.0  T
   2   -352.8220667  0.281156E+00  0.763E-01    0.02       1.0  T
   3   -353.0799819 -0.257915E+00  0.238E-01    0.02       1.0  T
   4   -352.9999290  0.800529E-01  0.452E-01    0.02       1.0  T
   5   -353.1030461 -0.103117E+00  0.354E-02    0.00       1.0  T
   6   -353.1026353  0.410894E-03  0.448E-02    0.00       1.0  T
   7   -353.1010334  0.160182E-02  0.732E-02    0.01       1.0  T
   8   -353.1024607 -0.142727E-02  0.493E-02    0.00       1.0  T
   9   -353.1030765 -0.615790E-03  0.344E-02    0.01       1.0  T
  10   -353.1034836 -0.407071E-03  0.191E-02    0.00       1.0  T
  11   -353.1036251 -0.141556E-03  0.912E-03    0.00       1.0  T
  12   -353.1036631 -0.380149E-04  0.272E-03    0.00       2.7  T
  13   -353.1036668 -0.364361E-05  0.212E-04    0.00      34.2  T
  14   -353.1036668  0.790351E-09  0.222E-04    0.00      32.6  T
  15   -353.1036668 -0.205985E-07  0.817E-05    0.00      88.6  T
  16   -353.1036668 -0.296222E-08  0.231E-05    0.00     313.2  T
     SCC iter.                  ...        0 min,  1.932 sec
     gradient                   ...        0 min,  0.446 sec
 * total energy  :  -347.7290455 Eh     change       -0.6626634E-02 Eh
   gradient norm :     0.0169399 Eh/α   predicted    -0.6435182E-02 (  -2.89%)
   displ. norm   :     0.8602456 α      lambda       -0.7195367E-02
   maximum displ.:     0.5382706 α      in ANC's #24, #15, #16, ...

........................................................................
.............................. CYCLE   18 ..............................
........................................................................
   1   -353.1241843 -0.353124E+03  0.396E-02    0.00       0.0  T
   2   -352.7854322  0.338752E+00  0.838E-01    0.06       1.0  T
   3   -353.0522513 -0.266819E+00  0.378E-01    0.03       1.0  T
   4   -353.0927803 -0.405290E-01  0.259E-01    0.00       1.0  T
   5   -353.1223077 -0.295275E-01  0.707E-02    0.00       1.0  T
   6   -353.1219144  0.393329E-03  0.756E-02    0.00       1.0  T
   7   -353.1227796 -0.865196E-03  0.636E-02    0.00       1.0  T
   8   -353.1230135 -0.233910E-03  0.618E-02    0.01       1.0  T
   9   -353.1240097 -0.996196E-03  0.423E-02    0.00       1.0  T
  10   -353.1246713 -0.661598E-03  0.210E-02    0.00       1.0  T
  11   -353.1248119 -0.140549E-03  0.124E-02    0.00       1.0  T
  12   -353.1248855 -0.736758E-04  0.187E-03    0.00       3.9  T
  13   -353.1248871 -0.154157E-05  0.691E-04    0.00      10.5  T
  14   -353.1248870  0.460941E-07  0.753E-04    0.00       9.6  T
  15   -353.1248872 -0.202975E-06  0.393E-04    0.00      18.4  T
  16   -353.1248873 -0.687583E-07  0.108E-04    0.00      66.8  T
  17   -353.1248873 -0.541291E-08  0.242E-05    0.00     299.3  T
     SCC iter.                  ...        0 min,  2.048 sec
     gradient                   ...        0 min,  0.446 sec
 * total energy  :  -347.7349398 Eh     change       -0.5894252E-02 Eh
   gradient norm :     0.0181858 Eh/α   predicted    -0.6260054E-02 (   6.21%)
   displ. norm   :     0.8677441 α      lambda       -0.7331546E-02
   maximum displ.:     0.5361585 α      in ANC's #24, #15, #16, ...

........................................................................
.............................. CYCLE   19 ..............................
........................................................................
   1   -353.1431055 -0.353143E+03  0.503E-02    0.00       0.0  T
   2   -352.8189942  0.324111E+00  0.827E-01    0.02       1.0  T
   3   -353.1202835 -0.301289E+00  0.228E-01    0.00       1.0  T
   4   -353.0709489  0.493347E-01  0.382E-01    0.02       1.0  T
   5   -353.1432342 -0.722853E-01  0.441E-02    0.00       1.0  T
   6   -353.1414632  0.177101E-02  0.749E-02    0.00       1.0  T
   7   -353.1413793  0.839122E-04  0.747E-02    0.01       1.0  T
   8   -353.1396066  0.177268E-02  0.974E-02    0.01       1.0  T
   9   -353.1437321 -0.412553E-02  0.318E-02    0.00       1.0  T
  10   -353.1441341 -0.401963E-03  0.135E-02    0.00       1.0  T
  11   -353.1441918 -0.576677E-04  0.852E-03    0.00       1.0  T
  12   -353.1442271 -0.353323E-04  0.751E-04    0.00       9.6  T
  13   -353.1442269  0.246361E-06  0.106E-03    0.00       6.8  T
  14   -353.1442266  0.302675E-06  0.131E-03    0.00       5.5  T
  15   -353.1442273 -0.742554E-06  0.451E-04    0.00      16.1  T
  16   -353.1442274 -0.969430E-07  0.473E-05    0.00     152.9  T
  17   -353.1442274 -0.330260E-10  0.457E-05    0.00     158.4  T
     SCC iter.                  ...        0 min,  2.056 sec
     gradient                   ...        0 min,  0.450 sec
 * total energy  :  -347.7407193 Eh     change       -0.5779547E-02 Eh
   gradient norm :     0.0187340 Eh/α   predicted    -0.6426020E-02 (  11.19%)
   displ. norm   :     0.8632763 α      lambda       -0.6521966E-02
   maximum displ.:     0.5282732 α      in ANC's #24, #15, #16, ...

........................................................................
.............................. CYCLE   20 ..............................
........................................................................
   1   -353.1605709 -0.353161E+03  0.347E-02    0.00       0.0  T
   2   -352.8535147  0.307056E+00  0.798E-01    0.04       1.0  T
   3   -353.1252972 -0.271782E+00  0.280E-01    0.00       1.0  T
   4   -353.0532069  0.720903E-01  0.466E-01    0.01       1.0  T
   5   -353.1490153 -0.958084E-01  0.155E-01    0.00       1.0  T
   6   -353.1496073 -0.591957E-03  0.149E-01    0.01       1.0  T
   7   -353.1524288 -0.282153E-02  0.133E-01    0.01       1.0  T
   8   -353.1589699 -0.654108E-02  0.644E-02    0.01       1.0  T
   9   -353.1586121  0.357780E-03  0.706E-02    0.01       1.0  T
  10   -353.1604631 -0.185102E-02  0.342E-02    0.00       1.0  T
  11   -353.1610219 -0.558770E-03  0.900E-03    0.00       1.0  T
  12   -353.1610615 -0.396382E-04  0.127E-03    0.00       5.7  T
  13   -353.1610606  0.929013E-06  0.186E-03    0.00       3.9  T
  14   -353.1610619 -0.131514E-05  0.972E-04    0.00       7.4  T
  15   -353.1610623 -0.419790E-06  0.336E-04    0.00      21.5  T
  16   -353.1610624 -0.538103E-07  0.898E-05    0.00      80.6  T
  17   -353.1610624  0.140504E-07  0.194E-04    0.00      37.3  T
     SCC iter.                  ...        0 min,  2.051 sec
     gradient                   ...        0 min,  0.448 sec
 * total energy  :  -347.7461755 Eh     change       -0.5456239E-02 Eh
   gradient norm :     0.0232307 Eh/α   predicted    -0.5691214E-02 (   4.31%)
   displ. norm   :     0.8665157 α      lambda       -0.5993677E-02
   maximum displ.:     0.5236372 α      in ANC's #24, #15, #16, ...
 * RMSD in coord.:     0.8699698 α      energy gain  -0.6058673E+00 Eh

generating ANC from model Hessian ...
Using Lindh-Hessian (1995)
 Shifting diagonal of input Hessian by    1.0022731898473062E-002
 Lowest  eigenvalues of input Hessian
    0.010000    0.010006    0.010010    0.010013    0.010019    0.010020
    0.000000    0.000000    0.000000    0.000000    0.000000    0.000000
    0.010030    0.010039    0.010065    0.010071    0.010133    0.010151
 Highest eigenvalues
    2.244121    2.244341    2.538928    2.552264    2.849398    2.857047


........................................................................
.............................. CYCLE   21 ..............................
........................................................................
   1   -353.1750767 -0.353175E+03  0.163E-02    0.00       0.0  T
   2   -352.9821132  0.192963E+00  0.609E-01    0.07       1.0  T
   3   -353.1264091 -0.144296E+00  0.306E-01    0.03       1.0  T
   4   -353.1446906 -0.182815E-01  0.243E-01    0.03       1.0  T
   5   -353.1060690  0.386216E-01  0.375E-01    0.03       1.0  T
   6   -353.1708376 -0.647685E-01  0.960E-02    0.00       1.0  T
   7   -353.1645932  0.624442E-02  0.144E-01    0.01       1.0  T
   8   -353.1747459 -0.101527E-01  0.310E-02    0.00       1.0  T
   9   -353.1751987 -0.452872E-03  0.495E-03    0.00       1.5  T
  10   -353.1751503  0.484358E-04  0.108E-02    0.00       1.0  T
  11   -353.1752060 -0.557351E-04  0.297E-03    0.00       2.4  T
  12   -353.1752104 -0.435052E-05  0.647E-04    0.00      11.2  T
  13   -353.1752105 -0.689729E-07  0.511E-04    0.00      14.1  T
  14   -353.1752105 -0.829938E-07  0.305E-04    0.00      23.7  T
  15   -353.1752106 -0.404739E-07  0.103E-04    0.00      70.3  T
  16   -353.1752106 -0.474438E-08  0.287E-05    0.00     252.4  T
     SCC iter.                  ...        0 min,  1.926 sec
     gradient                   ...        0 min,  0.442 sec
 * total energy  :  -347.7507452 Eh     change       -0.4569636E-02 Eh
   gradient norm :     0.0287746 Eh/α   predicted     0.0000000E+00 (-100.00%)
   displ. norm   :     0.3918708 α      lambda       -0.2932132E-02
   maximum displ.:     0.3435554 α      in ANC's #30, #14, #26, ...

........................................................................
.............................. CYCLE   22 ..............................
........................................................................
   1   -353.1838527 -0.353184E+03  0.330E-02    0.00       0.0  T
   2   -352.6235191  0.560334E+00  0.106E+00    0.17       1.0  T
   3   -353.1520509 -0.528532E+00  0.252E-01    0.02       1.0  T
   4   -353.1835752 -0.315243E-01  0.441E-02    0.00       1.0  T
   5   -353.1811226  0.245262E-02  0.869E-02    0.00       1.0  T
   6   -353.1828480 -0.172546E-02  0.550E-02    0.00       1.0  T
   7   -353.1838283 -0.980245E-03  0.328E-02    0.00       1.0  T
   8   -353.1839370 -0.108689E-03  0.299E-02    0.00       1.0  T
   9   -353.1843160 -0.379027E-03  0.122E-02    0.00       1.0  T
  10   -353.1842453  0.706598E-04  0.168E-02    0.00       1.0  T
  11   -353.1843732 -0.127847E-03  0.491E-03    0.00       1.5  T
  12   -353.1843836 -0.104177E-04  0.118E-03    0.00       6.1  T
  13   -353.1843843 -0.678927E-06  0.750E-05    0.00      96.5  T
  14   -353.1843843 -0.430816E-09  0.720E-05    0.00     100.5  T
     SCC iter.                  ...        0 min,  1.688 sec
     gradient                   ...        0 min,  0.446 sec
 * total energy  :  -347.7532987 Eh     change       -0.2553532E-02 Eh
   gradient norm :     0.0138480 Eh/α   predicted    -0.1691962E-02 ( -33.74%)
   displ. norm   :     0.6169567 α      lambda       -0.3732764E-02
   maximum displ.:     0.5041664 α      in ANC's #30, #14, #18, ...

........................................................................
.............................. CYCLE   23 ..............................
........................................................................
   1   -353.1926162 -0.353193E+03  0.493E-02    0.00       0.0  T
   2   -352.3429076  0.849709E+00  0.131E+00    0.22       1.0  T
   3   -353.1292688 -0.786361E+00  0.360E-01    0.02       1.0  T
   4   -353.1812306 -0.519618E-01  0.163E-01    0.01       1.0  T
   5   -353.1831606 -0.192999E-02  0.147E-01    0.01       1.0  T
   6   -353.1930624 -0.990178E-02  0.378E-02    0.00       1.0  T
   7   -353.1928023  0.260093E-03  0.449E-02    0.00       1.0  T
   8   -353.1935941 -0.791809E-03  0.211E-02    0.00       1.0  T
   9   -353.1929815  0.612601E-03  0.408E-02    0.00       1.0  T
  10   -353.1936239 -0.642436E-03  0.187E-02    0.00       1.0  T
  11   -353.1937879 -0.164000E-03  0.336E-03    0.00       2.2  T
  12   -353.1937922 -0.427298E-05  0.167E-03    0.00       4.3  T
  13   -353.1937932 -0.100486E-05  0.882E-04    0.00       8.2  T
  14   -353.1937935 -0.320458E-06  0.385E-04    0.00      18.8  T
  15   -353.1937936 -0.486924E-07  0.216E-04    0.00      33.6  T
  16   -353.1937936 -0.186124E-07  0.892E-05    0.00      81.1  T
  17   -353.1937936 -0.205864E-08  0.595E-05    0.00     121.6  T
     SCC iter.                  ...        0 min,  2.044 sec
     gradient                   ...        0 min,  0.447 sec
 * total energy  :  -347.7559012 Eh     change       -0.2602465E-02 Eh
   gradient norm :     0.0164312 Eh/α   predicted    -0.2576812E-02 (  -0.99%)
   displ. norm   :     0.6401025 α      lambda       -0.3876147E-02
   maximum displ.:     0.4921781 α      in ANC's #30, #14, #25, ...

........................................................................
.............................. CYCLE   24 ..............................
........................................................................
   1   -353.2012976 -0.353201E+03  0.317E-02    0.00       0.0  T
   2   -352.6417771  0.559521E+00  0.106E+00    0.14       1.0  T
   3   -353.1964462 -0.554669E+00  0.116E-01    0.01       1.0  T
   4   -353.1458325  0.506137E-01  0.332E-01    0.02       1.0  T
   5   -353.1888339 -0.430014E-01  0.160E-01    0.01       1.0  T
   6   -353.1979157 -0.908188E-02  0.873E-02    0.00       1.0  T
   7   -353.2004364 -0.252063E-02  0.507E-02    0.01       1.0  T
   8   -353.2010885 -0.652162E-03  0.373E-02    0.00       1.0  T
   9   -353.2016962 -0.607703E-03  0.120E-02    0.00       1.0  T
  10   -353.2015432  0.153043E-03  0.219E-02    0.00       1.0  T
  11   -353.2017692 -0.225974E-03  0.233E-03    0.00       3.1  T
  12   -353.2017656  0.355931E-05  0.350E-03    0.00       2.1  T
  13   -353.2017718 -0.625195E-05  0.272E-04    0.00      26.6  T
  14   -353.2017719 -0.207414E-07  0.187E-04    0.00      38.8  T
  15   -353.2017719 -0.337855E-08  0.165E-04    0.00      43.8  T
     SCC iter.                  ...        0 min,  1.811 sec
     gradient                   ...        0 min,  0.451 sec
 * total energy  :  -347.7579179 Eh     change       -0.2016702E-02 Eh
   gradient norm :     0.0283466 Eh/α   predicted    -0.2732164E-02 (  35.48%)
   displ. norm   :     0.5216876 α      lambda       -0.3770411E-02
   maximum displ.:     0.3940620 α      in ANC's #30, #14, #26, ...

........................................................................
.............................. CYCLE   25 ..............................
........................................................................
   1   -353.2092296 -0.353209E+03  0.860E-03    0.00       0.0  T
   2   -353.1095630  0.996666E-01  0.456E-01    0.01       1.0  T
   3   -353.2085871 -0.990241E-01  0.368E-02    0.00       1.0  T
   4   -353.1972017  0.113854E-01  0.155E-01    0.00       1.0  T
   5   -353.2091374 -0.119356E-01  0.196E-02    0.00       1.0  T
   6   -353.2090861  0.512592E-04  0.188E-02    0.00       1.0  T
   7   -353.2092209 -0.134825E-03  0.886E-03    0.00       1.0  T
   8   -353.2092425 -0.215482E-04  0.566E-03    0.00       1.3  T
   9   -353.2092543 -0.118413E-04  0.295E-03    0.00       2.5  T
  10   -353.2092583 -0.403276E-05  0.183E-04    0.00      39.6  T
  11   -353.2092583  0.691864E-07  0.427E-04    0.00      16.9  T
  12   -353.2092583 -0.733218E-07  0.171E-04    0.00      42.4  T
  13   -353.2092584 -0.640853E-08  0.122E-04    0.00      59.4  T
     SCC iter.                  ...        0 min,  1.573 sec
     gradient                   ...        0 min,  0.450 sec
 * total energy  :  -347.7603408 Eh     change       -0.2422939E-02 Eh
   gradient norm :     0.0259045 Eh/α   predicted    -0.2398280E-02 (  -1.02%)
   displ. norm   :     0.5376514 α      lambda       -0.2889811E-02
   maximum displ.:     0.4022295 α      in ANC's #30, #14, #26, ...

........................................................................
.............................. CYCLE   26 ..............................
........................................................................
   1   -353.2168595 -0.353217E+03  0.107E-02    0.00       0.0  T
   2   -353.0792597  0.137600E+00  0.532E-01    0.03       1.0  T
   3   -353.2157978 -0.136538E+00  0.515E-02    0.01       1.0  T
   4   -353.1958459  0.199519E-01  0.205E-01    0.01       1.0  T
   5   -353.2166277 -0.207818E-01  0.244E-02    0.00       1.0  T
   6   -353.2160528  0.574886E-03  0.413E-02    0.00       1.0  T
   7   -353.2166095 -0.556681E-03  0.240E-02    0.00       1.0  T
   8   -353.2168820 -0.272480E-03  0.773E-03    0.00       1.0  T
   9   -353.2169089 -0.269151E-04  0.162E-03    0.00       4.5  T
  10   -353.2169063  0.262348E-05  0.276E-03    0.00       2.6  T
  11   -353.2169100 -0.366868E-05  0.629E-04    0.00      11.5  T
  12   -353.2169102 -0.190929E-06  0.139E-04    0.00      52.1  T
  13   -353.2169102 -0.191966E-08  0.122E-04    0.00      59.3  T
     SCC iter.                  ...        0 min,  1.571 sec
     gradient                   ...        0 min,  0.452 sec
 * total energy  :  -347.7624992 Eh     change       -0.2158400E-02 Eh
   gradient norm :     0.0191241 Eh/α   predicted    -0.1862585E-02 ( -13.71%)
   displ. norm   :     0.6324287 α      lambda       -0.3926035E-02
   maximum displ.:     0.4578422 α      in ANC's #30, #14, #16, ...

........................................................................
.............................. CYCLE   27 ..............................
........................................................................
   1   -353.2249370 -0.353225E+03  0.297E-02    0.00       0.0  T
   2   -352.9283775  0.296560E+00  0.785E-01    0.04       1.0  T
   3   -353.2069925 -0.278615E+00  0.201E-01    0.01       1.0  T
   4   -353.1057908  0.101202E+00  0.490E-01    0.02       1.0  T
   5   -353.2217827 -0.115992E+00  0.822E-02    0.01       1.0  T
   6   -353.2182857  0.349700E-02  0.116E-01    0.01       1.0  T
   7   -353.2209380 -0.265225E-02  0.917E-02    0.01       1.0  T
   8   -353.2245715 -0.363349E-02  0.388E-02    0.00       1.0  T
   9   -353.2247603 -0.188878E-03  0.334E-02    0.00       1.0  T
  10   -353.2251494 -0.389111E-03  0.185E-02    0.00       1.0  T
  11   -353.2252409 -0.915024E-04  0.125E-02    0.00       1.0  T
  12   -353.2253071 -0.661642E-04  0.451E-03    0.00       1.6  T
  13   -353.2253160 -0.886038E-05  0.147E-03    0.00       4.9  T
  14   -353.2253170 -0.103780E-05  0.309E-04    0.00      23.4  T
  15   -353.2253170 -0.244212E-07  0.219E-04    0.00      33.1  T
  16   -353.2253171 -0.200207E-07  0.758E-05    0.00      95.5  T
  17   -353.2253171 -0.918817E-09  0.658E-05    0.00     110.0  T
     SCC iter.                  ...        0 min,  2.055 sec
     gradient                   ...        0 min,  0.455 sec
 * total energy  :  -347.7641856 Eh     change       -0.1686376E-02 Eh
   gradient norm :     0.0177125 Eh/α   predicted    -0.2748158E-02 (  62.96%)
   displ. norm   :     0.5434478 α      lambda       -0.3318201E-02
   maximum displ.:     0.3717441 α      in ANC's #30, #14, #16, ...

........................................................................
.............................. CYCLE   28 ..............................
........................................................................
   1   -353.2340972 -0.353234E+03  0.214E-02    0.00       0.0  T
   2   -352.9954382  0.238659E+00  0.705E-01    0.00       1.0  T
   3   -353.2304824 -0.235044E+00  0.107E-01    0.00       1.0  T
   4   -353.2316729 -0.119047E-02  0.723E-02    0.01       1.0  T
   5   -353.2239854  0.768752E-02  0.142E-01    0.01       1.0  T
   6   -353.2336728 -0.968741E-02  0.358E-02    0.00       1.0  T
   7   -353.2339630 -0.290239E-03  0.257E-02    0.00       1.0  T
   8   -353.2342362 -0.273219E-03  0.113E-02    0.00       1.0  T
   9   -353.2342865 -0.502232E-04  0.486E-03    0.00       1.5  T
  10   -353.2342976 -0.111324E-04  0.113E-03    0.00       6.4  T
  11   -353.2342982 -0.619650E-06  0.200E-04    0.00      36.2  T
  12   -353.2342982  0.175743E-08  0.206E-04    0.00      35.0  T
  13   -353.2342982 -0.184558E-07  0.674E-05    0.00     107.4  T
     SCC iter.                  ...        0 min,  1.573 sec
     gradient                   ...        0 min,  0.451 sec
 * total energy  :  -347.7661537 Eh     change       -0.1968061E-02 Eh
   gradient norm :     0.0151857 Eh/α   predicted    -0.2149096E-02 (   9.20%)
   displ. norm   :     0.6105941 α      lambda       -0.3568047E-02
   maximum displ.:     0.4028145 α      in ANC's #30, #14, #43, ...

........................................................................
.............................. CYCLE   29 ..............................
........................................................................
   1   -353.2411298 -0.353241E+03  0.173E-02    0.00       0.0  T
   2   -353.0288487  0.212281E+00  0.663E-01    0.02       1.0  T
   3   -353.2386269 -0.209778E+00  0.849E-02    0.00       1.0  T
   4   -353.2061052  0.325217E-01  0.264E-01    0.01       1.0  T
   5   -353.2403303 -0.342251E-01  0.439E-02    0.00       1.0  T
   6   -353.2412322 -0.901895E-03  0.861E-03    0.00       1.0  T
   7   -353.2412205  0.117555E-04  0.923E-03    0.00       1.0  T
   8   -353.2412475 -0.270303E-04  0.520E-03    0.00       1.4  T
   9   -353.2412487 -0.119166E-05  0.482E-03    0.00       1.5  T
  10   -353.2412592 -0.105035E-04  0.158E-03    0.00       4.6  T
  11   -353.2412604 -0.124066E-05  0.248E-04    0.00      29.2  T
  12   -353.2412605 -0.310724E-07  0.513E-05    0.00     141.0  T
  13   -353.2412604  0.114285E-07  0.163E-04    0.00      44.4  T
     SCC iter.                  ...        0 min,  1.572 sec
     gradient                   ...        0 min,  0.451 sec
 * total energy  :  -347.7674281 Eh     change       -0.1274480E-02 Eh
   gradient norm :     0.0155854 Eh/α   predicted    -0.2449157E-02 (  92.17%)
   displ. norm   :     0.5278273 α      lambda       -0.2960579E-02
   maximum displ.:     0.3574315 α      in ANC's #30, #14, #26, ...

........................................................................
.............................. CYCLE   30 ..............................
........................................................................
   1   -353.2506851 -0.353251E+03  0.133E-02    0.00       0.0  T
   2   -353.1546940  0.959912E-01  0.444E-01    0.01       1.0  T
   3   -353.2456332 -0.909393E-01  0.117E-01    0.01       1.0  T
   4   -353.2462447 -0.611484E-03  0.940E-02    0.01       1.0  T
   5   -353.2503291 -0.408435E-02  0.295E-02    0.00       1.0  T
   6   -353.2504264 -0.973432E-04  0.257E-02    0.00       1.0  T
   7   -353.2504718 -0.454030E-04  0.232E-02    0.00       1.0  T
   8   -353.2507069 -0.235070E-03  0.904E-03    0.00       1.0  T
   9   -353.2507422 -0.353033E-04  0.360E-03    0.00       2.0  T
  10   -353.2507485 -0.629145E-05  0.958E-04    0.00       7.6  T
  11   -353.2507489 -0.387353E-06  0.412E-04    0.00      17.6  T
  12   -353.2507490 -0.819446E-07  0.478E-05    0.00     151.4  T
  13   -353.2507490 -0.917112E-09  0.214E-05    0.00     338.6  T
     SCC iter.                  ...        0 min,  1.574 sec
     gradient                   ...        0 min,  0.453 sec
 * total energy  :  -347.7693879 Eh     change       -0.1959739E-02 Eh
   gradient norm :     0.0081089 Eh/α   predicted    -0.1892705E-02 (  -3.42%)
   displ. norm   :     0.6487247 α      lambda       -0.2109363E-02
   maximum displ.:     0.4453076 α      in ANC's #30, #14, #26, ...

........................................................................
.............................. CYCLE   31 ..............................
........................................................................
   1   -353.2624160 -0.353262E+03  0.171E-02    0.00       0.0  T
   2   -353.1272941  0.135122E+00  0.528E-01    0.00       1.0  T
   3   -353.2540121 -0.126718E+00  0.151E-01    0.01       1.0  T
   4   -353.2619440 -0.793195E-02  0.342E-02    0.00       1.0  T
   5   -353.2482902  0.136538E-01  0.168E-01    0.01       1.0  T
   6   -353.2621007 -0.138104E-01  0.297E-02    0.00       1.0  T
   7   -353.2622775 -0.176866E-03  0.222E-02    0.00       1.0  T
   8   -353.2624780 -0.200505E-03  0.967E-03    0.00       1.0  T
   9   -353.2625045 -0.264417E-04  0.626E-03    0.00       1.2  T
  10   -353.2625238 -0.193538E-04  0.927E-04    0.00       7.8  T
  11   -353.2625237  0.824904E-07  0.100E-03    0.00       7.2  T
  12   -353.2625242 -0.481903E-06  0.238E-04    0.00      30.5  T
  13   -353.2625243 -0.260282E-07  0.667E-05    0.00     108.5  T
  14   -353.2625243 -0.188510E-08  0.240E-05    0.00     301.3  T
     SCC iter.                  ...        0 min,  1.688 sec
     gradient                   ...        0 min,  0.454 sec
 * total energy  :  -347.7709584 Eh     change       -0.1570536E-02 Eh
   gradient norm :     0.0073885 Eh/α   predicted    -0.1498539E-02 (  -4.58%)
   displ. norm   :     0.7149706 α      lambda       -0.1580089E-02
   maximum displ.:     0.4882151 α      in ANC's #30, #14, #26, ...

........................................................................
.............................. CYCLE   32 ..............................
........................................................................
   1   -353.2740388 -0.353274E+03  0.140E-02    0.00       0.0  T
   2   -353.1840285  0.900103E-01  0.430E-01    0.00       1.0  T
   3   -353.2686125 -0.845841E-01  0.123E-01    0.01       1.0  T
   4   -353.2732548 -0.464228E-02  0.421E-02    0.00       1.0  T
   5   -353.2626226  0.106323E-01  0.151E-01    0.01       1.0  T
   6   -353.2737183 -0.110958E-01  0.285E-02    0.00       1.0  T
   7   -353.2739244 -0.206059E-03  0.193E-02    0.00       1.0  T
   8   -353.2741030 -0.178623E-03  0.350E-03    0.00       2.1  T
   9   -353.2741088 -0.579290E-05  0.917E-04    0.00       7.9  T
  10   -353.2741069  0.190911E-05  0.213E-03    0.00       3.4  T
  11   -353.2741088 -0.190450E-05  0.887E-04    0.00       8.2  T
  12   -353.2741092 -0.390091E-06  0.959E-05    0.00      75.4  T
  13   -353.2741092 -0.363002E-08  0.367E-05    0.00     197.0  T
     SCC iter.                  ...        0 min,  1.575 sec
     gradient                   ...        0 min,  0.453 sec
 * total energy  :  -347.7723737 Eh     change       -0.1415309E-02 Eh
   gradient norm :     0.0049789 Eh/α   predicted    -0.1193907E-02 ( -15.64%)
   displ. norm   :     0.8033511 α      lambda       -0.1524148E-02
   maximum displ.:     0.5383125 α      in ANC's #30, #14, #21, ...

........................................................................
.............................. CYCLE   33 ..............................
........................................................................
   1   -353.2864610 -0.353286E+03  0.116E-02    0.00       0.0  T
   2   -353.2817561  0.470490E-02  0.106E-01    0.00       1.0  T
   3   -353.2368629  0.448932E-01  0.324E-01    0.04       1.0  T
   4   -353.2856177 -0.487548E-01  0.430E-02    0.00       1.0  T
   5   -353.2858643 -0.246593E-03  0.357E-02    0.00       1.0  T
   6   -353.2860906 -0.226334E-03  0.289E-02    0.00       1.0  T
   7   -353.2864299 -0.339282E-03  0.119E-02    0.00       1.0  T
   8   -353.2864973 -0.673806E-04  0.178E-03    0.00       4.1  T
   9   -353.2864969  0.389235E-06  0.184E-03    0.00       3.9  T
  10   -353.2864975 -0.667701E-06  0.147E-03    0.00       4.9  T
  11   -353.2864986 -0.107705E-05  0.181E-04    0.00      40.1  T
  12   -353.2864986 -0.141829E-07  0.748E-05    0.00      96.8  T
  13   -353.2864986  0.113516E-08  0.874E-05    0.00      82.8  T
     SCC iter.                  ...        0 min,  1.574 sec
     gradient                   ...        0 min,  0.453 sec
 * total energy  :  -347.7735893 Eh     change       -0.1215596E-02 Eh
   gradient norm :     0.0052363 Eh/α   predicted    -0.1253902E-02 (   3.15%)
   displ. norm   :     0.7712465 α      lambda       -0.1236998E-02
   maximum displ.:     0.5028234 α      in ANC's #30, #14, #26, ...

........................................................................
.............................. CYCLE   34 ..............................
........................................................................
   1   -353.2989176 -0.353299E+03  0.882E-03    0.00       0.0  T
   2   -353.2873556  0.115620E-01  0.155E-01    0.01       1.0  T
   3   -353.2848201  0.253550E-02  0.177E-01    0.01       1.0  T
   4   -353.2977336 -0.129135E-01  0.488E-02    0.00       1.0  T
   5   -353.2966765  0.105712E-02  0.679E-02    0.00       1.0  T
   6   -353.2987453 -0.206883E-02  0.201E-02    0.01       1.0  T
   7   -353.2988659 -0.120568E-03  0.123E-02    0.00       1.0  T
   8   -353.2989184 -0.524712E-04  0.657E-03    0.00       1.1  T
   9   -353.2989305 -0.120963E-04  0.447E-03    0.00       1.6  T
  10   -353.2989403 -0.984979E-05  0.111E-03    0.00       6.5  T
  11   -353.2989409 -0.610032E-06  0.171E-04    0.00      42.2  T
  12   -353.2989409 -0.101307E-07  0.100E-04    0.00      72.2  T
     SCC iter.                  ...        0 min,  1.454 sec
     gradient                   ...        0 min,  0.452 sec
 * total energy  :  -347.7745400 Eh     change       -0.9507233E-03 Eh
   gradient norm :     0.0037790 Eh/α   predicted    -0.9863983E-03 (   3.75%)
   displ. norm   :     0.6780251 α      lambda       -0.7331082E-03
   maximum displ.:     0.4515990 α      in ANC's #14, #30, #26, ...

........................................................................
.............................. CYCLE   35 ..............................
........................................................................
   1   -353.3076652 -0.353308E+03  0.685E-03    0.00       0.0  T
   2   -353.3054860  0.217923E-02  0.718E-02    0.00       1.0  T
   3   -353.2887421  0.167439E-01  0.199E-01    0.01       1.0  T
   4   -353.3075712 -0.188291E-01  0.145E-02    0.00       1.0  T
   5   -353.3034007  0.417049E-02  0.926E-02    0.01       1.0  T
   6   -353.3076433 -0.424262E-02  0.874E-03    0.00       1.0  T
   7   -353.3076702 -0.268997E-04  0.393E-03    0.00       1.8  T
   8   -353.3076722 -0.194778E-05  0.337E-03    0.00       2.1  T
   9   -353.3076757 -0.351893E-05  0.211E-03    0.00       3.4  T
  10   -353.3076778 -0.209506E-05  0.634E-04    0.00      11.4  T
  11   -353.3076780 -0.194048E-06  0.151E-04    0.00      47.8  T
  12   -353.3076780 -0.109421E-07  0.294E-05    0.00     246.4  T
     SCC iter.                  ...        0 min,  1.453 sec
     gradient                   ...        0 min,  0.453 sec
 * total energy  :  -347.7751481 Eh     change       -0.6080385E-03 Eh
   gradient norm :     0.0024867 Eh/α   predicted    -0.5350684E-03 ( -12.00%)
   displ. norm   :     0.5249659 α      lambda       -0.4435355E-03
   maximum displ.:     0.3625548 α      in ANC's #14, #30, #26, ...

........................................................................
.............................. CYCLE   36 ..............................
........................................................................
   1   -353.3138275 -0.353314E+03  0.373E-03    0.00       0.0  T
   2   -353.3079197  0.590781E-02  0.110E-01    0.01       1.0  T
   3   -353.3125949 -0.467523E-02  0.531E-02    0.00       1.0  T
   4   -353.3132621 -0.667203E-03  0.338E-02    0.00       1.0  T
   5   -353.3137939 -0.531798E-03  0.876E-03    0.00       1.0  T
   6   -353.3138241 -0.301237E-04  0.406E-03    0.00       1.8  T
   7   -353.3138269 -0.278297E-05  0.325E-03    0.00       2.2  T
   8   -353.3138306 -0.377718E-05  0.138E-03    0.00       5.2  T
   9   -353.3138315 -0.826041E-06  0.569E-04    0.00      12.7  T
  10   -353.3138316 -0.145863E-06  0.171E-04    0.00      42.2  T
  11   -353.3138316 -0.132137E-07  0.591E-05    0.00     122.3  T
     SCC iter.                  ...        0 min,  1.332 sec
     gradient                   ...        0 min,  0.454 sec
 * total energy  :  -347.7754844 Eh     change       -0.3362999E-03 Eh
   gradient norm :     0.0032476 Eh/α   predicted    -0.2828904E-03 ( -15.88%)
   displ. norm   :     0.3674165 α      lambda       -0.3043928E-03
   maximum displ.:     0.2633277 α      in ANC's #14, #30, #26, ...

........................................................................
.............................. CYCLE   37 ..............................
........................................................................
   1   -353.3173941 -0.353317E+03  0.170E-03    0.00       0.0  T
   2   -353.3123945  0.499962E-02  0.101E-01    0.01       1.0  T
   3   -353.3170009 -0.460641E-02  0.282E-02    0.00       1.0  T
   4   -353.3167859  0.214954E-03  0.350E-02    0.00       1.0  T
   5   -353.3171392 -0.353263E-03  0.237E-02    0.00       1.0  T
   6   -353.3173885 -0.249295E-03  0.366E-03    0.00       2.0  T
   7   -353.3173748  0.137102E-04  0.661E-03    0.00       1.1  T
   8   -353.3173944 -0.196407E-04  0.144E-03    0.00       5.0  T
   9   -353.3173949 -0.481395E-06  0.103E-03    0.00       7.0  T
  10   -353.3173953 -0.463695E-06  0.420E-04    0.00      17.2  T
  11   -353.3173954 -0.871734E-07  0.706E-05    0.00     102.5  T
  12   -353.3173954 -0.258393E-08  0.752E-06    0.00     962.3  T
     SCC iter.                  ...        0 min,  1.444 sec
     gradient                   ...        0 min,  0.455 sec
 * total energy  :  -347.7757231 Eh     change       -0.2387040E-03 Eh
   gradient norm :     0.0018930 Eh/α   predicted    -0.1727442E-03 ( -27.63%)
   displ. norm   :     0.3939573 α      lambda       -0.1869808E-03
   maximum displ.:     0.2979880 α      in ANC's #14, #30, #26, ...

........................................................................
.............................. CYCLE   38 ..............................
........................................................................
   1   -353.3198675 -0.353320E+03  0.338E-03    0.00       0.0  T
   2   -353.3174891  0.237838E-02  0.703E-02    0.00       1.0  T
   3   -353.3165923  0.896867E-03  0.814E-02    0.00       1.0  T
   4   -353.3198654 -0.327310E-02  0.410E-03    0.00       1.8  T
   5   -353.3175715  0.229385E-02  0.688E-02    0.00       1.0  T
   6   -353.3198317 -0.226018E-02  0.863E-03    0.00       1.0  T
   7   -353.3198166  0.150901E-04  0.107E-02    0.00       1.0  T
   8   -353.3198660 -0.493748E-04  0.319E-03    0.00       2.3  T
   9   -353.3198702 -0.417488E-05  0.926E-04    0.00       7.8  T
  10   -353.3198703 -0.143159E-06  0.725E-04    0.00      10.0  T
  11   -353.3198705 -0.247232E-06  0.123E-04    0.00      58.9  T
[...]
   135   6 C    3.903 --   134 C    1.252   139 N    1.233   136 C    1.193
   136   6 C    3.960 --   137 C    1.632   135 C    1.193   174 H    0.973
   137   6 C    3.959 --   136 C    1.632   138 C    1.185   175 H    0.973
   138   6 C    3.914 --   140 C    1.320   139 N    1.197   137 C    1.185
   139   7 N    3.339 --   135 C    1.233   138 C    1.197   133 Co   0.626
   140   6 C    3.925 --   149 C    1.322   138 C    1.320   141 C    1.035
   141   6 C    3.986 --   148 C    1.382   142 C    1.379   140 C    1.035
   142   6 C    3.986 --   143 C    1.470   141 C    1.379   176 H    0.971
                           147 C    0.100
   143   6 C    3.988 --   142 C    1.470   144 C    1.371   177 H    0.967
                           148 C    0.101
   144   6 C    3.983 --   147 C    1.379   143 C    1.371   145 C    1.047
   145   6 C    3.864 --   146 O    1.811   144 C    1.047   178 H    0.942
   146   8 O    2.006 --   145 C    1.811
   147   6 C    3.993 --   148 C    1.465   144 C    1.379   179 H    0.971
                           142 C    0.100
   148   6 C    3.985 --   147 C    1.465   141 C    1.382   180 H    0.972
                           143 C    0.101
   149   6 C    3.914 --   140 C    1.322   152 N    1.197   150 C    1.183
   150   6 C    3.959 --   151 C    1.635   149 C    1.183   181 H    0.973
   151   6 C    3.959 --   150 C    1.635   153 C    1.191   182 H    0.973
   152   7 N    3.339 --   153 C    1.232   149 C    1.197   133 Co   0.631
   153   6 C    3.903 --   154 C    1.256   152 N    1.232   151 C    1.191
   154   6 C    3.921 --   153 C    1.256   155 C    1.254   130 C    1.196
   155   6 C    3.903 --   154 C    1.254   159 N    1.231   156 C    1.193
   156   6 C    3.960 --   157 C    1.632   155 C    1.193   183 H    0.973
   157   6 C    3.959 --   156 C    1.632   158 C    1.185   184 H    0.973
   158   6 C    3.914 --   160 C    1.318   159 N    1.199   157 C    1.185
   159   7 N    3.339 --   155 C    1.231   158 C    1.199   133 Co   0.626
   160   6 C    3.925 --   169 C    1.324   158 C    1.318   161 C    1.036
   161   6 C    3.986 --   162 C    1.382   168 C    1.379   160 C    1.036
   162   6 C    3.985 --   163 C    1.465   161 C    1.382   185 H    0.971
                           167 C    0.101
   163   6 C    3.993 --   162 C    1.465   164 C    1.379   186 H    0.971
   164   6 C    3.983 --   163 C    1.379   167 C    1.370   165 C    1.047
   165   6 C    3.864 --   166 O    1.811   164 C    1.047   187 H    0.942
   166   8 O    2.005 --   165 C    1.811
   167   6 C    3.988 --   168 C    1.471   164 C    1.370   188 H    0.967
                           162 C    0.101
   168   6 C    3.986 --   167 C    1.471   161 C    1.379   189 H    0.971
   169   6 C    3.914 --   160 C    1.324   173 N    1.195   170 C    1.183
   170   6 C    3.959 --   171 C    1.634   169 C    1.183   190 H    0.973
   171   6 C    3.959 --   170 C    1.634   172 C    1.191   191 H    0.973
   172   6 C    3.902 --   134 C    1.253   173 N    1.234   171 C    1.191
   173   7 N    3.338 --   172 C    1.234   169 C    1.195   133 Co   0.630
   174   1 H    1.001 --   136 C    0.973
   175   1 H    1.003 --   137 C    0.973
   176   1 H    1.004 --   142 C    0.971
   177   1 H    1.004 --   143 C    0.967
   178   1 H    1.010 --   145 C    0.942
   179   1 H    1.000 --   147 C    0.971
   180   1 H    1.004 --   148 C    0.972
   181   1 H    1.003 --   150 C    0.973
   182   1 H    1.001 --   151 C    0.973
   183   1 H    1.001 --   156 C    0.973
   184   1 H    1.003 --   157 C    0.973
   185   1 H    1.004 --   162 C    0.971
   186   1 H    1.000 --   163 C    0.971
   187   1 H    1.010 --   165 C    0.942
   188   1 H    1.004 --   167 C    0.967
   189   1 H    1.004 --   168 C    0.971
   190   1 H    1.003 --   170 C    0.973
   191   1 H    1.001 --   171 C    0.973
 ---------------------------------------------------------------------------

Topologies differ in total number of bonds
Writing topology from bond orders to xtbtopo.mol

 dipole moment from electron density (au)
     X       Y       Z   
  -0.1993  -0.1155  -2.4427  total (Debye):    6.236

           -------------------------------------------------
          |                Geometry Summary                 |
           -------------------------------------------------

      molecular mass/u    :     1866.5450255
   center of mass at/Å    :       45.4799888      -0.0155930       0.0177266
  moments of inertia/u·Å² :        0.4013429E+05   0.3083263E+06   0.3463024E+06
rotational constants/cm⁻¹ :        0.4200306E-03   0.5467464E-04   0.4867893E-04

 * 182 selected distances

     #   Z          #   Z                                           value/Å
     2   6 C        3   6 C                                       1.3780905
     3   6 C        4   6 C                                       1.4313917
     4   6 C        5   6 C                                       1.3533006
     5   6 C        6   6 C                                       1.4339969 (max)
     3   6 C        7   7 N                                       1.3724891
     6   6 C        7   7 N                                       1.3712704
     6   6 C        8   6 C                                       1.3886300
     9   6 C       10   6 C                                       1.3974633
    10   6 C       11   6 C                                       1.3817914
    11   6 C       12   6 C                                       1.3987377
    13   6 C       14   8 O                                       1.2042322
    12   6 C       15   6 C                                       1.3968369
     9   6 C       16   6 C                                       1.3970022
    15   6 C       16   6 C                                       1.3836936
     8   6 C       17   6 C                                       1.3861280
    17   6 C       18   6 C                                       1.4324521
    18   6 C       19   6 C                                       1.3542123
    17   6 C       20   7 N                                       1.3769560
    19   6 C       21   6 C                                       1.4287330
    20   7 N       21   6 C                                       1.3659236
    21   6 C       22   6 C                                       1.3975236
    22   6 C       23   6 C                                       1.3970693
    23   6 C       24   6 C                                       1.4286659
    24   6 C       25   6 C                                       1.3545903
    25   6 C       26   6 C                                       1.4321209
    23   6 C       27   7 N                                       1.3664763
    26   6 C       27   7 N                                       1.3759767
    26   6 C       28   6 C                                       1.3869754
    29   6 C       30   6 C                                       1.3977772
    30   6 C       31   6 C                                       1.3834198
    31   6 C       32   6 C                                       1.3969253
    33   6 C       34   8 O                                       1.2043064
    32   6 C       35   6 C                                       1.3988053
    29   6 C       36   6 C                                       1.3982990
    35   6 C       36   6 C                                       1.3814699
    28   6 C       37   6 C                                       1.3889954
    37   6 C       38   6 C                                       1.4338901
    38   6 C       39   6 C                                       1.3536675
     2   6 C       40   6 C                                       1.3781191
    39   6 C       40   6 C                                       1.4312084
    37   6 C       41   7 N                                       1.3711171
    40   6 C       41   7 N                                       1.3723966
     2   6 C       42   1 H                                       1.0835755
     4   6 C       43   1 H                                       1.0783103
     5   6 C       44   1 H                                       1.0778701
    10   6 C       45   1 H                                       1.0840928
    11   6 C       46   1 H                                       1.0847318
    15   6 C       48   1 H                                       1.0851572
    16   6 C       49   1 H                                       1.0841483
    18   6 C       50   1 H                                       1.0776978
    19   6 C       51   1 H                                       1.0780238
    24   6 C       52   1 H                                       1.0780073
    25   6 C       53   1 H                                       1.0777357
    30   6 C       54   1 H                                       1.0841871
    31   6 C       55   1 H                                       1.0851384
    35   6 C       57   1 H                                       1.0847504
    36   6 C       58   1 H                                       1.0841255
    38   6 C       59   1 H                                       1.0779121
    39   6 C       60   1 H                                       1.0783007
    62   6 C       63   6 C                                       1.3777487
    63   6 C       64   6 C                                       1.4313883
    64   6 C       65   6 C                                       1.3530903
    65   6 C       66   6 C                                       1.4339934
    63   6 C       67   7 N                                       1.3726043
    66   6 C       67   7 N                                       1.3715258
    66   6 C       68   6 C                                       1.3881474
    69   6 C       70   6 C                                       1.3975640
    70   6 C       71   6 C                                       1.3817284
    71   6 C       72   6 C                                       1.3987653
    73   6 C       74   8 O                                       1.2043016
    72   6 C       75   6 C                                       1.3968580
    69   6 C       76   6 C                                       1.3969985
    75   6 C       76   6 C                                       1.3837085
    68   6 C       77   6 C                                       1.3861399
    77   6 C       78   6 C                                       1.4324414
    78   6 C       79   6 C                                       1.3539470
    77   6 C       80   7 N                                       1.3768013
    79   6 C       81   6 C                                       1.4286945
    80   7 N       81   6 C                                       1.3665062
    81   6 C       82   6 C                                       1.3965753
    82   6 C       83   6 C                                       1.3961117
    83   6 C       84   6 C                                       1.4286662
    84   6 C       85   6 C                                       1.3543517
    85   6 C       86   6 C                                       1.4320788
    83   6 C       87   7 N                                       1.3670851
    86   6 C       87   7 N                                       1.3758446
    86   6 C       88   6 C                                       1.3869260
    89   6 C       90   6 C                                       1.3977200
    90   6 C       91   6 C                                       1.3834431
    91   6 C       92   6 C                                       1.3969326
    93   6 C       94   8 O                                       1.2045336
    92   6 C       95   6 C                                       1.3988376
    89   6 C       96   6 C                                       1.3982589
    95   6 C       96   6 C                                       1.3814724
    88   6 C       97   6 C                                       1.3883543
    97   6 C       98   6 C                                       1.4339305
    98   6 C       99   6 C                                       1.3534447
    62   6 C      100   6 C                                       1.3778632
    99   6 C      100   6 C                                       1.4311767
    97   6 C      101   7 N                                       1.3715146
   100   6 C      101   7 N                                       1.3723285
    62   6 C      102   1 H                                       1.0835723
    64   6 C      103   1 H                                       1.0783117
    65   6 C      104   1 H                                       1.0778580
    70   6 C      105   1 H                                       1.0840865
    71   6 C      106   1 H                                       1.0847252
    75   6 C      108   1 H                                       1.0851525
    76   6 C      109   1 H                                       1.0841461
    78   6 C      110   1 H                                       1.0776714 (min)
    79   6 C      111   1 H                                       1.0779989
    84   6 C      112   1 H                                       1.0780097
    85   6 C      113   1 H                                       1.0777186
    90   6 C      114   1 H                                       1.0841516
    91   6 C      115   1 H                                       1.0851297
    95   6 C      117   1 H                                       1.0847454
    96   6 C      118   1 H                                       1.0841304
    98   6 C      119   1 H                                       1.0778921
    99   6 C      120   1 H                                       1.0783089
   121   6 C      122   6 C                                       1.2293978
   123   6 C      124   6 C                                       1.2245730
   125   6 C      126   6 C                                       1.2249337
   127   6 C      128   6 C                                       1.2288497
   129   6 C      130   6 C                                       1.2244472
   131   6 C      132   6 C                                       1.2240450
   134   6 C      135   6 C                                       1.3988731
   135   6 C      136   6 C                                       1.4280545
   136   6 C      137   6 C                                       1.3558576
   137   6 C      138   6 C                                       1.4312963
   135   6 C      139   7 N                                       1.3657682
   138   6 C      139   7 N                                       1.3747930
   138   6 C      140   6 C                                       1.3886271
   141   6 C      142   6 C                                       1.3982137
   142   6 C      143   6 C                                       1.3814775
   143   6 C      144   6 C                                       1.3986153
   145   6 C      146   8 O                                       1.2038592
   144   6 C      147   6 C                                       1.3967277
   141   6 C      148   6 C                                       1.3976592
   147   6 C      148   6 C                                       1.3834647
   140   6 C      149   6 C                                       1.3884075
   149   6 C      150   6 C                                       1.4316622
   150   6 C      151   6 C                                       1.3554253
   149   6 C      152   7 N                                       1.3753748
   151   6 C      153   6 C                                       1.4283505
   152   7 N      153   6 C                                       1.3662736
   153   6 C      154   6 C                                       1.3981851
   154   6 C      155   6 C                                       1.3983934
   155   6 C      156   6 C                                       1.4280084
   156   6 C      157   6 C                                       1.3558870
   157   6 C      158   6 C                                       1.4312552
   155   6 C      159   7 N                                       1.3661552
   158   6 C      159   7 N                                       1.3745240
   158   6 C      160   6 C                                       1.3890455
   161   6 C      162   6 C                                       1.3977402
   162   6 C      163   6 C                                       1.3834936
   163   6 C      164   6 C                                       1.3967954
   165   6 C      166   8 O                                       1.2038415
   164   6 C      167   6 C                                       1.3986588
   161   6 C      168   6 C                                       1.3983783
   167   6 C      168   6 C                                       1.3813976
   160   6 C      169   6 C                                       1.3881429
   169   6 C      170   6 C                                       1.4317011
   170   6 C      171   6 C                                       1.3554106
   134   6 C      172   6 C                                       1.3986874
   171   6 C      172   6 C                                       1.4282739
   169   6 C      173   7 N                                       1.3756906
   172   6 C      173   7 N                                       1.3658206
   136   6 C      174   1 H                                       1.0780351
   137   6 C      175   1 H                                       1.0778114
   142   6 C      176   1 H                                       1.0840703
   143   6 C      177   1 H                                       1.0846781
   147   6 C      179   1 H                                       1.0851463
   148   6 C      180   1 H                                       1.0841774
   150   6 C      181   1 H                                       1.0777368
   151   6 C      182   1 H                                       1.0780364
   156   6 C      183   1 H                                       1.0780273
   157   6 C      184   1 H                                       1.0778086
   162   6 C      185   1 H                                       1.0841906
   163   6 C      186   1 H                                       1.0851613
   167   6 C      188   1 H                                       1.0847296
   168   6 C      189   1 H                                       1.0841132
   170   6 C      190   1 H                                       1.0777032
   171   6 C      191   1 H                                       1.0780155

 * 4 distinct bonds (by element types)

   Z      Z             #   av. dist./Å        max./Å        min./Å
   1 H    6 C          50     1.0813363     1.0851613     1.0776714
   6 C    6 C         102     1.3866446     1.4339969     1.2240450
   6 C    7 N          24     1.3713007     1.3769560     1.3657682
   6 C    8 O           6     1.2041791     1.2045336     1.2038415


optimized geometry written to: xtbopt.xyz


           -------------------------------------------------
          | TOTAL ENERGY             -347.779593273093 Eh   |
          | GRADIENT NORM               0.000993290773 Eh/α |
          | HOMO-LUMO GAP               0.004589749922 eV   |
           -------------------------------------------------

------------------------------------------------------------------------
 * finished run on 2022/07/29 at 22:45:26.578     
------------------------------------------------------------------------
 total:
 * wall-time:     0 d,  0 h,  3 min,  0.467 sec
 *  cpu-time:     0 d,  0 h,  2 min, 59.581 sec
 * ratio c/w:     0.995 speedup
 SCF:
 * wall-time:     0 d,  0 h,  0 min,  7.864 sec
 *  cpu-time:     0 d,  0 h,  0 min,  7.825 sec
 * ratio c/w:     0.995 speedup
 ANC optimizer:
 * wall-time:     0 d,  0 h,  2 min, 52.371 sec
 *  cpu-time:     0 d,  0 h,  2 min, 51.540 sec
 * ratio c/w:     0.995 speedup

