191
 energy: -347.140308275214 gnorm: 0.676975733300 xtb: 6.5.1 (b24c23e)
Co          28.42227500000000       -0.02026000000000        0.00205100000000
C           25.06052200000000        0.11484600000000       -0.11697300000000
C           25.72658100000000        1.26853900000000       -0.01654000000000
C           25.07675500000000        2.57013800000000        0.07739100000000
C           26.01686000000000        3.48435700000000        0.22261400000000
C           27.32219500000000        2.80929000000000        0.22357500000000
N           27.14482400000000        1.40072400000000        0.06874100000000
C           28.51160900000000        3.42162700000000        0.39662800000000
C           28.54794100000000        4.88856900000000        0.58916600000000
C           28.80280300000000        5.42628400000000        1.85881400000000
C           28.84154600000000        6.81147700000000        2.04196000000000
C           28.62120200000000        7.67696600000000        0.95631700000000
C           28.65452700000000        9.14049100000000        1.13017800000000
O           28.88887600000000        9.65679200000000        2.25542900000000
C           28.36511500000000        7.13506000000000       -0.31288300000000
C           28.33110000000000        5.74982000000000       -0.49641600000000
C           29.80735200000000        2.69071000000000        0.41331400000000
C           31.10213400000000        3.33255000000000        0.67201600000000
C           32.03628900000000        2.40924800000000        0.57918000000000
N           29.94604800000000        1.42430100000000        0.16216500000000
C           31.34798500000000        1.16719100000000        0.25045600000000
C           31.94409700000000       -0.01150400000000        0.00313300000000
C           31.18921000000000       -1.23495800000000       -0.35531100000000
C           31.74283100000000       -2.32340000000000       -0.87530800000000
C           30.69886500000000       -3.31834900000000       -1.00902800000000
C           29.57416000000000       -2.77468000000000       -0.56005100000000
N           29.79268000000000       -1.43022800000000       -0.12588700000000
C           28.27745900000000       -3.49486500000000       -0.47377700000000
C           28.28694800000000       -4.97489200000000       -0.54927700000000
C           27.72461600000000       -5.63409200000000       -1.65374200000000
C           27.75411400000000       -7.02935600000000       -1.73083900000000
C           28.35098100000000       -7.78395500000000       -0.70853100000000
C           28.37870600000000       -9.25453600000000       -0.80989200000000
O           28.95475000000000       -9.95589900000000        0.06264700000000
C           28.91868100000000       -7.12143400000000        0.39443700000000
C           28.88929800000000       -5.72606300000000        0.47048800000000
C           27.10921700000000       -2.84151300000000       -0.33009800000000
C           25.78751500000000       -3.45517000000000       -0.21293100000000
C           24.92706900000000       -2.45957600000000       -0.12747200000000
C           25.68998500000000       -1.21357400000000       -0.17742100000000
N           26.96344700000000       -1.42334300000000       -0.29557700000000
H           23.97725100000000        0.14766100000000       -0.13381200000000
H           24.01291700000000        2.76790400000000        0.05011800000000
H           25.82834400000000        4.54429900000000        0.33289400000000
H           28.97224100000000        4.77161100000000        2.70505300000000
H           29.04216300000000        7.20406700000000        3.03093700000000
H           28.47703700000000        9.79038400000000        0.28292600000000
H           28.19219300000000        7.78439700000000       -1.16252400000000
H           28.13407600000000        5.34698600000000       -1.48262300000000
H           31.28468600000000        4.37591500000000        0.89103400000000
H           33.09725100000000        2.57664400000000        0.70916800000000
H           32.78294500000000       -2.46030100000000       -1.13849400000000
H           30.82282500000000       -4.32344600000000       -1.39024900000000
H           27.26824300000000       -5.06619600000000       -2.45608600000000
H           27.31624500000000       -7.51994700000000       -2.59242100000000
H           27.90716500000000       -9.74740500000000       -1.65010700000000
H           29.38492700000000       -7.68050900000000        1.19678000000000
H           29.33244600000000       -5.23029600000000        1.32590400000000
H           25.53640500000000       -4.50769800000000       -0.19392500000000
H           23.85406100000000       -2.56164800000000       -0.02933600000000
Co          62.53812100000000       -0.00268300000000        0.00330900000000
C           65.89987400000000       -0.11946300000000       -0.13374200000000
C           65.23381400000000       -1.27570000000000       -0.19862700000000
C           65.88364000000000       -2.57740900000000       -0.29101000000000
C           64.94353599999999       -3.50299100000000       -0.27745800000000
C           63.63820000000000       -2.83494200000000       -0.18037300000000
N           63.81557200000000       -1.41868200000000       -0.13303900000000
C           62.44878600000000       -3.46568200000000       -0.09628500000000
C           62.41245500000000       -4.94509200000000       -0.11461200000000
C           62.15759300000000       -5.65813300000000        1.06552200000000
C           62.11884900000000       -7.05529000000000        1.04954100000000
C           62.33919400000000       -7.75735500000000       -0.14829000000000
C           62.30586900000000       -9.23072300000000       -0.18461700000000
O           62.07152000000000       -9.90200600000000        0.85564100000000
C           62.59528000000000       -7.04022900000000       -1.32738300000000
C           62.62929599999999       -5.64297100000000       -1.31177800000000
C           61.15304399999999       -2.74459100000000        0.02431900000000
C           59.85826099999999       -3.41672900000000        0.18898200000000
C           58.92410700000000       -2.48961700000000        0.22857700000000
N           61.01434800000000       -1.45532300000000       -0.04392400000000
C           59.61240999999999       -1.21340700000000        0.08008100000000
C           59.01629800000000       -0.01150400000000        0.00313300000000
C           59.77118500000000        1.25052500000000       -0.17743000000000
C           59.21756400000000        2.40192600000000       -0.53712500000000
C           60.26153100000000        3.40577700000000       -0.52779500000000
C           61.38623499999999        2.80371100000000       -0.16081500000000
N           61.16771500000000        1.41113400000000        0.07746400000000
C           62.68293599999999        3.50427000000000        0.02713900000000
C           62.67344799999999        4.97996500000000        0.16317400000000
C           63.23577900000000        5.78973000000000       -0.83616000000000
C           63.20628199999999        7.18175300000000       -0.71377500000000
C           62.60941400000000        7.78307700000000        0.40557400000000
C           62.58168900000000        9.25310500000000        0.51466700000000
O           62.00564600000000        9.82306500000000        1.47819200000000
C           62.04171400000000        6.97023800000000        1.40295300000000
C           62.07109800000000        5.57825800000000        1.27951900000000
C           63.85117800000000        2.83711600000000        0.07631100000000
C           65.17288000000001        3.42783400000000        0.27967400000000
C           66.03332700000000        2.43021600000000        0.22248200000000
C           65.27041100000000        1.20402600000000       -0.00439800000000
N           63.99694900000000        1.42848400000000       -0.09147700000000
H           66.98314499999999       -0.14954500000000       -0.15508200000000
H           66.94747900000000       -2.76927600000000       -0.34616800000000
H           65.13205200000000       -4.56783600000000       -0.31924500000000
H           61.98815500000000       -5.13064300000000        1.99636700000000
H           61.91823200000000       -7.58471600000000        1.97253000000000
H           62.48335900000000       -9.75333700000000       -1.11578300000000
H           62.76820300000000       -7.56195300000000       -2.26083500000000
H           62.82632000000000       -5.10379900000000       -2.23056700000000
H           59.67571000000000       -4.48065000000000        0.25718600000000
H           57.86314500000000       -2.67381800000000        0.33340200000000
H           58.17745100000000        2.57491100000000       -0.77813300000000
H           60.13757100000000        4.45491800000000       -0.76199700000000
H           63.69215299999999        5.34188200000000       -1.71119800000000
H           63.64415000000000        7.79003900000000       -1.49671200000000
H           63.05323099999999        9.86060300000000       -0.24679700000000
H           61.57546800000000        7.40935600000000        2.27673500000000
H           61.62795000000000        4.96572700000000        2.05561600000000
H           65.42399100000000        4.46692800000000        0.44837300000000
H           67.10633500000000        2.51727300000000        0.33415300000000
C           38.15504700000000       -0.01040200000000        0.01162300000000
C           36.94610800000000       -0.02385700000000        0.00317600000000
C           35.52457900000000       -0.01503700000000       -0.00880700000000
C           34.31291000000000       -0.00759900000000        0.00205600000000
C           39.57165200000000       -0.01707700000000        0.01215600000000
C           40.79234799999999       -0.00759900000000        0.00205600000000
C           54.01303600000000       -0.01040200000000        0.01162300000000
C           52.80409699999999       -0.02385700000000        0.00317600000000
C           51.38256800000000       -0.01503700000000       -0.00880700000000
C           50.17089800000000       -0.00759900000000        0.00205600000000
C           55.42963999999999       -0.01707700000000        0.01215600000000
C           56.65033600000000       -0.00759900000000        0.00205600000000
Co          45.46440400000000       -0.01875800000000        0.01471800000000
C           42.02217099999999        0.02494400000000       -0.00679100000000
C           42.67842300000000        1.15997200000000        0.30262500000000
C           42.03747299999999        2.45091400000000        0.56521100000000
C           42.97767799999999        3.32608100000000        0.86758600000000
C           44.27565300000000        2.64652500000000        0.82216200000000
N           44.09577800000000        1.27513900000000        0.45716500000000
C           45.46067200000000        3.22776900000000        1.10405700000000
C           45.49525100000000        4.64531500000000        1.52686500000000
C           45.99656500000000        5.62561900000000        0.65779700000000
C           46.04080999999999        6.96377100000000        1.05718900000000
C           45.58569500000000        7.33802600000000        2.33387700000000
C           45.60984300000000        8.74346200000000        2.77535200000000
O           46.07491199999999        9.64477200000000        2.03168500000000
C           45.09349800000000        6.35408400000000        3.20187100000000
C           45.04988700000000        5.01594000000000        2.80112800000000
C           46.75683000000000        2.51227200000000        1.01363300000000
C           48.02486699999999        3.05503000000000        1.51599500000000
C           48.97678700000000        2.19361800000000        1.22105200000000
N           46.92446100000000        1.36287400000000        0.43657900000000
C           48.32244400000000        1.09088400000000        0.52873500000000
C           48.93809300000000        0.02494400000000       -0.00679100000000
C           48.18950000000000       -1.05895200000000       -0.67549300000000
C           48.72254800000000       -1.93063200000000       -1.52112800000000
C           47.69087699999999       -2.89582800000000       -1.85022500000000
C           46.59884200000000       -2.54632000000000       -1.18261300000000
N           46.82393500000000       -1.36885300000000       -0.40968400000000
C           45.34368900000000       -3.33320100000000       -1.15733300000000
C           45.40528400000000       -4.77027800000000       -1.51285500000000
C           46.17239199999999       -5.65124800000000       -0.73620900000000
C           46.24468600000000       -7.00618000000000       -1.07125700000000
C           45.55617299999999       -7.49764700000000       -2.19159400000000
C           45.64023000000000       -8.93078400000000       -2.52241600000000
O           45.02022299999999       -9.40883600000000       -3.51123100000000
C           44.79738399999999       -6.61218300000000       -2.97755700000000
C           44.72531300000000       -5.25665100000000       -2.64154300000000
C           44.17049900000000       -2.77694800000000       -0.79823600000000
C           42.89357400000000       -3.47276200000000       -0.67568400000000
C           42.00255500000000       -2.55307700000000       -0.36168900000000
C           42.70004700000000       -1.26480200000000       -0.27544200000000
N           43.96757200000000       -1.38991900000000       -0.52637600000000
H           40.98072199999999        2.68239300000000        0.52230000000000
H           42.79346800000000        4.36672600000000        1.10199200000000
H           46.35019400000000        5.35197500000000       -0.32879700000000
H           46.42833499999999        7.70452400000000        0.36858800000000
H           45.21647999999999        9.01589600000000        3.75478500000000
H           44.74241899999999        6.62086000000000        4.18965900000000
H           44.67021300000000        4.26813700000000        3.48277400000000
H           48.17444100000000        3.99249000000000        2.03535300000000
H           50.02663600000000        2.31115600000000        1.45715500000000
H           49.74295100000000       -1.94489500000000       -1.87789200000000
H           47.80519600000000       -3.76126700000000       -2.48909900000000
H           46.70892600000000       -5.28886400000000        0.13263000000000
H           46.83752100000000       -7.67204000000000       -0.45464600000000
H           46.24007600000000       -9.59299900000000       -1.90937600000000
H           44.26449600000000       -6.96575900000000       -3.85182600000000
H           44.14263100000000       -4.58500800000000       -3.26135600000000
H           42.69142500000000       -4.52869600000000       -0.80264800000000
H           40.95009300000000       -2.74266000000000       -0.19443200000000
191
 energy: -347.322541905827 gnorm: 0.318908225032 xtb: 6.5.1 (b24c23e)
Co          28.43088870683232       -0.01322079338479       -0.00506621864424
C           25.06158816306628        0.09598841406655       -0.11758137152938
C           25.73559410388476        1.26516809048056       -0.01579143377913
C           25.07977728146686        2.56028719598428        0.07594316100386
C           26.03133956429251        3.48342305541189        0.22279442781535
C           27.32581197334120        2.79809378097758        0.22180611457827
N           27.13397773727020        1.40816877708174        0.07179473504469
C           28.53059740924764        3.41523214262869        0.39705283855060
C           28.55492292421932        4.88968735676500        0.58899159002805
C           28.80495342835021        5.43177088796395        1.85516835120334
C           28.84047810906638        6.80940466063729        2.03783863385733
C           28.62111772465921        7.67694314834611        0.95616351584294
C           28.65894912367329        9.13894543123976        1.14976916894542
O           28.88546251056442        9.64643222954489        2.23977988293898
C           28.36500400649827        7.13108462689395       -0.31005135391017
C           28.33084201883202        5.75234309201177       -0.49177757951020
C           29.80053831134879        2.70149685055352        0.41567560493608
C           31.08698078979525        3.34240031461445        0.67087009313072
C           32.03475923611759        2.40160133185979        0.57755200524497
N           29.95588288762568        1.41123410321231        0.16668665969380
C           31.36385407483620        1.15784510553260        0.24900926644378
C           31.95988959015039       -0.02778124082808       -0.00519340034204
C           31.19278879017364       -1.21931473929736       -0.34301074308065
C           31.74747917681368       -2.34499829393380       -0.88069395670068
C           30.72127871950359       -3.31847586987948       -1.00900985777838
C           29.56482483609070       -2.75762970501880       -0.54729286837964
N           29.79409914911278       -1.41884332780588       -0.13697464280323
C           28.29459280873166       -3.48235251641590       -0.47223374744338
C           28.29818702141582       -4.97086421146453       -0.55371381444245
C           27.72629597973910       -5.63539717532592       -1.64924249337732
C           27.75504946190495       -7.02476525809864       -1.72678914738247
C           28.35062369986190       -7.78327718789518       -0.70839163172797
C           28.39048803349947       -9.25604523691543       -0.79376188174723
O           28.94610557498980       -9.94310768321021        0.05184855635778
C           28.91598816174156       -7.11757329476052        0.39102171434465
C           28.88994961518908       -5.72904806219015        0.46517600550228
C           27.11250533042647       -2.83446489918084       -0.32815434140152
C           25.79778984741055       -3.45028734379137       -0.21391174221790
C           24.91835645807987       -2.44456658449968       -0.12830770238677
C           25.67417592146820       -1.20171660343045       -0.17609773477968
N           26.97066139815589       -1.42447918619218       -0.28424404163866
H           23.97828847291776        0.13922027221628       -0.13394506382685
H           24.01540279672049        2.75552437638520        0.04833252705876
H           25.84456589104166        4.54348023010924        0.33308841468112
H           28.97175527142403        4.77364142563864        2.70193653130050
H           29.04101267755492        7.20713817918735        3.02729043854780
H           28.47667902044978        9.78446194453200        0.28124852305729
H           28.19278448272960        7.78349975238812       -1.16027014469771
H           28.13513663674940        5.34688018587319       -1.47924840588475
H           31.27141688492418        4.38179924465649        0.89099400130779
H           33.09551748107152        2.56369971135274        0.70667869978814
H           32.78511785664224       -2.46886361936767       -1.14128705810172
H           30.83007762920983       -4.32214051318541       -1.39129728967503
H           27.27014372219301       -5.06623235319221       -2.45292100355365
H           27.31756632256409       -7.51870619768305       -2.58948673680655
H           27.90623986891652       -9.74126555975606       -1.65058903400627
H           29.38257775379446       -7.68216946323768        1.19242838827708
H           29.33121617758606       -5.23130629918927        1.32266701378591
H           25.55103849965859       -4.50428404482981       -0.19541005856437
H           23.84968098359042       -2.55074927916409       -0.02948815466706
Co          62.52948746340635       -0.00863825860256       -0.00478345371993
C           65.89880387751542       -0.10070433252349       -0.13165998428092
C           65.22479702519522       -1.27247565009263       -0.19741730776298
C           65.88062398586349       -2.56746462056283       -0.29104237827136
C           64.92906235173031       -3.50209650281275       -0.27714954508482
C           63.63458766067481       -2.82357399519929       -0.18053180181869
N           63.82646891959917       -1.42654307448888       -0.13105751666065
C           62.42974449219423       -3.45938094326648       -0.09493034876700
C           62.40544830768799       -4.94616478446614       -0.11494201433959
C           62.15543997282143       -5.66304451249008        1.06113269166313
C           62.11991781341826       -7.05265221892881        1.04575787223045
C           62.33927838999973       -7.75731005819336       -0.14843794783826
C           62.30145146840625       -9.23198028510172       -0.16500485186311
O           62.07492550083360       -9.88952848335352        0.84162231015933
C           62.59539449155155       -7.03669527805782       -1.32401352858414
C           62.62955072964034       -5.64612456057982       -1.30754312724157
C           61.15985394657361       -2.75558917600175        0.02512132678025
C           59.87338712489149       -3.42630207847330        0.18642758575520
C           58.92558590183686       -2.48182608139842        0.22809396961760
N           61.00446816706725       -1.44296223266919       -0.03769046329421
C           59.59643929712952       -1.20391032895024        0.07999545301823
C           59.00088016408256        0.00605922637517       -0.00254814783282
C           59.76763103463579        1.23339796922209       -0.16750160729153
C           59.21291149634599        2.42419933869030       -0.53943193548004
C           60.23904523412484        3.40591031135610       -0.52776182900426
C           61.39555580821386        2.78499515206912       -0.15062037064064
N           61.16629667198398        1.40150133404270        0.06497964442843
C           62.66578367014994        3.49164427035020        0.02687406210841
C           62.66219627034588        4.97660423633537        0.15820198105921
C           63.23409697888625        5.79037714474774       -0.83152056077397
C           63.20534580036333        7.17663086374541       -0.71041705310184
C           62.60977074643925        7.78238182134753        0.40561608887160
C           62.56990486663432        9.25230896963328        0.53084900781262
O           62.01430254333611        9.81193416244291        1.46567639803837
C           62.04440876359502        6.96690298557072        1.39902288888174
C           62.07044580591294        5.58196568901201        1.27468415031075
C           63.84788119427284        2.82983973596210        0.07723682943763
C           65.16260285945700        3.42313339871949        0.27800799777994
C           66.04203634581249        2.41547669437391        0.21951289099255
C           65.28621825063399        1.19208614827603       -0.00478052946996
N           63.98971693715161        1.42798011503165       -0.08006848661967
H           66.98210546672298       -0.14116778027297       -0.15400724549247
H           66.94499732157009       -2.75677453663373       -0.34617114689488
H           65.11582863599067       -4.56705698067024       -0.31893556830794
H           61.98864005156319       -5.13220970250391        1.99299377298610
H           61.91938295425300       -7.58723706175727        1.96848421817207
H           62.48371802738020       -9.74723479496427       -1.11660101121511
H           62.76761216685122       -7.56138491641929       -2.25847625901834
H           62.82525916737315       -5.10417385760163       -2.22721061696710
H           59.68896478635080       -4.48645818239887        0.25630330498736
H           57.86484939522344       -2.66068262643546        0.33279703558560
H           58.17525350900614        2.58381792782051       -0.77967408089939
H           60.13029435862235        4.45378012149813       -0.76322204369777
H           63.69025226235316        5.34146576879680       -1.70806130848235
H           63.64282878967246        7.78839192660433       -1.49398295157809
H           63.05415652741655        9.85459653894969       -0.24814872431395
H           61.57781687392926        7.41161984649848        2.27266291790012
H           61.62917987607051        4.96718739788553        2.05255608367564
H           65.40935426899402        4.46375598369024        0.44641570387234
H           67.11071254044280        2.50650795682778        0.33244896488585
C           38.13733757237026       -0.01082995961449        0.01110730361046
C           36.90886541608347       -0.02318430040470        0.00289380215075
C           35.49707461813622       -0.01512338770228       -0.00781870871882
C           34.26393628430902       -0.01141271373743        0.00122017449299
C           39.51073243354622       -0.01671114562434        0.01254241958873
C           40.72633818267833       -0.01478858562175       -0.00197077013155
C           54.05013577482781       -0.01071314236873        0.01110051385946
C           52.82128016356560       -0.02431111525784        0.00416093044803
C           51.44435783597766       -0.01906710718928       -0.00933817189749
C           50.22782140693538       -0.02268864000831       -0.00590932819313
C           55.46018376513587       -0.01582652042269        0.01162086253122
C           56.69427557863605       -0.00566667585994        0.00267112819455
Co          45.45783500566518       -0.01819553629377        0.01470004725599
C           42.05760441119331        0.00743876460784       -0.00400982102268
C           42.71013698539199        1.16916573499329        0.30367441045743
C           42.04377371542919        2.43883316273629        0.56176303104336
C           42.99216161618610        3.32683476287274        0.86888655354266
C           44.27906634609490        2.64155838833964        0.82101501580558
N           44.09627193361933        1.29149908681673        0.45266071164463
C           45.47612920958705        3.22712598091568        1.10689419847799
C           45.50169896601336        4.64828268527936        1.52957927499058
C           45.99767523671226        5.62980241497169        0.66345378803072
C           46.03900041735483        6.96091481720532        1.05999190595000
C           45.58510669832137        7.33812190496828        2.33426160513622
C           45.61797591626351        8.75036964027773        2.75853499232730
O           46.06860832475754        9.63128764391753        2.04095105646928
C           45.09325598667542        6.35166040043416        3.19845536425481
C           45.04981076874877        5.02052680914878        2.79935964393390
C           46.74431993709217        2.53328672962623        1.01973657369101
C           48.00583454623922        3.07008448946115        1.51720534920022
C           48.96631026193014        2.18668403802231        1.21616610739273
N           46.91605687049391        1.35607093191610        0.44896278734011
C           48.29446858024501        1.09869068868868        0.53610371852676
C           48.89475020259811        0.01368290043416       -0.01488414500369
C           48.16080581763880       -1.05822888864426       -0.66801701523145
C           48.72065502105050       -1.95101000955686       -1.52995551313217
C           47.71025481168446       -2.89957036986545       -1.85212017169007
C           46.58675026838643       -2.54081649136748       -1.16795682847960
N           46.80844621870526       -1.35780226612136       -0.42661834042505
C           45.35805550955350       -3.32641590797937       -1.15440231517921
C           45.41445080669304       -4.76736420334367       -1.51700142875172
C           46.17312987829580       -5.65296554021875       -0.74092574087301
C           46.24198387765780       -7.00190557634916       -1.07253683498564
C           45.55629470522917       -7.49718872664988       -2.19133095195853
C           45.62796517501562       -8.92902818489726       -2.53850132751196
O           45.02894789704097       -9.39869402463726       -3.49667421250687
C           44.79966217558539       -6.60897854147535       -2.97253316164189
C           44.72770283336538       -5.26060268395230       -2.63709976655553
C           44.17404570567741       -2.77583599573779       -0.79733699681700
C           42.90283892022388       -3.46894419200157       -0.67716735915167
C           41.99552421395165       -2.53745191364425       -0.35994779549498
C           42.70306330948168       -1.26437475223593       -0.27315845432460
N           43.98533501751931       -1.40044300923772       -0.51566180455931
H           40.98445177729509        2.66460141664844        0.51841675997003
H           42.80775220413945        4.36611452473960        1.10345448479827
H           46.34912011572536        5.35255066129221       -0.32526072571727
H           46.42653668640998        7.70608758303062        0.37298892631086
H           45.21761632759045        9.00891015315561        3.75133979813966
H           44.74287208921523        6.62103090241384        4.18861898369651
H           44.67093895659261        4.26837909135504        3.48138143285819
H           48.16200765656551        4.00044504897307        2.03673490283357
H           50.01966593473557        2.29700935592002        1.44892612384840
H           49.74127050918635       -1.94968602516951       -1.88156489458392
H           47.81270057912070       -3.76077374618498       -2.49240285535917
H           46.70760704543616       -5.28867289265511        0.13013515058069
H           46.83551523441410       -7.67073139655294       -0.45658288422058
H           46.23990015871595       -9.58717553753839       -1.90781277016170
H           44.26730973080529       -6.96790034625855       -3.84815396406567
H           44.14543368270337       -4.58658762010640       -3.25810727540974
H           42.70390731152035       -4.52481261301449       -0.80450111319132
H           40.94636446887050       -2.72821494268663       -0.19211999931802
191