      -----------------------------------------------------------      
     |                   =====================                   |     
     |                           x T B                           |     
     |                   =====================                   |     
     |                         S. Grimme                         |     
     |          Mulliken Center for Theoretical Chemistry        |     
     |                    University of Bonn                     |     
      -----------------------------------------------------------      

   * xtb version 6.5.1 (b24c23e) compiled by 'conda@728c89f4b128' on 2022-07-12

   xtb is free software: you can redistribute it and/or modify it under
   the terms of the GNU Lesser General Public License as published by
   the Free Software Foundation, either version 3 of the License, or
   (at your option) any later version.
   
   xtb is distributed in the hope that it will be useful,
   but WITHOUT ANY WARRANTY; without even the implied warranty of
   MERCHANTABILITY or FITNESS FOR A PARTICULAR PURPOSE.  See the
   GNU Lesser General Public License for more details.
   
   Cite this work as:
   * C. Bannwarth, E. Caldeweyher, S. Ehlert, A. Hansen, P. Pracht,
     J. Seibert, S. Spicher, S. Grimme, WIREs Comput. Mol. Sci., 2020, 11,
     e01493. DOI: 10.1002/wcms.1493
   
   for GFN2-xTB:
   * C. Bannwarth, S. Ehlert and S. Grimme., J. Chem. Theory Comput., 2019,
     15, 1652-1671. DOI: 10.1021/acs.jctc.8b01176
   for GFN1-xTB:
   * S. Grimme, C. Bannwarth, P. Shushkov, J. Chem. Theory Comput., 2017,
     13, 1989-2009. DOI: 10.1021/acs.jctc.7b00118
   for GFN0-xTB:
   * P. Pracht, E. Caldeweyher, S. Ehlert, S. Grimme, ChemRxiv, 2019, preprint.
     DOI: 10.26434/chemrxiv.8326202.v1
   for GFN-FF:
   * S. Spicher and S. Grimme, Angew. Chem. Int. Ed., 2020, 59, 15665-15673.
     DOI: 10.1002/anie.202004239
   
   for ALPB and GBSA implicit solvation:
   * S. Ehlert, M. Stahn, S. Spicher, S. Grimme, J. Chem. Theory Comput.,
     2021, 17, 4250-4261. DOI: 10.1021/acs.jctc.1c00471
   
   for DFT-D4:
   * E. Caldeweyher, C. Bannwarth and S. Grimme, J. Chem. Phys., 2017,
     147, 034112. DOI: 10.1063/1.4993215
   * E. Caldeweyher, S. Ehlert, A. Hansen, H. Neugebauer, S. Spicher,
     C. Bannwarth and S. Grimme, J. Chem. Phys., 2019, 150, 154122.
     DOI: 10.1063/1.5090222
   * E. Caldeweyher, J.-M. Mewes, S. Ehlert and S. Grimme, Phys. Chem. Chem. Phys.
     2020, 22, 8499-8512. DOI: 10.1039/D0CP00502A
   
   for sTDA-xTB:
   * S. Grimme and C. Bannwarth, J. Chem. Phys., 2016, 145, 054103.
     DOI: 10.1063/1.4959605
   
   in the mass-spec context:
   * V. Asgeirsson, C. Bauer and S. Grimme, Chem. Sci., 2017, 8, 4879.
     DOI: 10.1039/c7sc00601b
   * J. Koopman and S. Grimme, ACS Omega 2019, 4, 12, 15120-15133.
     DOI: 10.1021/acsomega.9b02011
   
   for metadynamics refer to:
   * S. Grimme, J. Chem. Theory Comput., 2019, 155, 2847-2862
     DOI: 10.1021/acs.jctc.9b00143
   
   for SPH calculations refer to:
   * S. Spicher and S. Grimme, J. Chem. Theory Comput., 2021, 17, 1701-1714
     DOI: 10.1021/acs.jctc.0c01306
   
   with help from (in alphabetical order)
   P. Atkinson, C. Bannwarth, F. Bohle, G. Brandenburg, E. Caldeweyher
   M. Checinski, S. Dohm, S. Ehlert, S. Ehrlich, I. Gerasimov, C. Hölzer
   A. Katbashev, J. Koopman, C. Lavigne, S. Lehtola, F. März, M. Müller,
   F. Musil, H. Neugebauer, J. Pisarek, C. Plett, P. Pracht, F. Pultar,
   J. Seibert, P. Shushkov, S. Spicher, M. Stahn, M. Steiner, T. Strunk,
   J. Stückrath, T. Rose, and J. Unsleber
   
 * started run on 2022/07/30 at 01:28:01.204     

           -------------------------------------------------
          |                Calculation Setup                |
           -------------------------------------------------

          program call               : xtb Co_Ph2OMe_C2_3.xyz --gfn 1 --opt -T 48
          hostname                   : cx3-15-13.cx3.hpc.ic.ac.uk
          coordinate file            : Co_Ph2OMe_C2_3.xyz
          omp threads                :                     1

   ID    Z sym.   atoms
    1   27 Co     1, 73, 149
    2    6 C      2-6, 8-11, 13-21, 23-27, 29-33, 36, 37, 39-43, 45, 74-78,
                  80-83, 85-93, 95-99, 101-105, 108, 109, 111-115, 117,
                  145-148, 150-154, 156-159, 161-169, 171-175, 177-181, 184,
                  185, 187-191, 193
    3    7 N      7, 12, 34, 35, 79, 84, 106, 107, 155, 160, 182, 183
    4    8 O      22, 28, 38, 44, 94, 100, 110, 116, 170, 176, 186, 192
    5    1 H      46-72, 118-144, 194-219
########################################################################
[WARNING] Please study the warnings concerning your input carefully
-1- prog_main_parseArguments: Unknown option '-T' provided
########################################################################

           -------------------------------------------------
          |                 G F N 1 - x T B                 |
           -------------------------------------------------

        Reference                      10.1021/acs.jctc.7b00118
      * Hamiltonian:
        H0-scaling (s, p, d)           1.850000    2.250000    2.000000
        zeta-weighting                 0.000000
      * Dispersion:
        s8                             2.400000
        a1                             0.630000
        a2                             5.000000
        s9                             0.000000
      * Repulsion:
        kExp                           1.500000
        rExp                           1.000000
      * Coulomb:
        alpha                          2.000000
        third order                    atomic
        anisotropic                    false
      * Halogen bond correction:
        rad-scale                      1.300000
        damping                        0.440000


          ...................................................
          :                      SETUP                      :
          :.................................................:
          :  # basis functions                 734          :
          :  # atomic orbitals                 731          :
          :  # shells                          441          :
          :  # electrons                       687          :
          :  # halogen bonds                     0          :
          :  max. iterations                   250          :
          :  Hamiltonian                  GFN1-xTB          :
          :  restarted?                      false          :
          :  GBSA solvation                  false          :
          :  PC potential                    false          :
          :  electronic temp.          300.0000000     K    :
          :  accuracy                    1.0000000          :
          :  -> integral cutoff          0.2500000E+02      :
          :  -> integral neglect         0.1000000E-07      :
          :  -> SCF convergence          0.1000000E-05 Eh   :
          :  -> wf. convergence          0.2000000E-04 e    :
          :  Broyden damping             0.4000000          :
          ...................................................

 iter      E             dE          RMSdq      gap      omega  full diag
   1   -387.9953564 -0.387995E+03  0.104E+01    0.38       0.0  T
   2   -356.7237527  0.312716E+02  0.994E+00    0.05       1.0  T
   3   -362.6607047 -0.593695E+01  0.690E+00    0.11       1.0  T
   4    273.0076414  0.635668E+03  0.142E+01    0.03       1.0  T
   5   -297.4564286 -0.570464E+03  0.785E+00    0.01       1.0  T
   6   -353.9331906 -0.564768E+02  0.536E+00    0.07       1.0  T
   7   -368.9557768 -0.150226E+02  0.485E+00    0.05       1.0  T
   8   -380.2652624 -0.113095E+02  0.384E+00    0.02       1.0  T
   9   -386.5089927 -0.624373E+01  0.307E+00    0.03       1.0  T
  10   -386.3441167  0.164876E+00  0.295E+00    0.01       1.0  T
  11   -387.8550779 -0.151096E+01  0.254E+00    0.05       1.0  T
  12   -386.8026300  0.105245E+01  0.257E+00    0.10       1.0  T
  13   -389.1105263 -0.230790E+01  0.150E+00    0.24       1.0  T
  14   -389.0107047  0.998215E-01  0.132E+00    0.03       1.0  T
  15   -388.4998052  0.510900E+00  0.159E+00    0.13       1.0  T
  16   -389.2474404 -0.747635E+00  0.109E+00    0.07       1.0  T
  17   -388.8370426  0.410398E+00  0.132E+00    0.04       1.0  T
  18   -388.8926454 -0.556028E-01  0.128E+00    0.03       1.0  T
  19   -389.6729922 -0.780347E+00  0.585E-01    0.07       1.0  T
  20   -389.0129260  0.660066E+00  0.127E+00    0.05       1.0  T
  21   -389.6786720 -0.665746E+00  0.619E-01    0.05       1.0  T
  22   -389.6233500  0.553220E-01  0.675E-01    0.09       1.0  T
  23   -389.8004790 -0.177129E+00  0.434E-01    0.05       1.0  T
  24   -389.8129412 -0.124622E-01  0.296E-01    0.05       1.0  T
  25   -389.6101862  0.202755E+00  0.709E-01    0.02       1.0  T
  26   -389.6419144 -0.317282E-01  0.651E-01    0.02       1.0  T
  27   -389.7383695 -0.964550E-01  0.486E-01    0.03       1.0  T
  28   -389.8230568 -0.846873E-01  0.280E-01    0.03       1.0  T
  29   -389.8554646 -0.324078E-01  0.168E-01    0.03       1.0  T
  30   -389.8646658 -0.920114E-02  0.101E-01    0.03       1.0  T
  31   -389.8698881 -0.522227E-02  0.451E-02    0.03       1.0  T
  32   -389.8709891 -0.110102E-02  0.106E-02    0.03       1.0  T
  33   -389.8702298  0.759233E-03  0.390E-02    0.03       1.0  T
  34   -389.8706222 -0.392313E-03  0.276E-02    0.03       1.0  T
  35   -389.8710311 -0.408983E-03  0.600E-03    0.03       1.1  T
  36   -389.8710304  0.714986E-06  0.663E-03    0.03       1.0  T
  37   -389.8710507 -0.203232E-04  0.240E-03    0.03       2.8  T
  38   -389.8710444  0.634486E-05  0.400E-03    0.03       1.7  T
  39   -389.8710523 -0.792961E-05  0.160E-03    0.03       4.2  T
  40   -389.8710539 -0.151817E-05  0.408E-04    0.03      16.5  T
  41   -389.8710539 -0.589280E-07  0.201E-04    0.03      33.6  T
  42   -389.8710539 -0.565706E-09  0.184E-04    0.03      36.8  T
  43   -389.8710539 -0.580548E-08  0.144E-04    0.03      46.8  T

   *** convergence criteria satisfied after 43 iterations ***

         #    Occupation            Energy/Eh            Energy/eV
      -------------------------------------------------------------
         1        2.0000           -0.7957980             -21.6548
       ...           ...                  ...                  ...
       338        2.0000           -0.3692967             -10.0491
       339        2.0000           -0.3690589             -10.0426
       340        1.8643           -0.3603621              -9.8060
       341        1.7047           -0.3595188              -9.7830
       342        1.6498           -0.3593186              -9.7776
       343        1.5126           -0.3589042              -9.7663
       344        1.4229           -0.3586734              -9.7600 (HOMO)
       345        0.8457           -0.3574394              -9.7264 (LUMO)
       346                         -0.3289367              -8.9508
       347                         -0.3147514              -8.5648
       348                         -0.3135165              -8.5312
       349                         -0.3108844              -8.4596
       ...                                ...                  ...
       731                          3.4258148              93.2212
      -------------------------------------------------------------
                  HL-Gap            0.0012340 Eh            0.0336 eV
             Fermi-level           -0.3577569 Eh           -9.7351 eV

 SCC (total)                   0 d,  0 h,  0 min, 11.539 sec
 SCC setup                      ...        0 min,  0.017 sec (  0.151%)
 Dispersion                     ...        0 min,  0.013 sec (  0.115%)
 classical contributions        ...        0 min,  0.004 sec (  0.038%)
 integral evaluation            ...        0 min,  0.402 sec (  3.487%)
 iterations                     ...        0 min, 10.137 sec ( 87.850%)
 molecular gradient             ...        0 min,  0.894 sec (  7.745%)
 printout                       ...        0 min,  0.071 sec (  0.616%)

         :::::::::::::::::::::::::::::::::::::::::::::::::::::
         ::                     SUMMARY                     ::
         :::::::::::::::::::::::::::::::::::::::::::::::::::::
         :: total energy            -384.296873799501 Eh    ::
         :: gradient norm              1.955277681276 Eh/a0 ::
         :: HOMO-LUMO gap              0.033578067143 eV    ::
         ::.................................................::
         :: SCC energy              -389.871053915590 Eh    ::
         :: -> electrostatic           0.605733925471 Eh    ::
         :: repulsion energy           5.766775648133 Eh    ::
         :: dispersion energy         -0.192595532044 Eh    ::
         :: halogen bond corr.         0.000000000000 Eh    ::
         :: add. restraining           0.000000000000 Eh    ::
         :: total charge               0.000000000861 e     ::
         :::::::::::::::::::::::::::::::::::::::::::::::::::::

      ----------------------------------------------------------- 
     |                   =====================                   |
     |                        A N C O P T                        |
     |                   =====================                   |
     |               Approximate Normal Coordinate               |
     |                Rational Function Optimizer                |
      ----------------------------------------------------------- 

          ...................................................
          :                      SETUP                      :
          :.................................................:
          :   optimization level            normal          :
          :   max. optcycles                   657          :
          :   ANC micro-cycles                  20          :
          :   degrees of freedom               651          :
          :.................................................:
          :   RF solver                   davidson          :
          :   write xtbopt.log                true          :
          :   linear?                        false          :
          :   energy convergence         0.5000000E-05 Eh   :
          :   grad. convergence          0.1000000E-02 Eh/α :
          :   maximium RF displ.         1.0000000          :
          :   Hlow (freq-cutoff)         0.1000000E-01      :
          :   Hmax (freq-cutoff)         5.0000000          :
          :   S6 in model hess.         20.0000000          :
          ...................................................

generating ANC from model Hessian ...
Using Lindh-Hessian (1995)
 Shifting diagonal of input Hessian by    1.0014820908094118E-002
 Lowest  eigenvalues of input Hessian
    0.010000    0.010002    0.010003    0.010008    0.010010    0.000000
    0.000000    0.000000    0.000000    0.000000    0.000000    0.010015
    0.010052    0.010081    0.010088    0.010123    0.010148    0.010152
 Highest eigenvalues
    2.102796    2.104566    2.833074    3.067664    3.721695    3.924574


........................................................................
.............................. CYCLE    1 ..............................
........................................................................
   1   -389.8710539 -0.389871E+03  0.174E-04    0.03       0.0  T
   2   -389.8709414  0.112512E-03  0.137E-02    0.03       1.0  T
   3   -389.8710535 -0.112149E-03  0.797E-04    0.03       8.5  T
   4   -389.8710513  0.222470E-05  0.218E-03    0.03       3.1  T
   5   -389.8710537 -0.235344E-05  0.730E-04    0.03       9.3  T
   6   -389.8710538 -0.148305E-06  0.402E-04    0.03      16.8  T
   7   -389.8710539 -0.513601E-07  0.289E-04    0.03      23.4  T
   8   -389.8710539 -0.366740E-07  0.157E-04    0.03      43.1  T
   9   -389.8710539 -0.117850E-07  0.549E-05    0.03     123.2  T
     SCC iter.                  ...        0 min,  2.064 sec
     gradient                   ...        0 min,  0.987 sec
 * total energy  :  -384.2968738 Eh     change       -0.7332005E-08 Eh
   gradient norm :     1.9552788 Eh/α   predicted     0.0000000E+00 (-100.00%)
   displ. norm   :     0.5561969 α      lambda       -0.9892406E+00
   maximum displ.:     0.2788645 α      in ANC's #651, #650, #538, ...

........................................................................
.............................. CYCLE    2 ..............................
........................................................................
   1   -389.8891619 -0.389889E+03  0.360E-01    0.00       0.0  T
   2   -387.7397701  0.214939E+01  0.208E+00    0.09       1.0  T
   3   -389.5530138 -0.181324E+01  0.890E-01    0.23       1.0  T
   4   -389.7871286 -0.234115E+00  0.535E-01    0.01       1.0  T
   5   -389.5953203  0.191808E+00  0.831E-01    0.04       1.0  T
   6   -389.1268096  0.468511E+00  0.123E+00    0.06       1.0  T
   7   -389.6913440 -0.564534E+00  0.664E-01    0.03       1.0  T
   8   -389.0558077  0.635536E+00  0.121E+00    0.04       1.0  T
   9   -389.7058642 -0.650057E+00  0.657E-01    0.03       1.0  T
  10   -389.7779931 -0.721288E-01  0.552E-01    0.02       1.0  T
  11   -389.9374933 -0.159500E+00  0.150E-01    0.02       1.0  T
  12   -389.9454489 -0.795566E-02  0.952E-02    0.01       1.0  T
  13   -389.9500656 -0.461668E-02  0.339E-02    0.02       1.0  T
  14   -389.9505161 -0.450443E-03  0.207E-02    0.01       1.0  T
  15   -389.9473838  0.313223E-02  0.754E-02    0.01       1.0  T
  16   -389.9504859 -0.310202E-02  0.207E-02    0.01       1.0  T
  17   -389.9505680 -0.821512E-04  0.173E-02    0.01       1.0  T
  18   -389.9507284 -0.160421E-03  0.502E-03    0.01       1.3  T
  19   -389.9507343 -0.585556E-05  0.397E-03    0.01       1.7  T
  20   -389.9507424 -0.810294E-05  0.151E-03    0.01       4.5  T
  21   -389.9507438 -0.137049E-05  0.161E-04    0.01      42.0  T
  22   -389.9507437  0.763694E-07  0.401E-04    0.01      16.8  T
  23   -389.9507438 -0.722640E-07  0.165E-04    0.01      40.9  T
  24   -389.9507438 -0.162906E-07  0.632E-06    0.01    1069.5  T
     SCC iter.                  ...        0 min,  5.448 sec
     gradient                   ...        0 min,  0.997 sec
 * total energy  :  -384.8303524 Eh     change       -0.5334785E+00 Eh
   gradient norm :     0.4829183 Eh/α   predicted    -0.6476413E+00 (  21.40%)
   displ. norm   :     0.5263369 α      lambda       -0.1940103E+00
   maximum displ.:     0.1112289 α      in ANC's #172, #321, #538, ...

........................................................................
.............................. CYCLE    3 ..............................
........................................................................
   1   -389.9934646 -0.389993E+03  0.142E-01    0.00       0.0  T
   2   -389.5488687  0.444596E+00  0.909E-01    0.05       1.0  T
   3   -389.7757980 -0.226929E+00  0.655E-01    0.01       1.0  T
   4   -389.2939962  0.481802E+00  0.110E+00    0.10       1.0  T
   5   -389.9093970 -0.615401E+00  0.401E-01    0.03       1.0  T
   6   -389.9967898 -0.873929E-01  0.814E-02    0.00       1.0  T
   7   -389.7793989  0.217391E+00  0.645E-01    0.05       1.0  T
   8   -389.8559370 -0.765381E-01  0.511E-01    0.03       1.0  T
   9   -389.8565946 -0.657625E-03  0.527E-01    0.03       1.0  T
  10   -389.9822498 -0.125655E+00  0.178E-01    0.01       1.0  T
  11   -389.9969416 -0.146918E-01  0.789E-02    0.01       1.0  T
  12   -389.9940938  0.284786E-02  0.106E-01    0.00       1.0  T
  13   -389.9989551 -0.486138E-02  0.572E-02    0.00       1.0  T
  14   -390.0000051 -0.105000E-02  0.329E-02    0.00       1.0  T
  15   -390.0005986 -0.593477E-03  0.210E-03    0.00       3.2  T
  16   -390.0005828  0.158504E-04  0.606E-03    0.00       1.1  T
  17   -390.0005984 -0.155953E-04  0.211E-03    0.00       3.2  T
  18   -390.0006004 -0.198486E-05  0.986E-04    0.00       6.9  T
  19   -390.0006006 -0.287978E-06  0.736E-04    0.00       9.2  T
  20   -390.0006008 -0.132043E-06  0.522E-04    0.00      12.9  T
  21   -390.0006009 -0.119458E-06  0.180E-04    0.00      37.6  T
  22   -390.0006009 -0.159111E-07  0.181E-05    0.00     373.1  T
     SCC iter.                  ...        0 min,  4.822 sec
     gradient                   ...        0 min,  0.950 sec
 * total energy  :  -384.9801020 Eh     change       -0.1497496E+00 Eh
   gradient norm :     0.2796864 Eh/α   predicted    -0.1238788E+00 ( -17.28%)
   displ. norm   :     0.5905240 α      lambda       -0.1181949E+00
   maximum displ.:     0.1439935 α      in ANC's #172, #132, #321, ...

........................................................................
.............................. CYCLE    4 ..............................
........................................................................
   1   -390.0968470 -0.390097E+03  0.130E-01    0.00       0.0  T
   2   -389.8612506  0.235596E+00  0.682E-01    0.04       1.0  T
   3   -389.5679376  0.293313E+00  0.100E+00    0.14       1.0  T
   4   -389.2329171  0.335020E+00  0.123E+00    0.17       1.0  T
   5   -390.0849701 -0.852053E+00  0.177E-01    0.00       1.0  T
   6   -390.0953697 -0.103996E-01  0.130E-01    0.00       1.0  T
   7   -390.0683168  0.270529E-01  0.244E-01    0.01       1.0  T
   8   -390.0395046  0.288122E-01  0.338E-01    0.00       1.0  T
   9   -390.0955948 -0.560902E-01  0.116E-01    0.00       1.0  T
  10   -390.0805996  0.149952E-01  0.195E-01    0.02       1.0  T
  11   -390.0967928 -0.161932E-01  0.987E-02    0.01       1.0  T
  12   -390.1009237 -0.413082E-02  0.520E-02    0.00       1.0  T
  13   -390.1019949 -0.107122E-02  0.241E-02    0.00       1.0  T
  14   -390.1021520 -0.157147E-03  0.180E-02    0.00       1.0  T
  15   -390.1022447 -0.926878E-04  0.119E-02    0.00       1.0  T
  16   -390.1023214 -0.767205E-04  0.152E-03    0.00       4.4  T
  17   -390.1023216 -0.184153E-06  0.141E-03    0.00       4.8  T
  18   -390.1023215  0.997975E-07  0.142E-03    0.00       4.8  T
  19   -390.1023225 -0.101835E-05  0.505E-04    0.00      13.4  T
  20   -390.1023227 -0.130532E-06  0.151E-04    0.00      44.7  T
  21   -390.1023227 -0.119737E-07  0.447E-05    0.00     151.0  T
     SCC iter.                  ...        0 min,  4.627 sec
     gradient                   ...        0 min,  0.987 sec
 * total energy  :  -385.0589155 Eh     change       -0.7881352E-01 Eh
   gradient norm :     0.1099094 Eh/α   predicted    -0.7970606E-01 (   1.13%)
   displ. norm   :     0.6197950 α      lambda       -0.4206348E-01
   maximum displ.:     0.2619334 α      in ANC's #132, #84, #172, ...

........................................................................
.............................. CYCLE    5 ..............................
........................................................................
   1   -390.1896581 -0.390190E+03  0.118E-01    0.00       0.0  T
   2   -389.8813297  0.308328E+00  0.820E-01    0.04       1.0  T
   3   -389.5349570  0.346373E+00  0.106E+00    0.18       1.0  T
   4   -389.7268569 -0.191900E+00  0.932E-01    0.13       1.0  T
   5   -390.1423376 -0.415481E+00  0.306E-01    0.00       1.0  T
   6   -390.1650868 -0.227492E-01  0.242E-01    0.00       1.0  T
   7   -390.0578018  0.107285E+00  0.490E-01    0.05       1.0  T
   8   -390.1207136 -0.629118E-01  0.357E-01    0.03       1.0  T
   9   -390.1045980  0.161157E-01  0.402E-01    0.01       1.0  T
  10   -390.1872591 -0.826611E-01  0.116E-01    0.01       1.0  T
  11   -390.1930352 -0.577613E-02  0.464E-02    0.00       1.0  T
  12   -390.1932223 -0.187138E-03  0.441E-02    0.01       1.0  T
  13   -390.1938174 -0.595080E-03  0.276E-02    0.00       1.0  T
  14   -390.1941283 -0.310864E-03  0.152E-02    0.00       1.0  T
  15   -390.1942470 -0.118684E-03  0.951E-04    0.00       7.1  T
  16   -390.1942454  0.159077E-05  0.193E-03    0.00       3.5  T
  17   -390.1942471 -0.170674E-05  0.661E-04    0.00      10.2  T
  18   -390.1942473 -0.213081E-06  0.204E-04    0.00      33.2  T
  19   -390.1942473 -0.172656E-07  0.886E-05    0.00      76.2  T
  20   -390.1942473 -0.393584E-08  0.285E-05    0.00     237.2  T
     SCC iter.                  ...        0 min,  4.483 sec
     gradient                   ...        0 min,  1.008 sec
 * total energy  :  -385.0908525 Eh     change       -0.3193705E-01 Eh
   gradient norm :     0.0565262 Eh/α   predicted    -0.2911102E-01 (  -8.85%)
   displ. norm   :     0.6479838 α      lambda       -0.2296463E-01
   maximum displ.:     0.2702921 α      in ANC's #132, #84, #144, ...

........................................................................
.............................. CYCLE    6 ..............................
........................................................................
   1   -390.2529357 -0.390253E+03  0.115E-01    0.00       0.0  T
   2   -390.0194101  0.233526E+00  0.759E-01    0.16       1.0  T
   3   -389.6640164  0.355394E+00  0.100E+00    0.19       1.0  T
   4   -390.1479365 -0.483920E+00  0.453E-01    0.03       1.0  T
   5   -390.2371234 -0.891869E-01  0.185E-01    0.01       1.0  T
   6   -390.2446434 -0.751992E-02  0.154E-01    0.00       1.0  T
   7   -390.2345682  0.100752E-01  0.201E-01    0.00       1.0  T
   8   -390.2392449 -0.467671E-02  0.181E-01    0.00       1.0  T
   9   -390.2360803  0.316462E-02  0.191E-01    0.01       1.0  T
  10   -390.2553027 -0.192224E-01  0.575E-02    0.01       1.0  T
  11   -390.2570835 -0.178085E-02  0.753E-03    0.00       1.0  T
  12   -390.2570150  0.685142E-04  0.136E-02    0.00       1.0  T
  13   -390.2570856 -0.705620E-04  0.755E-03    0.00       1.0  T
  14   -390.2571156 -0.300492E-04  0.114E-03    0.00       6.0  T
  15   -390.2571088  0.684132E-05  0.367E-03    0.00       1.8  T
  16   -390.2571149 -0.616350E-05  0.150E-03    0.00       4.5  T
  17   -390.2571158 -0.842626E-06  0.860E-04    0.00       7.9  T
  18   -390.2571162 -0.367829E-06  0.283E-04    0.00      23.9  T
  19   -390.2571162 -0.407657E-07  0.829E-05    0.00      81.5  T
  20   -390.2571162 -0.363241E-08  0.196E-05    0.00     344.8  T
     SCC iter.                  ...        0 min,  4.442 sec
     gradient                   ...        0 min,  0.997 sec
 * total energy  :  -385.1079640 Eh     change       -0.1711147E-01 Eh
   gradient norm :     0.0310597 Eh/α   predicted    -0.1630355E-01 (  -4.72%)
   displ. norm   :     0.6030940 α      lambda       -0.1114061E-01
   maximum displ.:     0.2452283 α      in ANC's #84, #132, #81, ...

........................................................................
.............................. CYCLE    7 ..............................
........................................................................
   1   -390.2966466 -0.390297E+03  0.914E-02    0.00       0.0  T
   2   -390.0656676  0.230979E+00  0.718E-01    0.12       1.0  T
   3   -389.8806066  0.185061E+00  0.864E-01    0.14       1.0  T
   4   -390.1174499 -0.236843E+00  0.578E-01    0.06       1.0  T
   5   -390.2599218 -0.142472E+00  0.258E-01    0.02       1.0  T
   6   -390.2828779 -0.229561E-01  0.184E-01    0.01       1.0  T
   7   -390.2864326 -0.355466E-02  0.155E-01    0.01       1.0  T
   8   -390.2889154 -0.248282E-02  0.139E-01    0.01       1.0  T
   9   -390.2991073 -0.101919E-01  0.164E-02    0.01       1.0  T
  10   -390.2979542  0.115312E-02  0.477E-02    0.01       1.0  T
  11   -390.2991910 -0.123678E-02  0.690E-03    0.01       1.0  T
  12   -390.2991934 -0.244431E-05  0.645E-03    0.01       1.0  T
  13   -390.2992094 -0.159965E-04  0.335E-03    0.01       2.0  T
  14   -390.2992119 -0.246161E-05  0.259E-03    0.01       2.6  T
  15   -390.2992154 -0.353521E-05  0.695E-04    0.01       9.7  T
  16   -390.2992155 -0.774891E-07  0.550E-04    0.01      12.3  T
  17   -390.2992156 -0.136590E-06  0.200E-04    0.01      33.7  T
  18   -390.2992156 -0.160380E-07  0.983E-05    0.01      68.7  T
  19   -390.2992156 -0.409642E-08  0.413E-05    0.01     163.7  T
     SCC iter.                  ...        0 min,  4.243 sec
     gradient                   ...        0 min,  1.011 sec
 * total energy  :  -385.1162464 Eh     change       -0.8282384E-02 Eh
   gradient norm :     0.0229070 Eh/α   predicted    -0.7596357E-02 (  -8.28%)
   displ. norm   :     0.5464259 α      lambda       -0.5537231E-02
   maximum displ.:     0.2412973 α      in ANC's #84, #45, #44, ...

........................................................................
.............................. CYCLE    8 ..............................
........................................................................
   1   -390.3272252 -0.390327E+03  0.572E-02    0.01       0.0  T
   2   -390.2504112  0.768140E-01  0.483E-01    0.08       1.0  T
   3   -390.2833463 -0.329351E-01  0.282E-01    0.00       1.0  T
   4   -390.3268727 -0.435264E-01  0.589E-02    0.01       1.0  T
   5   -390.2438289  0.830437E-01  0.393E-01    0.03       1.0  T
   6   -390.3276378 -0.838088E-01  0.375E-02    0.01       1.0  T
   7   -390.3269828  0.654970E-03  0.468E-02    0.00       1.0  T
   8   -390.3278976 -0.914810E-03  0.230E-02    0.01       1.0  T
   9   -390.3280579 -0.160249E-03  0.139E-02    0.01       1.0  T
  10   -390.3281598 -0.101916E-03  0.200E-03    0.01       3.4  T
  11   -390.3281552  0.455961E-05  0.347E-03    0.01       1.9  T
  12   -390.3281615 -0.629514E-05  0.957E-04    0.01       7.1  T
  13   -390.3281620 -0.472041E-06  0.244E-04    0.01      27.7  T
  14   -390.3281620 -0.222266E-07  0.135E-04    0.01      50.0  T
  15   -390.3281620 -0.486170E-08  0.930E-05    0.01      72.7  T
     SCC iter.                  ...        0 min,  3.353 sec
     gradient                   ...        0 min,  1.023 sec
 * total energy  :  -385.1202553 Eh     change       -0.4008919E-02 Eh
   gradient norm :     0.0158144 Eh/α   predicted    -0.3595287E-02 ( -10.32%)
   displ. norm   :     0.4749231 α      lambda       -0.2577766E-02
   maximum displ.:     0.1923354 α      in ANC's #45, #84, #44, ...

........................................................................
.............................. CYCLE    9 ..............................
........................................................................
   1   -390.3479466 -0.390348E+03  0.315E-02    0.01       0.0  T
   2   -390.1194513  0.228495E+00  0.666E-01    0.06       1.0  T
   3   -390.2243120 -0.104861E+00  0.464E-01    0.01       1.0  T
   4   -390.2289134 -0.460140E-02  0.471E-01    0.04       1.0  T
   5   -390.3419581 -0.113045E+00  0.108E-01    0.01       1.0  T
   6   -390.3475280 -0.556982E-02  0.354E-02    0.01       1.0  T
   7   -390.3481122 -0.584294E-03  0.175E-02    0.01       1.0  T
   8   -390.3479180  0.194253E-03  0.247E-02    0.01       1.0  T
   9   -390.3482402 -0.322239E-03  0.657E-03    0.01       1.0  T
  10   -390.3481699  0.703139E-04  0.128E-02    0.01       1.0  T
  11   -390.3482532 -0.833122E-04  0.402E-03    0.01       1.7  T
  12   -390.3482617 -0.844805E-05  0.892E-04    0.01       7.6  T
  13   -390.3482620 -0.305547E-06  0.497E-04    0.01      13.6  T
  14   -390.3482621 -0.113186E-06  0.224E-04    0.01      30.2  T
  15   -390.3482621 -0.191265E-07  0.110E-04    0.01      61.7  T
  16   -390.3482621 -0.561420E-08  0.291E-05    0.01     232.1  T
     SCC iter.                  ...        0 min,  3.747 sec
     gradient                   ...        0 min,  0.943 sec
 * total energy  :  -385.1221215 Eh     change       -0.1866164E-02 Eh
   gradient norm :     0.0120342 Eh/α   predicted    -0.1579615E-02 ( -15.36%)
   displ. norm   :     0.4399676 α      lambda       -0.1422856E-02
   maximum displ.:     0.2162582 α      in ANC's #45, #44, #49, ...

........................................................................
.............................. CYCLE   10 ..............................
........................................................................
   1   -390.3613478 -0.390361E+03  0.246E-02    0.01       0.0  T
   2   -389.9942275  0.367120E+00  0.811E-01    0.13       1.0  T
   3   -390.3297688 -0.335541E+00  0.241E-01    0.02       1.0  T
   4   -390.3595106 -0.297418E-01  0.615E-02    0.00       1.0  T
   5   -390.3603886 -0.878022E-03  0.522E-02    0.01       1.0  T
   6   -390.3611889 -0.800224E-03  0.311E-02    0.01       1.0  T
   7   -390.3616170 -0.428100E-03  0.117E-02    0.01       1.0  T
   8   -390.3614039  0.213051E-03  0.227E-02    0.01       1.0  T
   9   -390.3616374 -0.233497E-03  0.944E-03    0.01       1.0  T
  10   -390.3616608 -0.233714E-04  0.705E-03    0.01       1.0  T
  11   -390.3616846 -0.238431E-04  0.233E-03    0.01       2.9  T
  12   -390.3616875 -0.290899E-05  0.372E-04    0.01      18.1  T
  13   -390.3616876 -0.948955E-08  0.354E-04    0.01      19.1  T
  14   -390.3616876 -0.683938E-07  0.438E-05    0.01     154.2  T
  15   -390.3616876  0.122634E-08  0.627E-05    0.01     107.8  T
     SCC iter.                  ...        0 min,  3.394 sec
     gradient                   ...        0 min,  0.931 sec
 * total energy  :  -385.1231903 Eh     change       -0.1068845E-02 Eh
   gradient norm :     0.0104974 Eh/α   predicted    -0.8491500E-03 ( -20.55%)
   displ. norm   :     0.4587502 α      lambda       -0.1049771E-02
   maximum displ.:     0.2420904 α      in ANC's #45, #44, #20, ...

........................................................................
.............................. CYCLE   11 ..............................
........................................................................
   1   -390.3691947 -0.390369E+03  0.381E-02    0.02       0.0  T
   2   -389.9124065  0.456788E+00  0.904E-01    0.16       1.0  T
   3   -390.3051921 -0.392786E+00  0.346E-01    0.04       1.0  T
   4   -390.2969744  0.821770E-02  0.368E-01    0.01       1.0  T
   5   -390.3691080 -0.721336E-01  0.413E-02    0.01       1.0  T
   6   -390.3676785  0.142947E-02  0.643E-02    0.02       1.0  T
   7   -390.3668656  0.812870E-03  0.744E-02    0.00       1.0  T
   8   -390.3694719 -0.260623E-02  0.281E-02    0.01       1.0  T
   9   -390.3697992 -0.327330E-03  0.152E-02    0.01       1.0  T
  10   -390.3698939 -0.946747E-04  0.849E-03    0.01       1.0  T
  11   -390.3699316 -0.377040E-04  0.186E-03    0.01       3.6  T
  12   -390.3699331 -0.158375E-05  0.768E-04    0.01       8.8  T
  13   -390.3699333 -0.160670E-06  0.557E-04    0.01      12.1  T
  14   -390.3699334 -0.464619E-07  0.470E-04    0.01      14.4  T
  15   -390.3699334 -0.951396E-07  0.205E-04    0.01      33.0  T
  16   -390.3699335 -0.157845E-07  0.108E-04    0.01      62.6  T
  17   -390.3699335 -0.592189E-08  0.297E-05    0.01     227.9  T
     SCC iter.                  ...        0 min,  3.838 sec
     gradient                   ...        0 min,  1.037 sec
 * total energy  :  -385.1239901 Eh     change       -0.7998059E-03 Eh
   gradient norm :     0.0087824 Eh/α   predicted    -0.6353638E-03 ( -20.56%)
   displ. norm   :     0.4589618 α      lambda       -0.7858648E-03
   maximum displ.:     0.2398890 α      in ANC's #45, #20, #44, ...

........................................................................
.............................. CYCLE   12 ..............................
........................................................................
   1   -390.3725481 -0.390373E+03  0.433E-02    0.02       0.0  T
   2   -389.9422791  0.430269E+00  0.880E-01    0.14       1.0  T
   3   -390.3131252 -0.370846E+00  0.342E-01    0.02       1.0  T
   4   -390.1900002  0.123125E+00  0.584E-01    0.01       1.0  T
   5   -390.3720342 -0.182034E+00  0.515E-02    0.01       1.0  T
   6   -390.3688652  0.316902E-02  0.905E-02    0.02       1.0  T
   7   -390.3696553 -0.790090E-03  0.816E-02    0.00       1.0  T
   8   -390.3724583 -0.280300E-02  0.405E-02    0.01       1.0  T
   9   -390.3730880 -0.629717E-03  0.237E-02    0.01       1.0  T
  10   -390.3733688 -0.280835E-03  0.910E-03    0.01       1.0  T
  11   -390.3734113 -0.425284E-04  0.226E-03    0.01       3.0  T
  12   -390.3734123 -0.972895E-06  0.192E-03    0.01       3.5  T
  13   -390.3734141 -0.177452E-05  0.573E-04    0.01      11.8  T
  14   -390.3734142 -0.112261E-06  0.346E-04    0.01      19.5  T
  15   -390.3734142 -0.364515E-07  0.231E-04    0.01      29.3  T
  16   -390.3734143 -0.281603E-07  0.149E-05    0.01     453.7  T
  17   -390.3734143  0.108565E-08  0.481E-05    0.01     140.5  T
     SCC iter.                  ...        0 min,  3.843 sec
     gradient                   ...        0 min,  1.025 sec
 * total energy  :  -385.1245795 Eh     change       -0.5893649E-03 Eh
   gradient norm :     0.0068179 Eh/α   predicted    -0.4757034E-03 ( -19.29%)
   displ. norm   :     0.4120056 α      lambda       -0.5138220E-03
   maximum displ.:     0.1995836 α      in ANC's #45, #20, #24, ...

........................................................................
.............................. CYCLE   13 ..............................
........................................................................
   1   -390.3742078 -0.390374E+03  0.286E-02    0.02       0.0  T
   2   -390.0858470  0.288361E+00  0.717E-01    0.10       1.0  T
   3   -390.3554727 -0.269626E+00  0.205E-01    0.00       1.0  T
   4   -390.2491270  0.106346E+00  0.479E-01    0.01       1.0  T
   5   -390.3743174 -0.125190E+00  0.217E-02    0.01       1.0  T
   6   -390.3745073 -0.189827E-03  0.982E-03    0.01       1.0  T
   7   -390.3745489 -0.416457E-04  0.484E-03    0.01       1.4  T
   8   -390.3745102  0.386909E-04  0.935E-03    0.01       1.0  T
   9   -390.3745288 -0.186127E-04  0.744E-03    0.01       1.0  T
  10   -390.3745546 -0.257721E-04  0.335E-03    0.01       2.0  T
  11   -390.3745611 -0.650700E-05  0.166E-04    0.01      40.7  T
  12   -390.3745611  0.491245E-07  0.333E-04    0.01      20.3  T
  13   -390.3745611 -0.337993E-07  0.230E-04    0.01      29.4  T
  14   -390.3745611 -0.285391E-07  0.557E-05    0.01     121.3  T
  15   -390.3745611 -0.173912E-08  0.982E-06    0.01     688.4  T
     SCC iter.                  ...        0 min,  3.548 sec
     gradient                   ...        0 min,  0.986 sec
 * total energy  :  -385.1249570 Eh     change       -0.3775166E-03 Eh
   gradient norm :     0.0055013 Eh/α   predicted    -0.3005226E-03 ( -20.39%)
   displ. norm   :     0.3510508 α      lambda       -0.3236463E-03
   maximum displ.:     0.1603188 α      in ANC's #20, #45, #24, ...

........................................................................
.............................. CYCLE   14 ..............................
........................................................................
   1   -390.3754913 -0.390375E+03  0.125E-02    0.01       0.0  T
   2   -390.3506652  0.248261E-01  0.208E-01    0.02       1.0  T
   3   -390.3422194  0.844584E-02  0.252E-01    0.00       1.0  T
   4   -390.3698297 -0.276104E-01  0.104E-01    0.02       1.0  T
   5   -390.3743542 -0.452448E-02  0.468E-02    0.01       1.0  T
   6   -390.3754991 -0.114485E-02  0.875E-03    0.01       1.0  T
   7   -390.3754967  0.232683E-05  0.936E-03    0.01       1.0  T
   8   -390.3755303 -0.335111E-04  0.506E-03    0.01       1.3  T
   9   -390.3755431 -0.128152E-04  0.154E-03    0.01       4.4  T
  10   -390.3755435 -0.401154E-06  0.131E-03    0.01       5.2  T
  11   -390.3755445 -0.982575E-06  0.171E-04    0.01      39.6  T
  12   -390.3755445 -0.167428E-07  0.419E-05    0.01     161.4  T
     SCC iter.                  ...        0 min,  2.801 sec
     gradient                   ...        0 min,  0.980 sec
 * total energy  :  -385.1251992 Eh     change       -0.2422395E-03 Eh
   gradient norm :     0.0050736 Eh/α   predicted    -0.1817701E-03 ( -24.96%)
   displ. norm   :     0.3342805 α      lambda       -0.2595649E-03
   maximum displ.:     0.1610288 α      in ANC's #20, #24, #45, ...

........................................................................
.............................. CYCLE   15 ..............................
........................................................................
   1   -390.3768112 -0.390377E+03  0.119E-02    0.01       0.0  T
   2   -390.1950363  0.181775E+00  0.586E-01    0.10       1.0  T
   3   -390.3767710 -0.181735E+00  0.146E-02    0.01       1.0  T
   4   -390.3312841  0.454868E-01  0.283E-01    0.01       1.0  T
   5   -390.3761926 -0.449085E-01  0.349E-02    0.01       1.0  T
   6   -390.3768491 -0.656501E-03  0.947E-03    0.01       1.0  T
   7   -390.3767143  0.134841E-03  0.174E-02    0.01       1.0  T
   8   -390.3768801 -0.165794E-03  0.336E-03    0.01       2.0  T
   9   -390.3768850 -0.495361E-05  0.145E-03    0.01       4.6  T
  10   -390.3768855 -0.539312E-06  0.105E-03    0.01       6.4  T
  11   -390.3768857 -0.188195E-06  0.842E-04    0.01       8.0  T
  12   -390.3768861 -0.391882E-06  0.160E-04    0.01      42.3  T
  13   -390.3768861 -0.141965E-07  0.199E-05    0.01     339.3  T
     SCC iter.                  ...        0 min,  2.895 sec
     gradient                   ...        0 min,  0.986 sec
 * total energy  :  -385.1254011 Eh     change       -0.2018191E-03 Eh
   gradient norm :     0.0051565 Eh/α   predicted    -0.1442859E-03 ( -28.51%)
   displ. norm   :     0.3774514 α      lambda       -0.2666119E-03
   maximum displ.:     0.1819710 α      in ANC's #20, #24, #23, ...

........................................................................
.............................. CYCLE   16 ..............................
........................................................................
   1   -390.3780351 -0.390378E+03  0.188E-02    0.01       0.0  T
   2   -390.0743101  0.303725E+00  0.755E-01    0.13       1.0  T
   3   -390.3780507 -0.303741E+00  0.218E-02    0.01       1.0  T
   4   -390.3671203  0.109304E-01  0.142E-01    0.00       1.0  T
   5   -390.3735828 -0.646246E-02  0.902E-02    0.00       1.0  T
   6   -390.3781112 -0.452846E-02  0.133E-02    0.01       1.0  T
   7   -390.3779343  0.176895E-03  0.222E-02    0.01       1.0  T
   8   -390.3782095 -0.275159E-03  0.414E-03    0.01       1.6  T
   9   -390.3782177 -0.823789E-05  0.117E-03    0.01       5.8  T
  10   -390.3782165  0.123207E-05  0.186E-03    0.01       3.6  T
  11   -390.3782181 -0.154827E-05  0.795E-04    0.01       8.5  T
  12   -390.3782184 -0.348355E-06  0.105E-04    0.01      64.6  T
  13   -390.3782184  0.869863E-08  0.166E-04    0.01      40.8  T
     SCC iter.                  ...        0 min,  2.878 sec
     gradient                   ...        0 min,  0.978 sec
 * total energy  :  -385.1256095 Eh     change       -0.2084645E-03 Eh
   gradient norm :     0.0054157 Eh/α   predicted    -0.1523008E-03 ( -26.94%)
   displ. norm   :     0.4163826 α      lambda       -0.2641205E-03
   maximum displ.:     0.1983584 α      in ANC's #20, #24, #23, ...

........................................................................
.............................. CYCLE   17 ..............................
........................................................................
   1   -390.3787794 -0.390379E+03  0.235E-02    0.01       0.0  T
   2   -389.9874933  0.391286E+00  0.855E-01    0.14       1.0  T
   3   -390.3768671 -0.389374E+00  0.711E-02    0.02       1.0  T
   4   -390.3426109  0.342563E-01  0.254E-01    0.00       1.0  T
   5   -390.3779576 -0.353468E-01  0.485E-02    0.01       1.0  T
   6   -390.3781530 -0.195340E-03  0.413E-02    0.01       1.0  T
   7   -390.3788104 -0.657422E-03  0.228E-02    0.01       1.0  T
   8   -390.3790709 -0.260464E-03  0.499E-03    0.01       1.4  T
   9   -390.3790773 -0.639031E-05  0.345E-03    0.01       2.0  T
  10   -390.3790815 -0.423640E-05  0.210E-03    0.01       3.2  T
  11   -390.3790830 -0.153455E-05  0.115E-03    0.01       5.9  T
  12   -390.3790838 -0.721949E-06  0.186E-04    0.01      36.3  T
  13   -390.3790838 -0.173771E-07  0.550E-05    0.01     122.9  T
     SCC iter.                  ...        0 min,  2.775 sec
     gradient                   ...        0 min,  0.977 sec
 * total energy  :  -385.1258123 Eh     change       -0.2027817E-03 Eh
   gradient norm :     0.0053846 Eh/α   predicted    -0.1549567E-03 ( -23.58%)
   displ. norm   :     0.4133260 α      lambda       -0.2255646E-03
   maximum displ.:     0.1971370 α      in ANC's #20, #24, #23, ...

........................................................................
.............................. CYCLE   18 ..............................
........................................................................
   1   -390.3790757 -0.390379E+03  0.150E-02    0.01       0.0  T
   2   -390.1392867  0.239789E+00  0.672E-01    0.10       1.0  T
   3   -390.3790312 -0.239744E+00  0.205E-02    0.01       1.0  T
   4   -390.3587946  0.202365E-01  0.191E-01    0.00       1.0  T
   5   -390.3766967 -0.179021E-01  0.666E-02    0.00       1.0  T
   6   -390.3790882 -0.239146E-02  0.133E-02    0.01       1.0  T
   7   -390.3790709  0.173394E-04  0.144E-02    0.01       1.0  T
   8   -390.3791922 -0.121310E-03  0.152E-03    0.01       4.5  T
   9   -390.3791914  0.781691E-06  0.185E-03    0.01       3.6  T
  10   -390.3791930 -0.161323E-05  0.745E-04    0.01       9.1  T
  11   -390.3791932 -0.219468E-06  0.436E-04    0.01      15.5  T
  12   -390.3791933 -0.966081E-07  0.121E-04    0.01      55.9  T
  13   -390.3791933 -0.561278E-08  0.705E-05    0.01      95.8  T
     SCC iter.                  ...        0 min,  2.725 sec
     gradient                   ...        0 min,  0.999 sec
 * total energy  :  -385.1259809 Eh     change       -0.1685408E-03 Eh
   gradient norm :     0.0045183 Eh/α   predicted    -0.1320502E-03 ( -21.65%)
   displ. norm   :     0.3736932 α      lambda       -0.1726629E-03
   maximum displ.:     0.1812597 α      in ANC's #20, #24, #23, ...

........................................................................
.............................. CYCLE   19 ..............................
........................................................................
   1   -390.3787794 -0.390379E+03  0.118E-02    0.01       0.0  T
   2   -390.2089400  0.169839E+00  0.562E-01    0.03       1.0  T
   3   -390.3785787 -0.169639E+00  0.220E-02    0.01       1.0  T
   4   -390.3657448  0.128339E-01  0.154E-01    0.01       1.0  T
   5   -390.3784798 -0.127351E-01  0.319E-02    0.01       1.0  T
   6   -390.3786609 -0.181028E-03  0.181E-02    0.01       1.0  T
   7   -390.3785756  0.852127E-04  0.221E-02    0.01       1.0  T
   8   -390.3788128 -0.237189E-03  0.883E-03    0.01       1.0  T
   9   -390.3788505 -0.376559E-04  0.279E-03    0.01       2.4  T
  10   -390.3788536 -0.313067E-05  0.154E-03    0.01       4.4  T
  11   -390.3788540 -0.341075E-06  0.129E-03    0.01       5.2  T
  12   -390.3788549 -0.932853E-06  0.486E-05    0.01     138.9  T
  13   -390.3788549 -0.300759E-09  0.427E-05    0.01     158.3  T
     SCC iter.                  ...        0 min,  2.883 sec
     gradient                   ...        0 min,  1.047 sec
 * total energy  :  -385.1261100 Eh     change       -0.1291478E-03 Eh
   gradient norm :     0.0035075 Eh/α   predicted    -0.9839091E-04 ( -23.82%)
   displ. norm   :     0.3424044 α      lambda       -0.1429125E-03
   maximum displ.:     0.1665894 α      in ANC's #20, #24, #23, ...

........................................................................
.............................. CYCLE   20 ..............................
........................................................................
   1   -390.3781130 -0.390378E+03  0.122E-02    0.01       0.0  T
   2   -390.2180287  0.160084E+00  0.537E-01    0.01       1.0  T
   3   -390.3732175 -0.155189E+00  0.982E-02    0.01       1.0  T
   4   -390.3640298  0.918763E-02  0.163E-01    0.01       1.0  T
   5   -390.3765262 -0.124963E-01  0.541E-02    0.02       1.0  T
   6   -390.3777060 -0.117987E-02  0.284E-02    0.01       1.0  T
   7   -390.3780100 -0.303944E-03  0.171E-02    0.01       1.0  T
   8   -390.3781721 -0.162147E-03  0.394E-03    0.01       1.7  T
   9   -390.3781798 -0.769067E-05  0.122E-03    0.01       5.5  T
  10   -390.3781805 -0.645979E-06  0.527E-04    0.01      12.8  T
  11   -390.3781802  0.221501E-06  0.787E-04    0.01       8.6  T
  12   -390.3781805 -0.288938E-06  0.351E-04    0.01      19.2  T
  13   -390.3781806 -0.695611E-07  0.517E-05    0.01     130.7  T
  14   -390.3781806  0.303658E-09  0.547E-05    0.01     123.5  T
     SCC iter.                  ...        0 min,  3.315 sec
     gradient                   ...        0 min,  0.917 sec
 * total energy  :  -385.1262182 Eh     change       -0.1082163E-03 Eh
   gradient norm :     0.0031740 Eh/α   predicted    -0.7983761E-04 ( -26.22%)
   displ. norm   :     0.3283927 α      lambda       -0.1268918E-03
   maximum displ.:     0.1550045 α      in ANC's #20, #36, #24, ...
 * RMSD in coord.:     0.3978577 α      energy gain  -0.8293444E+00 Eh

generating ANC from model Hessian ...
Using Lindh-Hessian (1995)
 Shifting diagonal of input Hessian by    1.0027737784165583E-002
 Lowest  eigenvalues of input Hessian
    0.010000    0.010010    0.010013    0.010017    0.010020    0.010026
    0.000000    0.000000    0.000000    0.000000    0.000000    0.000000
    0.010073    0.010095    0.010102    0.010170    0.010182    0.010183
 Highest eigenvalues
    2.116561    2.123181    2.151068    2.153043    2.640461    2.643383


........................................................................
.............................. CYCLE   21 ..............................
........................................................................
   1   -390.3770615 -0.390377E+03  0.148E-02    0.01       0.0  T
   2   -390.1669228  0.210139E+00  0.612E-01    0.02       1.0  T
   3   -390.3715863 -0.204663E+00  0.106E-01    0.01       1.0  T
   4   -390.3615343  0.100520E-01  0.171E-01    0.00       1.0  T
   5   -390.3750714 -0.135371E-01  0.616E-02    0.02       1.0  T
   6   -390.3768430 -0.177154E-02  0.236E-02    0.01       1.0  T
   7   -390.3769992 -0.156190E-03  0.171E-02    0.01       1.0  T
   8   -390.3771473 -0.148132E-03  0.608E-03    0.01       1.1  T
   9   -390.3771637 -0.164151E-04  0.243E-03    0.01       2.8  T
  10   -390.3771663 -0.258524E-05  0.119E-03    0.01       5.7  T
  11   -390.3771665 -0.246194E-06  0.943E-04    0.01       7.2  T
  12   -390.3771670 -0.455831E-06  0.278E-04    0.01      24.3  T
  13   -390.3771670 -0.440448E-07  0.223E-05    0.01     303.1  T
  14   -390.3771670  0.255471E-08  0.702E-05    0.01      96.2  T
     SCC iter.                  ...        0 min,  3.346 sec
     gradient                   ...        0 min,  0.966 sec
 * total energy  :  -385.1263130 Eh     change       -0.9477499E-04 Eh
   gradient norm :     0.0035761 Eh/α   predicted     0.0000000E+00 (-100.00%)
   displ. norm   :     0.0459771 α      lambda       -0.3594100E-04
   maximum displ.:     0.0197568 α      in ANC's #44, #42, #39, ...

........................................................................
.............................. CYCLE   22 ..............................
........................................................................
   1   -390.3774684 -0.390377E+03  0.383E-03    0.01       0.0  T
   2   -390.3519549  0.255135E-01  0.220E-01    0.03       1.0  T
   3   -390.3773865 -0.254316E-01  0.129E-02    0.01       1.0  T
   4   -390.3737424  0.364419E-02  0.812E-02    0.00       1.0  T
   5   -390.3773235 -0.358119E-02  0.172E-02    0.01       1.0  T
   6   -390.3774698 -0.146233E-03  0.322E-03    0.01       2.1  T
   7   -390.3774642  0.554946E-05  0.443E-03    0.01       1.5  T
   8   -390.3774736 -0.938318E-05  0.185E-03    0.01       3.6  T
   9   -390.3774753 -0.166581E-05  0.490E-04    0.01      13.8  T
  10   -390.3774754 -0.109874E-06  0.243E-04    0.01      27.8  T
  11   -390.3774754 -0.235499E-07  0.144E-04    0.01      46.9  T
  12   -390.3774754 -0.113488E-07  0.416E-06    0.01    1623.6  T
     SCC iter.                  ...        0 min,  2.745 sec
     gradient                   ...        0 min,  1.016 sec
 * total energy  :  -385.1263500 Eh     change       -0.3704932E-04 Eh
   gradient norm :     0.0020152 Eh/α   predicted    -0.2225333E-04 ( -39.94%)
   displ. norm   :     0.1588844 α      lambda       -0.1007584E-03
   maximum displ.:     0.0677370 α      in ANC's #44, #42, #39, ...

........................................................................
.............................. CYCLE   23 ..............................
........................................................................
   1   -390.3780531 -0.390378E+03  0.113E-02    0.01       0.0  T
   2   -390.2197273  0.158326E+00  0.548E-01    0.07       1.0  T
   3   -390.3775573 -0.157830E+00  0.327E-02    0.01       1.0  T
   4   -390.3620744  0.154829E-01  0.169E-01    0.00       1.0  T
   5   -390.3767390 -0.146646E-01  0.502E-02    0.01       1.0  T
   6   -390.3780899 -0.135086E-02  0.662E-03    0.01       1.0  T
   7   -390.3780396  0.502819E-04  0.114E-02    0.01       1.0  T
   8   -390.3781013 -0.617181E-04  0.496E-03    0.01       1.4  T
   9   -390.3781126 -0.112501E-04  0.164E-03    0.01       4.1  T
  10   -390.3781137 -0.111238E-05  0.942E-04    0.01       7.2  T
  11   -390.3781140 -0.340322E-06  0.495E-04    0.01      13.7  T
  12   -390.3781141 -0.131912E-06  0.717E-05    0.01      94.2  T
  13   -390.3781141 -0.152966E-09  0.729E-05    0.01      92.7  T
     SCC iter.                  ...        0 min,  2.957 sec
     gradient                   ...        0 min,  0.973 sec
 * total energy  :  -385.1264116 Eh     change       -0.6157582E-04 Eh
   gradient norm :     0.0023920 Eh/α   predicted    -0.5165302E-04 ( -16.11%)
   displ. norm   :     0.1001254 α      lambda       -0.3115694E-04
   maximum displ.:     0.0370733 α      in ANC's #44, #42, #39, ...

........................................................................
.............................. CYCLE   24 ..............................
........................................................................
   1   -390.3782858 -0.390378E+03  0.515E-03    0.01       0.0  T
   2   -390.3308215  0.474643E-01  0.295E-01    0.02       1.0  T
   3   -390.3777197 -0.468982E-01  0.333E-02    0.01       1.0  T
   4   -390.3753794  0.234026E-02  0.729E-02    0.00       1.0  T
   5   -390.3781774 -0.279791E-02  0.158E-02    0.01       1.0  T
   6   -390.3782946 -0.117223E-03  0.272E-03    0.01       2.5  T
   7   -390.3782939  0.687932E-06  0.296E-03    0.01       2.3  T
   8   -390.3782962 -0.230332E-05  0.220E-03    0.01       3.1  T
   9   -390.3782986 -0.237739E-05  0.568E-04    0.01      11.9  T
  10   -390.3782987 -0.163443E-06  0.109E-04    0.01      62.2  T
  11   -390.3782987 -0.474040E-08  0.581E-05    0.01     116.4  T
     SCC iter.                  ...        0 min,  2.484 sec
     gradient                   ...        0 min,  1.003 sec
 * total energy  :  -385.1264366 Eh     change       -0.2496511E-04 Eh
   gradient norm :     0.0027859 Eh/α   predicted    -0.1573500E-04 ( -36.97%)
   displ. norm   :     0.2028612 α      lambda       -0.5798279E-04
   maximum displ.:     0.0633564 α      in ANC's #44, #42, #36, ...

........................................................................
.............................. CYCLE   25 ..............................
........................................................................
   1   -390.3785370 -0.390379E+03  0.101E-02    0.01       0.0  T
   2   -390.2297774  0.148760E+00  0.515E-01    0.01       1.0  T
   3   -390.3767110 -0.146934E+00  0.618E-02    0.01       1.0  T
   4   -390.3702670  0.644394E-02  0.125E-01    0.00       1.0  T
   5   -390.3782729 -0.800590E-02  0.255E-02    0.02       1.0  T
   6   -390.3785872 -0.314248E-03  0.162E-03    0.01       4.2  T
   7   -390.3785834  0.378586E-05  0.328E-03    0.01       2.1  T
   8   -390.3785777  0.573720E-05  0.449E-03    0.01       1.5  T
   9   -390.3785878 -0.100882E-04  0.134E-03    0.01       5.0  T
  10   -390.3785886 -0.868464E-06  0.531E-04    0.01      12.7  T
  11   -390.3785888 -0.163506E-06  0.382E-05    0.01     176.8  T
  12   -390.3785888  0.672333E-08  0.115E-04    0.01      58.7  T
     SCC iter.                  ...        0 min,  2.709 sec
     gradient                   ...        0 min,  0.980 sec
 * total energy  :  -385.1264778 Eh     change       -0.4118092E-04 Eh
   gradient norm :     0.0024363 Eh/α   predicted    -0.3018854E-04 ( -26.69%)
   displ. norm   :     0.1716765 α      lambda       -0.3919521E-04
   maximum displ.:     0.0576446 α      in ANC's #36, #16, #42, ...

........................................................................
.............................. CYCLE   26 ..............................
........................................................................
   1   -390.3788872 -0.390379E+03  0.955E-03    0.01       0.0  T
   2   -390.2227781  0.156109E+00  0.523E-01    0.03       1.0  T
   3   -390.3779952 -0.155217E+00  0.446E-02    0.01       1.0  T
   4   -390.3704583  0.753690E-02  0.127E-01    0.00       1.0  T
   5   -390.3783556 -0.789730E-02  0.336E-02    0.02       1.0  T
   6   -390.3789145 -0.558870E-03  0.588E-03    0.01       1.2  T
   7   -390.3789074  0.704913E-05  0.694E-03    0.01       1.0  T
   8   -390.3789277 -0.202984E-04  0.357E-03    0.01       1.9  T
   9   -390.3789340 -0.631121E-05  0.126E-03    0.01       5.3  T
  10   -390.3789342 -0.194573E-06  0.112E-03    0.01       6.0  T
  11   -390.3789349 -0.714401E-06  0.179E-04    0.01      37.7  T
  12   -390.3789350 -0.916606E-08  0.127E-04    0.01      53.4  T
     SCC iter.                  ...        0 min,  2.660 sec
     gradient                   ...        0 min,  0.943 sec
 * total energy  :  -385.1265066 Eh     change       -0.2879425E-04 Eh
   gradient norm :     0.0017838 Eh/α   predicted    -0.2017711E-04 ( -29.93%)
   displ. norm   :     0.2564721 α      lambda       -0.3578798E-04
   maximum displ.:     0.0973285 α      in ANC's #36, #16, #20, ...

........................................................................
.............................. CYCLE   27 ..............................
........................................................................
   1   -390.3793822 -0.390379E+03  0.152E-02    0.01       0.0  T
   2   -390.1257734  0.253609E+00  0.667E-01    0.05       1.0  T
   3   -390.3745132 -0.248740E+00  0.992E-02    0.02       1.0  T
   4   -390.3744104  0.102743E-03  0.977E-02    0.00       1.0  T
   5   -390.3784108 -0.400033E-02  0.465E-02    0.02       1.0  T
   6   -390.3792894 -0.878616E-03  0.192E-02    0.01       1.0  T
   7   -390.3793833 -0.938531E-04  0.145E-02    0.01       1.0  T
   8   -390.3794940 -0.110718E-03  0.423E-03    0.01       1.6  T
   9   -390.3795021 -0.814509E-05  0.192E-03    0.01       3.5  T
  10   -390.3795023 -0.147760E-06  0.183E-03    0.01       3.7  T
  11   -390.3795041 -0.185916E-05  0.321E-04    0.01      21.1  T
  12   -390.3795041 -0.448637E-08  0.307E-04    0.01      22.0  T
  13   -390.3795042 -0.510995E-07  0.704E-05    0.01      96.0  T
  14   -390.3795042  0.121054E-08  0.835E-05    0.01      80.9  T
     SCC iter.                  ...        0 min,  3.054 sec
     gradient                   ...        0 min,  0.999 sec
 * total energy  :  -385.1265404 Eh     change       -0.3383680E-04 Eh
   gradient norm :     0.0022210 Eh/α   predicted    -0.1841747E-04 ( -45.57%)
   displ. norm   :     0.1024450 α      lambda       -0.2518017E-04
   maximum displ.:     0.0439885 α      in ANC's #36, #16, #20, ...

........................................................................
.............................. CYCLE   28 ..............................
........................................................................
   1   -390.3796580 -0.390380E+03  0.647E-03    0.01       0.0  T
   2   -390.3010419  0.786161E-01  0.379E-01    0.01       1.0  T
   3   -390.3789773 -0.779354E-01  0.356E-02    0.01       1.0  T
   4   -390.3787673  0.209937E-03  0.413E-02    0.01       1.0  T
   5   -390.3796131 -0.845736E-03  0.129E-02    0.01       1.0  T
   6   -390.3796574 -0.443168E-04  0.623E-03    0.01       1.1  T
   7   -390.3796593 -0.187167E-05  0.606E-03    0.01       1.1  T
   8   -390.3796773 -0.180453E-04  0.236E-03    0.01       2.9  T
   9   -390.3796799 -0.254193E-05  0.995E-04    0.01       6.8  T
  10   -390.3796804 -0.547018E-06  0.166E-04    0.01      40.6  T
  11   -390.3796804  0.529183E-07  0.343E-04    0.01      19.7  T
  12   -390.3796804 -0.655899E-07  0.561E-05    0.01     120.4  T
     SCC iter.                  ...        0 min,  2.650 sec
     gradient                   ...        0 min,  1.006 sec
 * total energy  :  -385.1265625 Eh     change       -0.2211486E-04 Eh
   gradient norm :     0.0020483 Eh/α   predicted    -0.1272899E-04 ( -42.44%)
   displ. norm   :     0.2697188 α      lambda       -0.6317662E-04
   maximum displ.:     0.1162160 α      in ANC's #36, #16, #5, ...

........................................................................
.............................. CYCLE   29 ..............................
........................................................................
   1   -390.3790411 -0.390379E+03  0.190E-02    0.01       0.0  T
   2   -390.1167719  0.262269E+00  0.703E-01    0.06       1.0  T
   3   -390.3774087 -0.260637E+00  0.575E-02    0.01       1.0  T
   4   -390.3645511  0.128576E-01  0.162E-01    0.01       1.0  T
   5   -390.3777270 -0.131759E-01  0.528E-02    0.00       1.0  T
   6   -390.3790127 -0.128568E-02  0.200E-02    0.01       1.0  T
   7   -390.3789705  0.422618E-04  0.216E-02    0.01       1.0  T
   8   -390.3792173 -0.246804E-03  0.569E-03    0.01       1.2  T
   9   -390.3792298 -0.125137E-04  0.303E-03    0.01       2.2  T
  10   -390.3792335 -0.368472E-05  0.167E-03    0.01       4.0  T
  11   -390.3792340 -0.586539E-06  0.126E-03    0.01       5.3  T
  12   -390.3792349 -0.892320E-06  0.217E-04    0.01      31.1  T
  13   -390.3792350 -0.262127E-07  0.385E-05    0.01     175.4  T
  14   -390.3792350  0.254147E-09  0.436E-05    0.01     154.9  T
     SCC iter.                  ...        0 min,  3.119 sec
     gradient                   ...        0 min,  1.000 sec
 * total energy  :  -385.1266084 Eh     change       -0.4592401E-04 Eh
   gradient norm :     0.0020306 Eh/α   predicted    -0.3388887E-04 ( -26.21%)
   displ. norm   :     0.2593008 α      lambda       -0.4002604E-04
   maximum displ.:     0.1142821 α      in ANC's #36, #16, #5, ...

........................................................................
.............................. CYCLE   30 ..............................
........................................................................
   1   -390.3779419 -0.390378E+03  0.192E-02    0.01       0.0  T
   2   -390.1052866  0.272655E+00  0.718E-01    0.07       1.0  T
   3   -390.3758154 -0.270529E+00  0.644E-02    0.01       1.0  T
   4   -390.3659398  0.987555E-02  0.148E-01    0.01       1.0  T
   5   -390.3776527 -0.117129E-01  0.295E-02    0.01       1.0  T
   6   -390.3780341 -0.381374E-03  0.144E-02    0.01       1.0  T
   7   -390.3779169  0.117230E-03  0.199E-02    0.01       1.0  T
   8   -390.3781268 -0.209942E-03  0.467E-03    0.01       1.4  T
   9   -390.3781355 -0.870217E-05  0.248E-03    0.01       2.7  T
  10   -390.3781380 -0.248218E-05  0.134E-03    0.01       5.1  T
  11   -390.3781382 -0.227395E-06  0.113E-03    0.01       6.0  T
  12   -390.3781389 -0.716058E-06  0.194E-04    0.01      34.9  T
  13   -390.3781390 -0.199093E-07  0.531E-05    0.01     127.3  T
     SCC iter.                  ...        0 min,  2.941 sec
     gradient                   ...        0 min,  1.013 sec
 * total energy  :  -385.1266395 Eh     change       -0.3103664E-04 Eh
   gradient norm :     0.0023634 Eh/α   predicted    -0.2136283E-04 ( -31.17%)
   displ. norm   :     0.2809282 α      lambda       -0.4289238E-04
   maximum displ.:     0.1261704 α      in ANC's #36, #5, #16, ...

........................................................................
.............................. CYCLE   31 ..............................
........................................................................
   1   -390.3767383 -0.390377E+03  0.210E-02    0.01       0.0  T
   2   -390.0873488  0.289390E+00  0.741E-01    0.08       1.0  T
   3   -390.3724435 -0.285095E+00  0.896E-02    0.00       1.0  T
   4   -390.3688683  0.357520E-02  0.121E-01    0.01       1.0  T
   5   -390.3768233 -0.795504E-02  0.209E-02    0.01       1.0  T
   6   -390.3766878  0.135569E-03  0.227E-02    0.01       1.0  T
   7   -390.3767958 -0.108044E-03  0.177E-02    0.01       1.0  T
   8   -390.3769657 -0.169846E-03  0.302E-03    0.01       2.2  T
   9   -390.3769685 -0.289462E-05  0.200E-03    0.01       3.4  T
  10   -390.3769700 -0.143423E-05  0.120E-03    0.01       5.6  T
  11   -390.3769701 -0.127175E-06  0.106E-03    0.01       6.4  T
  12   -390.3769707 -0.620980E-06  0.228E-04    0.01      29.7  T
  13   -390.3769708 -0.263282E-07  0.741E-05    0.01      91.2  T
  14   -390.3769708 -0.448040E-09  0.674E-05    0.01     100.2  T
     SCC iter.                  ...        0 min,  3.191 sec
     gradient                   ...        0 min,  0.980 sec
 * total energy  :  -385.1266747 Eh     change       -0.3523140E-04 Eh
   gradient norm :     0.0023560 Eh/α   predicted    -0.2314185E-04 ( -34.31%)
   displ. norm   :     0.3426027 α      lambda       -0.5699672E-04
   maximum displ.:     0.1567767 α      in ANC's #36, #5, #35, ...

........................................................................
.............................. CYCLE   32 ..............................
........................................................................
   1   -390.3754708 -0.390375E+03  0.245E-02    0.01       0.0  T
   2   -390.0757407  0.299730E+00  0.755E-01    0.07       1.0  T
   3   -390.3662181 -0.290477E+00  0.130E-01    0.00       1.0  T
   4   -390.3708473 -0.462925E-02  0.946E-02    0.01       1.0  T
   5   -390.3745580 -0.371071E-02  0.516E-02    0.02       1.0  T
   6   -390.3755131 -0.955018E-03  0.225E-02    0.01       1.0  T
   7   -390.3756380 -0.124953E-03  0.164E-02    0.01       1.0  T
   8   -390.3757695 -0.131524E-03  0.524E-03    0.01       1.3  T
   9   -390.3757842 -0.146334E-04  0.889E-04    0.01       7.6  T
  10   -390.3757843 -0.121854E-06  0.745E-04    0.01       9.1  T
  11   -390.3757839  0.401583E-06  0.111E-03    0.01       6.1  T
  12   -390.3757845 -0.580909E-06  0.474E-04    0.01      14.3  T
  13   -390.3757846 -0.118106E-06  0.133E-04    0.01      50.8  T
  14   -390.3757846  0.899661E-09  0.137E-04    0.01      49.3  T
     SCC iter.                  ...        0 min,  3.278 sec
     gradient                   ...        0 min,  0.917 sec
 * total energy  :  -385.1267203 Eh     change       -0.4555092E-04 Eh
   gradient norm :     0.0021177 Eh/α   predicted    -0.3184600E-04 ( -30.09%)
   displ. norm   :     0.3630859 α      lambda       -0.5767365E-04
   maximum displ.:     0.1689919 α      in ANC's #36, #5, #35, ...

........................................................................
.............................. CYCLE   33 ..............................
........................................................................
   1   -390.3747382 -0.390375E+03  0.242E-02    0.01       0.0  T
   2   -390.1045119  0.270226E+00  0.712E-01    0.03       1.0  T
   3   -390.3745417 -0.270030E+00  0.317E-02    0.01       1.0  T
   4   -390.3736703  0.871440E-03  0.527E-02    0.02       1.0  T
   5   -390.3352748  0.383955E-01  0.269E-01    0.02       1.0  T
   6   -390.3749836 -0.397088E-01  0.103E-02    0.01       1.0  T
   7   -390.3749767  0.696618E-05  0.108E-02    0.01       1.0  T
   8   -390.3750249 -0.482204E-04  0.518E-03    0.01       1.3  T
   9   -390.3750321 -0.725245E-05  0.370E-03    0.01       1.8  T
  10   -390.3750380 -0.588349E-05  0.188E-03    0.01       3.6  T
  11   -390.3750393 -0.128137E-05  0.113E-03    0.01       6.0  T
  12   -390.3750400 -0.674004E-06  0.244E-04    0.01      27.7  T
  13   -390.3750400 -0.114624E-07  0.195E-04    0.01      34.6  T
  14   -390.3750400 -0.178869E-07  0.788E-05    0.01      85.7  T
     SCC iter.                  ...        0 min,  3.233 sec
     gradient                   ...        0 min,  0.963 sec
 * total energy  :  -385.1267654 Eh     change       -0.4514334E-04 Eh
   gradient norm :     0.0021714 Eh/α   predicted    -0.3263900E-04 ( -27.70%)
   displ. norm   :     0.3469788 α      lambda       -0.5302006E-04
   maximum displ.:     0.1638049 α      in ANC's #36, #5, #35, ...

........................................................................
.............................. CYCLE   34 ..............................
........................................................................
   1   -390.3749716 -0.390375E+03  0.220E-02    0.01       0.0  T
   2   -390.1003357  0.274636E+00  0.705E-01    0.02       1.0  T
   3   -390.3602281 -0.259892E+00  0.170E-01    0.02       1.0  T
   4   -390.3684389 -0.821086E-02  0.113E-01    0.00       1.0  T
   5   -390.3743167 -0.587780E-02  0.424E-02    0.02       1.0  T
   6   -390.3751385 -0.821734E-03  0.117E-02    0.01       1.0  T
   7   -390.3750852  0.532929E-04  0.153E-02    0.01       1.0  T
   8   -390.3752166 -0.131447E-03  0.164E-03    0.01       4.1  T
   9   -390.3752169 -0.280663E-06  0.145E-03    0.01       4.7  T
  10   -390.3752157  0.119228E-05  0.201E-03    0.01       3.4  T
  11   -390.3752171 -0.136616E-05  0.131E-03    0.01       5.2  T
  12   -390.3752180 -0.955443E-06  0.943E-05    0.01      71.6  T
  13   -390.3752180  0.205403E-07  0.211E-04    0.01      32.0  T
  14   -390.3752180 -0.202025E-07  0.939E-05    0.01      72.0  T
     SCC iter.                  ...        0 min,  3.069 sec
     gradient                   ...        0 min,  0.954 sec
 * total energy  :  -385.1268081 Eh     change       -0.4273044E-04 Eh
   gradient norm :     0.0024652 Eh/α   predicted    -0.2970313E-04 ( -30.49%)
   displ. norm   :     0.3667634 α      lambda       -0.5879878E-04
   maximum displ.:     0.1746422 α      in ANC's #36, #5, #35, ...

........................................................................
.............................. CYCLE   35 ..............................
........................................................................
   1   -390.3759741 -0.390376E+03  0.230E-02    0.01       0.0  T
   2   -390.0562161  0.319758E+00  0.752E-01    0.06       1.0  T
   3   -390.3555174 -0.299301E+00  0.203E-01    0.02       1.0  T
   4   -390.3640713 -0.855387E-02  0.151E-01    0.00       1.0  T
   5   -390.3757437 -0.116724E-01  0.322E-02    0.02       1.0  T
   6   -390.3760200 -0.276361E-03  0.196E-02    0.01       1.0  T
   7   -390.3759423  0.777930E-04  0.230E-02    0.01       1.0  T
   8   -390.3762390 -0.296796E-03  0.244E-03    0.01       2.8  T
   9   -390.3762419 -0.281799E-05  0.997E-04    0.01       6.8  T
  10   -390.3762393  0.253510E-05  0.229E-03    0.01       3.0  T
  11   -390.3762417 -0.239006E-05  0.103E-03    0.01       6.6  T
  12   -390.3762423 -0.601994E-06  0.675E-05    0.01     100.2  T
  13   -390.3762423  0.317160E-07  0.245E-04    0.01      27.5  T
  14   -390.3762423 -0.282012E-07  0.102E-04    0.01      66.0  T
     SCC iter.                  ...        0 min,  3.124 sec
     gradient                   ...        0 min,  1.036 sec
 * total energy  :  -385.1268564 Eh     change       -0.4823898E-04 Eh
   gradient norm :     0.0026856 Eh/α   predicted    -0.3335479E-04 ( -30.86%)
   displ. norm   :     0.3993748 α      lambda       -0.6730347E-04
   maximum displ.:     0.1915741 α      in ANC's #36, #5, #35, ...

........................................................................
.............................. CYCLE   36 ..............................
........................................................................
   1   -390.3773712 -0.390377E+03  0.249E-02    0.01       0.0  T
   2   -390.0254905  0.351881E+00  0.786E-01    0.08       1.0  T
   3   -390.3546463 -0.329156E+00  0.215E-01    0.03       1.0  T
   4   -390.3620174 -0.737104E-02  0.171E-01    0.01       1.0  T
   5   -390.3772884 -0.152710E-01  0.292E-02    0.02       1.0  T
   6   -390.3773586 -0.701911E-04  0.238E-02    0.01       1.0  T
   7   -390.3771574  0.201198E-03  0.305E-02    0.01       1.0  T
   8   -390.3776635 -0.506157E-03  0.639E-03    0.01       1.1  T
   9   -390.3776785 -0.149496E-04  0.386E-03    0.01       1.7  T
  10   -390.3776865 -0.797562E-05  0.831E-04    0.01       8.1  T
  11   -390.3776868 -0.305526E-06  0.376E-04    0.01      18.0  T
  12   -390.3776868 -0.207916E-07  0.313E-04    0.01      21.6  T
  13   -390.3776868 -0.248747E-08  0.308E-04    0.01      21.9  T
  14   -390.3776868 -0.506647E-07  0.765E-05    0.01      88.4  T
  15   -390.3776868 -0.178630E-08  0.510E-05    0.01     132.5  T
     SCC iter.                  ...        0 min,  3.464 sec
     gradient                   ...        0 min,  0.993 sec
 * total energy  :  -385.1269113 Eh     change       -0.5490123E-04 Eh
   gradient norm :     0.0026354 Eh/α   predicted    -0.3902099E-04 ( -28.93%)
   displ. norm   :     0.4175048 α      lambda       -0.6980779E-04
   maximum displ.:     0.2018104 α      in ANC's #36, #5, #35, ...

........................................................................
.............................. CYCLE   37 ..............................
........................................................................
   1   -390.3788014 -0.390379E+03  0.253E-02    0.01       0.0  T
   2   -390.0360579  0.342743E+00  0.778E-01    0.07       1.0  T
   3   -390.3500575 -0.314000E+00  0.240E-01    0.03       1.0  T
   4   -390.3687522 -0.186947E-01  0.139E-01    0.01       1.0  T
   5   -390.3786455 -0.989332E-02  0.321E-02    0.02       1.0  T
   6   -390.3788367 -0.191192E-03  0.224E-02    0.01       1.0  T
   7   -390.3785718  0.264918E-03  0.312E-02    0.01       1.0  T
   8   -390.3790694 -0.497645E-03  0.101E-02    0.01       1.0  T
   9   -390.3791056 -0.361628E-04  0.638E-03    0.01       1.1  T
  10   -390.3791266 -0.210183E-04  0.192E-03    0.01       3.5  T
  11   -390.3791282 -0.164318E-05  0.910E-04    0.01       7.4  T
  12   -390.3791287 -0.455463E-06  0.132E-04    0.01      51.3  T
  13   -390.3791287  0.195024E-07  0.225E-04    0.01      30.0  T
  14   -390.3791287 -0.231373E-07  0.973E-05    0.01      69.5  T
     SCC iter.                  ...        0 min,  3.298 sec
     gradient                   ...        0 min,  0.985 sec
 * total energy  :  -385.1269676 Eh     change       -0.5629851E-04 Eh
   gradient norm :     0.0023808 Eh/α   predicted    -0.4099234E-04 ( -27.19%)
   displ. norm   :     0.4259050 α      lambda       -0.6867290E-04
   maximum displ.:     0.2071913 α      in ANC's #36, #5, #35, ...

........................................................................
.............................. CYCLE   38 ..............................
........................................................................
   1   -390.3797424 -0.390380E+03  0.249E-02    0.01       0.0  T
   2   -390.0789312  0.300811E+00  0.736E-01    0.04       1.0  T
   3   -390.3522568 -0.273326E+00  0.232E-01    0.03       1.0  T
   4   -390.3758445 -0.235876E-01  0.890E-02    0.00       1.0  T
   5   -390.3790498 -0.320531E-02  0.455E-02    0.02       1.0  T
   6   -390.3798742 -0.824435E-03  0.178E-02    0.01       1.0  T
   7   -390.3796731  0.201128E-03  0.260E-02    0.01       1.0  T
   8   -390.3800105 -0.337464E-03  0.930E-03    0.01       1.0  T
   9   -390.3800392 -0.286984E-04  0.611E-03    0.01       1.1  T
  10   -390.3800563 -0.170392E-04  0.268E-03    0.01       2.5  T
  11   -390.3800600 -0.375744E-05  0.817E-04    0.01       8.3  T
  12   -390.3800604 -0.361499E-06  0.126E-04    0.01      53.5  T
  13   -390.3800604  0.219677E-07  0.229E-04    0.01      29.5  T
  14   -390.3800604 -0.175403E-07  0.147E-04    0.01      46.1  T
     SCC iter.                  ...        0 min,  3.214 sec
     gradient                   ...        0 min,  0.983 sec
 * total energy  :  -385.1270238 Eh     change       -0.5625922E-04 Eh
   gradient norm :     0.0021656 Eh/α   predicted    -0.4057017E-04 ( -27.89%)
   displ. norm   :     0.4443728 α      lambda       -0.7511070E-04
   maximum displ.:     0.2161229 α      in ANC's #36, #5, #10, ...

........................................................................
.............................. CYCLE   39 ..............................
........................................................................
   1   -390.3801780 -0.390380E+03  0.253E-02    0.01       0.0  T
   2   -390.1093184  0.270860E+00  0.709E-01    0.00       1.0  T
   3   -390.3748724 -0.265554E+00  0.102E-01    0.01       1.0  T
   4   -390.3775237 -0.265133E-02  0.749E-02    0.00       1.0  T
   5   -390.3779286 -0.404880E-03  0.717E-02    0.02       1.0  T
   6   -390.3803943 -0.246573E-02  0.139E-02    0.01       1.0  T
   7   -390.3802445  0.149787E-03  0.214E-02    0.01       1.0  T
   8   -390.3804875 -0.242983E-03  0.592E-03    0.01       1.1  T
   9   -390.3804902 -0.272316E-05  0.560E-03    0.01       1.2  T
  10   -390.3805048 -0.145792E-04  0.223E-03    0.01       3.0  T
  11   -390.3805072 -0.237121E-05  0.907E-04    0.01       7.5  T
  12   -390.3805076 -0.394120E-06  0.333E-04    0.01      20.3  T
  13   -390.3805076 -0.368800E-07  0.211E-04    0.01      32.0  T
  14   -390.3805076 -0.684707E-08  0.182E-04    0.01      37.2  T
  15   -390.3805076 -0.157590E-07  0.695E-05    0.01      97.2  T
     SCC iter.                  ...        0 min,  3.352 sec
     gradient                   ...        0 min,  1.000 sec
 * total energy  :  -385.1270873 Eh     change       -0.6349504E-04 Eh
   gradient norm :     0.0024163 Eh/α   predicted    -0.4497399E-04 ( -29.17%)
   displ. norm   :     0.4949414 α      lambda       -0.9342634E-04
   maximum displ.:     0.2387263 α      in ANC's #36, #5, #10, ...

........................................................................
.............................. CYCLE   40 ..............................
........................................................................
   1   -390.3796669 -0.390380E+03  0.278E-02    0.01       0.0  T
   2   -390.0880583  0.291609E+00  0.745E-01    0.05       1.0  T
   3   -390.3714701 -0.283412E+00  0.125E-01    0.00       1.0  T
   4   -390.3759556 -0.448552E-02  0.862E-02    0.02       1.0  T
   5   -390.3786983 -0.274272E-02  0.510E-02    0.01       1.0  T
   6   -390.3799047 -0.120641E-02  0.174E-02    0.01       1.0  T
   7   -390.3799894 -0.846213E-04  0.119E-02    0.01       1.0  T
   8   -390.3800676 -0.782805E-04  0.243E-03    0.01       2.8  T
   9   -390.3800627  0.498832E-05  0.392E-03    0.01       1.7  T
  10   -390.3800687 -0.608602E-05  0.199E-03    0.01       3.4  T
  11   -390.3800705 -0.172538E-05  0.947E-04    0.01       7.1  T
  12   -390.3800709 -0.407683E-06  0.425E-04    0.01      15.9  T
  13   -390.3800709 -0.542856E-07  0.289E-04    0.01      23.4  T
  14   -390.3800710 -0.297883E-07  0.178E-04    0.01      38.0  T
  15   -390.3800710 -0.165275E-07  0.436E-05    0.01     155.0  T
     SCC iter.                  ...        0 min,  3.266 sec
     gradient                   ...        0 min,  0.981 sec
 * total energy  :  -385.1271674 Eh     change       -0.8011930E-04 Eh
   gradient norm :     0.0032034 Eh/α   predicted    -0.5815807E-04 ( -27.41%)
   displ. norm   :     0.5494494 α      lambda       -0.1160105E-03
   maximum displ.:     0.2599828 α      in ANC's #36, #5, #10, ...

........................................................................
[...]
   206   1 H    1.015 --   177 C    0.983
   207   1 H    1.009 --   177 C    0.980
   208   1 H    1.009 --   177 C    0.980
   209   1 H    1.002 --   179 C    0.975
   210   1 H    1.004 --   180 C    0.972
   211   1 H    1.009 --   187 C    0.980
   212   1 H    1.015 --   187 C    0.983
   213   1 H    1.009 --   187 C    0.980
   214   1 H    1.000 --   188 C    0.969
   215   1 H    1.003 --   189 C    0.974
   216   1 H    1.000 --   190 C    0.969
   217   1 H    1.009 --   193 C    0.980
   218   1 H    1.009 --   193 C    0.980
   219   1 H    1.015 --   193 C    0.983
 ---------------------------------------------------------------------------

Topologies differ in total number of bonds
Writing topology from bond orders to xtbtopo.mol

 dipole moment from electron density (au)
     X       Y       Z   
   0.2490  -0.1455  -0.0115  total (Debye):    0.734

           -------------------------------------------------
          |                Geometry Summary                 |
           -------------------------------------------------

      molecular mass/u    :     1962.7105612
   center of mass at/Å    :       44.6242649       0.0140260      -0.0154083
  moments of inertia/u·Å² :        0.3722684E+05   0.1624537E+06   0.1904904E+06
rotational constants/cm⁻¹ :        0.4528355E-03   0.1037689E-03   0.8849596E-04

 * 226 selected distances

     #   Z          #   Z                                           value/Å
     2   6 C        3   6 C                                       1.3804870
     3   6 C        4   6 C                                       1.4318614
     4   6 C        5   6 C                                       1.3543429
     5   6 C        6   6 C                                       1.4332209 (max)
     3   6 C        7   7 N                                       1.3707091
     6   6 C        7   7 N                                       1.3707987
     6   6 C        8   6 C                                       1.3886283
     8   6 C        9   6 C                                       1.3866526
     9   6 C       10   6 C                                       1.4318449
    10   6 C       11   6 C                                       1.3553071
     9   6 C       12   7 N                                       1.3743801
    11   6 C       13   6 C                                       1.4291944
    12   7 N       13   6 C                                       1.3647904
    13   6 C       14   6 C                                       1.3987254
    14   6 C       15   6 C                                       1.4000964
    15   6 C       16   6 C                                       1.4298612
    16   6 C       17   6 C                                       1.3550431
    17   6 C       18   6 C                                       1.4317844
    18   6 C       19   6 C                                       1.3853003
    20   6 C       21   6 C                                       1.4010407
    21   6 C       22   8 O                                       1.3593436
    22   8 O       23   6 C                                       1.4130968
    21   6 C       24   6 C                                       1.3946074
    24   6 C       25   6 C                                       1.3866837
    25   6 C       26   6 C                                       1.3866305
    20   6 C       27   6 C                                       1.4013637
    26   6 C       27   6 C                                       1.3945875
    27   6 C       28   8 O                                       1.3585315
    28   8 O       29   6 C                                       1.4131159
    19   6 C       30   6 C                                       1.3899210
    30   6 C       31   6 C                                       1.4331880
    31   6 C       32   6 C                                       1.3547257
     2   6 C       33   6 C                                       1.3798427
    32   6 C       33   6 C                                       1.4319079
    30   6 C       34   7 N                                       1.3685282
    33   6 C       34   7 N                                       1.3714891
    15   6 C       35   7 N                                       1.3635470
    18   6 C       35   7 N                                       1.3768731
    36   6 C       37   6 C                                       1.4014459
    37   6 C       38   8 O                                       1.3583425
    38   8 O       39   6 C                                       1.4131251
    37   6 C       40   6 C                                       1.3946014
    40   6 C       41   6 C                                       1.3866098
    41   6 C       42   6 C                                       1.3867188
    36   6 C       43   6 C                                       1.4009838
    42   6 C       43   6 C                                       1.3945192
    43   6 C       44   8 O                                       1.3596705
    44   8 O       45   6 C                                       1.4129893
     2   6 C       46   1 H                                       1.0839797
     4   6 C       47   1 H                                       1.0787348
     5   6 C       48   1 H                                       1.0777318
    10   6 C       49   1 H                                       1.0781521
    11   6 C       50   1 H                                       1.0781136
    16   6 C       51   1 H                                       1.0782618
    17   6 C       52   1 H                                       1.0776324 (min)
    23   6 C       53   1 H                                       1.0967436
    23   6 C       54   1 H                                       1.0915573
    23   6 C       55   1 H                                       1.0968550
    24   6 C       56   1 H                                       1.0818077
    25   6 C       57   1 H                                       1.0845101
    26   6 C       58   1 H                                       1.0818206
    29   6 C       59   1 H                                       1.0915894
    29   6 C       60   1 H                                       1.0968798
    29   6 C       61   1 H                                       1.0968746
    31   6 C       62   1 H                                       1.0783511
    32   6 C       63   1 H                                       1.0787317
    39   6 C       64   1 H                                       1.0915333
    39   6 C       65   1 H                                       1.0968231
    39   6 C       66   1 H                                       1.0968156
    40   6 C       67   1 H                                       1.0817938
    41   6 C       68   1 H                                       1.0845136
    42   6 C       69   1 H                                       1.0818024
    45   6 C       70   1 H                                       1.0968087
    45   6 C       71   1 H                                       1.0916255
    45   6 C       72   1 H                                       1.0968472
    74   6 C       75   6 C                                       1.3811111
    75   6 C       76   6 C                                       1.4321859
    76   6 C       77   6 C                                       1.3550190
    77   6 C       78   6 C                                       1.4329639
    75   6 C       79   7 N                                       1.3706858
    78   6 C       79   7 N                                       1.3695284
    78   6 C       80   6 C                                       1.3898194
    80   6 C       81   6 C                                       1.3865833
    81   6 C       82   6 C                                       1.4315616
    82   6 C       83   6 C                                       1.3564679
    81   6 C       84   7 N                                       1.3745251
    83   6 C       85   6 C                                       1.4288944
    84   7 N       85   6 C                                       1.3627796
    85   6 C       86   6 C                                       1.4025762
    86   6 C       87   6 C                                       1.4019975
    87   6 C       88   6 C                                       1.4287454
    88   6 C       89   6 C                                       1.3562989
    89   6 C       90   6 C                                       1.4314551
    90   6 C       91   6 C                                       1.3871570
    92   6 C       93   6 C                                       1.4014485
    93   6 C       94   8 O                                       1.3582596
    94   8 O       95   6 C                                       1.4131836
    93   6 C       96   6 C                                       1.3945345
    96   6 C       97   6 C                                       1.3865952
    97   6 C       98   6 C                                       1.3866952
    92   6 C       99   6 C                                       1.4007681
    98   6 C       99   6 C                                       1.3945289
    99   6 C      100   8 O                                       1.3597181
   100   8 O      101   6 C                                       1.4131023
    91   6 C      102   6 C                                       1.3897701
   102   6 C      103   6 C                                       1.4331350
   103   6 C      104   6 C                                       1.3549143
    74   6 C      105   6 C                                       1.3813149
   104   6 C      105   6 C                                       1.4320727
   102   6 C      106   7 N                                       1.3700867
   105   6 C      106   7 N                                       1.3704430
    87   6 C      107   7 N                                       1.3633758
    90   6 C      107   7 N                                       1.3740331
   108   6 C      109   6 C                                       1.4005889
   109   6 C      110   8 O                                       1.3593528
   110   8 O      111   6 C                                       1.4132220
   109   6 C      112   6 C                                       1.3945782
   112   6 C      113   6 C                                       1.3867467
   113   6 C      114   6 C                                       1.3866876
   108   6 C      115   6 C                                       1.4009723
   114   6 C      115   6 C                                       1.3946020
   115   6 C      116   8 O                                       1.3584598
   116   8 O      117   6 C                                       1.4130465
    74   6 C      118   1 H                                       1.0840705
    76   6 C      119   1 H                                       1.0787345
    77   6 C      120   1 H                                       1.0778286
    82   6 C      121   1 H                                       1.0782227
    83   6 C      122   1 H                                       1.0780886
    88   6 C      123   1 H                                       1.0780070
    89   6 C      124   1 H                                       1.0781617
    95   6 C      125   1 H                                       1.0968206
    95   6 C      126   1 H                                       1.0915520
    95   6 C      127   1 H                                       1.0967845
    96   6 C      128   1 H                                       1.0817701
    97   6 C      129   1 H                                       1.0844931
    98   6 C      130   1 H                                       1.0817768
   101   6 C      131   1 H                                       1.0915972
   101   6 C      132   1 H                                       1.0968203
   101   6 C      133   1 H                                       1.0967846
   103   6 C      134   1 H                                       1.0777442
   104   6 C      135   1 H                                       1.0787338
   111   6 C      136   1 H                                       1.0915772
   111   6 C      137   1 H                                       1.0968279
   111   6 C      138   1 H                                       1.0967560
   112   6 C      139   1 H                                       1.0817817
   113   6 C      140   1 H                                       1.0845153
   114   6 C      141   1 H                                       1.0818091
   117   6 C      142   1 H                                       1.0968754
   117   6 C      143   1 H                                       1.0915661
   117   6 C      144   1 H                                       1.0968473
   145   6 C      146   6 C                                       1.2179521
   147   6 C      148   6 C                                       1.2192568
   150   6 C      151   6 C                                       1.3995064
   151   6 C      152   6 C                                       1.4285214
   152   6 C      153   6 C                                       1.3555496
   153   6 C      154   6 C                                       1.4310814
   151   6 C      155   7 N                                       1.3641307
   154   6 C      155   7 N                                       1.3768276
   154   6 C      156   6 C                                       1.3861842
   156   6 C      157   6 C                                       1.3883445
   157   6 C      158   6 C                                       1.4300477
   158   6 C      159   6 C                                       1.3559478
   157   6 C      160   7 N                                       1.3733320
   159   6 C      161   6 C                                       1.4285699
   160   7 N      161   6 C                                       1.3663571
   161   6 C      162   6 C                                       1.3993932
   162   6 C      163   6 C                                       1.4016681
   163   6 C      164   6 C                                       1.4285093
   164   6 C      165   6 C                                       1.3556359
   165   6 C      166   6 C                                       1.4311163
   166   6 C      167   6 C                                       1.3857452
   168   6 C      169   6 C                                       1.4023489
   169   6 C      170   8 O                                       1.3580588
   170   8 O      171   6 C                                       1.4132111
   169   6 C      172   6 C                                       1.3944781
   172   6 C      173   6 C                                       1.3866032
   173   6 C      174   6 C                                       1.3865906
   168   6 C      175   6 C                                       1.4022193
   174   6 C      175   6 C                                       1.3944988
   175   6 C      176   8 O                                       1.3585277
   176   8 O      177   6 C                                       1.4131472
   167   6 C      178   6 C                                       1.3894532
   178   6 C      179   6 C                                       1.4301923
   179   6 C      180   6 C                                       1.3562151
   150   6 C      181   6 C                                       1.3983046
   180   6 C      181   6 C                                       1.4287380
   178   6 C      182   7 N                                       1.3728025
   181   6 C      182   7 N                                       1.3667600
   163   6 C      183   7 N                                       1.3631380
   166   6 C      183   7 N                                       1.3778535
   184   6 C      185   6 C                                       1.4021014
   185   6 C      186   8 O                                       1.3579284
   186   8 O      187   6 C                                       1.4132218
   185   6 C      188   6 C                                       1.3944614
   188   6 C      189   6 C                                       1.3866313
   189   6 C      190   6 C                                       1.3866418
   184   6 C      191   6 C                                       1.4017996
   190   6 C      191   6 C                                       1.3945273
   191   6 C      192   8 O                                       1.3584838
   192   8 O      193   6 C                                       1.4132013
   152   6 C      194   1 H                                       1.0781048
   153   6 C      195   1 H                                       1.0778130
   158   6 C      196   1 H                                       1.0780380
   159   6 C      197   1 H                                       1.0778508
   164   6 C      198   1 H                                       1.0779776
   165   6 C      199   1 H                                       1.0778141
   171   6 C      200   1 H                                       1.0967963
   171   6 C      201   1 H                                       1.0915597
   171   6 C      202   1 H                                       1.0967897
   172   6 C      203   1 H                                       1.0817880
   173   6 C      204   1 H                                       1.0845134
   174   6 C      205   1 H                                       1.0817961
   177   6 C      206   1 H                                       1.0916073
   177   6 C      207   1 H                                       1.0967822
   177   6 C      208   1 H                                       1.0967593
   179   6 C      209   1 H                                       1.0780392
   180   6 C      210   1 H                                       1.0781749
   187   6 C      211   1 H                                       1.0967914
   187   6 C      212   1 H                                       1.0915441
   187   6 C      213   1 H                                       1.0967543
   188   6 C      214   1 H                                       1.0817729
   189   6 C      215   1 H                                       1.0845024
   190   6 C      216   1 H                                       1.0817787
   193   6 C      217   1 H                                       1.0967824
   193   6 C      218   1 H                                       1.0967431
   193   6 C      219   1 H                                       1.0915647

 * 4 distinct bonds (by element types)

   Z      Z             #   av. dist./Å        max./Å        min./Å
   1 H    6 C          80     1.0869234     1.0968798     1.0776324
   6 C    6 C          98     1.3940138     1.4332209     1.2179521
   6 C    7 N          24     1.3699073     1.3778535     1.3627796
   6 C    8 O          24     1.3859308     1.4132220     1.3579284


optimized geometry written to: xtbopt.xyz


           -------------------------------------------------
          | TOTAL ENERGY             -385.134285428848 Eh   |
          | GRADIENT NORM               0.000502558608 Eh/α |
          | HOMO-LUMO GAP               0.025438079448 eV   |
           -------------------------------------------------

------------------------------------------------------------------------
 * finished run on 2022/07/30 at 01:46:09.013     
------------------------------------------------------------------------
 total:
 * wall-time:     0 d,  0 h, 18 min,  7.809 sec
 *  cpu-time:     0 d,  0 h, 18 min,  1.831 sec
 * ratio c/w:     0.995 speedup
 SCF:
 * wall-time:     0 d,  0 h,  0 min, 11.542 sec
 *  cpu-time:     0 d,  0 h,  0 min, 11.468 sec
 * ratio c/w:     0.994 speedup
 ANC optimizer:
 * wall-time:     0 d,  0 h, 17 min, 55.954 sec
 *  cpu-time:     0 d,  0 h, 17 min, 50.057 sec
 * ratio c/w:     0.995 speedup

