262
 energy: -502.682596261730 gnorm: 0.694215909992 xtb: 6.5.1 (b24c23e)
C           41.73129299999999       -0.61450100000000        0.57034400000000
C           42.42183800000000       -1.25437600000000       -0.67397900000000
C           41.77274500000000       -1.78268200000000       -1.76386700000000
C           42.76936299999999       -2.25781000000000       -2.65344600000000
C           43.99453000000000       -2.01499900000000       -2.07311600000000
N           43.77183200000000       -1.36473800000000       -0.88339500000000
C           45.41777600000000       -2.42768000000000       -2.64270600000000
C           45.47273299999999       -3.30774000000000       -3.84254700000000
C           46.03925700000000       -2.79690100000000       -5.02685700000000
C           46.10023400000000       -3.58502200000000       -6.16814600000000
O           46.65561799999999       -3.12797100000000       -7.32983100000000
C           45.57960300000000       -4.87008000000000       -6.15074400000000
O           45.62684600000000       -5.64315100000000       -7.28153600000000
C           44.99279299999999       -5.37702500000000       -4.99349100000000
O           44.45645500000000       -6.63421600000000       -5.00891200000000
C           44.93967300000000       -4.60835500000000       -3.83445700000000
C           46.54784400000000       -1.93546100000000       -2.05864200000000
C           47.86833599999999       -2.39380800000000       -2.43884100000000
C           48.76649600000000       -1.74339000000000       -1.70943300000000
N           46.73061500000000       -1.00863400000000       -1.06620900000000
C           48.06807499999999       -0.82466700000000       -0.83396200000000
C           48.73077099999999        0.01241200000000        0.00861700000000
C           47.93805100000000        1.05692700000000        0.90196500000000
C           48.42878999999999        2.25283000000000        1.38867500000000
C           47.41248100000000        2.84925300000000        2.17724200000000
C           46.32073300000000        2.00889300000000        2.13512600000000
N           46.63473300000000        0.94359000000000        1.32203600000000
C           44.93558800000000        2.21986200000000        2.87292500000000
C           44.85807800000000        3.25043800000000        3.93238700000000
C           45.33147699999999        2.99786900000000        5.23047900000000
C           45.24404900000000        3.99492000000000        6.18975500000000
O           45.69430600000000        3.76977000000000        7.46007400000000
C           44.69943000000000        5.23206200000000        5.86640900000000
O           44.62046700000000        6.20330300000000        6.83103000000000
C           44.24294199999999        5.49164000000000        4.57860200000000
O           43.72783200000000        6.73264500000000        4.32251600000000
C           44.31755200000000        4.50796900000000        3.60575600000000
C           43.84425300000000        1.51166300000000        2.47611900000000
C           42.55735199999999        1.61214000000000        3.14362800000000
C           41.69481700000000        0.82023400000000        2.51382400000000
C           42.39312400000000        0.20084500000000        1.41335500000000
N           43.68652200000000        0.61852700000000        1.45507200000000
H           40.68059599999999       -0.82301100000000        0.73667000000000
H           40.70312100000000       -1.81980500000000       -1.90585700000000
H           42.60827300000000       -2.73653100000000       -3.60781100000000
H           44.49810500000000       -0.99457400000000       -0.27880500000000
H           46.42118300000000       -1.77677400000000       -5.01486400000000
H           46.96957600000000       -2.23072700000000       -7.13718100000000
H           46.11273600000000       -5.08100900000000       -7.90928900000000
H           44.69794400000000       -6.96891200000000       -5.88960000000000
H           44.47767000000000       -4.99992900000000       -2.93160600000000
H           48.09639100000000       -3.15919800000000       -3.15767400000000
H           49.82639400000000       -1.89827700000000       -1.77312900000000
H           49.41367199999999        2.65629700000000        1.20134900000000
H           47.47416299999999        3.78490500000000        2.71325800000000
H           45.97644100000000        0.21894800000000        1.04055600000000
H           45.76090900000000        2.02879700000000        5.46902300000000
H           45.52438799999999        4.61061500000000        7.92457100000000
H           44.20532800000000        6.95657500000000        6.35496400000000
H           43.49435299999999        6.74876000000000        3.37494900000000
H           43.96210200000000        4.67182400000000        2.59033800000000
H           42.33306799999999        2.20611200000000        4.01103800000000
H           40.66049000000000        0.67330100000000        2.77015400000000
C           93.04060000000000       -0.68770300000000        0.47594600000000
C           92.35005499999998        0.35814200000000        1.40545600000000
C           92.99914800000001        1.28219000000000        2.18846300000000
C           92.00252999999998        2.02547500000000        2.87009700000000
C           90.77736299999999        1.52386500000000        2.49045500000000
N           91.00006000000000        0.53348900000000        1.56447900000000
C           89.35411700000000        1.97278200000000        3.03194500000000
C           89.29915900000000        2.91575000000000        4.18300400000000
C           88.73263500000000        4.18994900000000        3.98309000000000
C           88.67165900000001        5.09909600000000        5.03052700000000
O           88.11627400000000        6.33799100000000        4.87707500000000
C           89.19228999999999        4.76231900000000        6.27079300000000
O           89.14504700000001        5.66504700000000        7.30104000000000
C           89.77909900000000        3.51529600000000        6.47367100000000
O           90.31543800000000        3.21724600000000        7.69511800000000
C           89.83222000000001        2.58411900000000        5.44065500000000
C           88.22404899999998        1.52964800000000        2.40981700000000
C           86.90355699999999        1.78376900000000        2.94838700000000
C           86.00539599999999        1.23925200000000        2.13685600000000
N           88.04127800000001        0.79920200000000        1.26510000000000
C           86.70381799999998        0.62006700000000        1.02910600000000
C           86.04112099999999        0.01241200000000        0.00861700000000
C           86.83384200000000       -0.59277100000000       -1.22541600000000
C           86.34310200000000       -0.76642900000000       -2.50483500000000
C           87.35941200000001       -1.38168500000000       -3.27879800000000
C           88.45116000000000       -1.55010700000000       -2.45441100000000
N           88.13715999999999       -1.02783100000000       -1.22022600000000
C           89.83630500000000       -2.21215500000000       -2.84241700000000
C           89.91381400000000       -2.98169100000000       -4.10430400000000
C           89.44041499999999       -4.30179100000000       -4.18285600000000
C           89.52784400000000       -4.98264300000000       -5.38733200000000
O           89.07758699999999       -6.26901700000000       -5.48552400000000
C           90.07246299999998       -4.36148300000000       -6.50502300000000
O           90.15142600000000       -5.05393700000000       -7.68583200000000
C           90.52895100000001       -3.04959900000000       -6.43582100000000
O           91.04406100000000       -2.49262100000000       -7.57399900000000
C           90.45434100000000       -2.35227500000000       -5.24092600000000
C           90.92764000000000       -2.00415300000000       -2.05772900000000
C           92.21454100000000       -2.62563100000000       -2.32122200000000
C           93.07707600000001       -2.21280600000000       -1.39745600000000
C           92.37876899999999       -1.30118600000000       -0.52360000000000
N           91.08537099999999       -1.23760400000000       -0.93851800000000
H           94.09129600000000       -0.90070100000000        0.63648400000000
H           94.06877199999998        1.41046800000000        2.25976600000000
H           92.16361900000000        2.83061100000000        3.57134100000000
H           90.27378799999998        0.04008900000000        1.05545400000000
H           88.35070899999999        4.43230000000000        2.99209600000000
H           87.80231700000000        6.37478100000000        3.96012000000000
H           88.65915699999999        6.41298400000000        6.91288100000000
H           90.07394900000000        3.98688100000000        8.23852900000000
H           90.29422299999999        1.61220900000000        5.59513000000000
H           86.67550199999999        2.28942100000000        3.86863500000000
H           84.94549900000000        1.26238200000000        2.30272400000000
H           85.35822000000000       -0.48455500000000       -2.84896200000000
H           87.29773000000000       -1.66788800000000       -4.31843400000000
H           88.79545100000000       -0.93561800000000       -0.44832300000000
H           89.01098399999998       -4.77408100000000       -3.30368200000000
H           89.24750400000001       -6.50955600000000       -6.41553400000000
H           90.56656400000000       -4.40532800000000       -8.29686800000000
H           91.27754000000000       -1.57087600000000       -7.35370400000000
H           90.80979100000000       -1.32803400000000       -5.14682700000000
H           92.43882400000000       -3.31785700000000       -3.11244000000000
H           94.11140300000000       -2.49764500000000       -1.31896400000000
C           52.54634500000000        0.02514400000000        0.01114200000000
C           51.29407400000000        0.00596300000000        0.00679400000000
C           53.86001300000000        0.02437800000000        0.01307500000000
C           55.36314700000000        0.00596300000000        0.00679400000000
C           66.64671600000000        0.02514400000000        0.01114200000000
C           65.39444500000000        0.00596300000000        0.00679400000000
C           67.96038400000000        0.02437800000000        0.01307500000000
C           69.46351700000000        0.00596300000000        0.00679400000000
C           80.74708600000000        0.02514400000000        0.01114200000000
C           79.49481600000000        0.00596300000000        0.00679400000000
C           82.06075400000000        0.02437800000000        0.01307500000000
C           83.56388800000001        0.00596300000000        0.00679400000000
C           56.77522700000000       -0.01319000000000       -0.00941300000000
C           57.55966000000000       -1.35986200000000        0.28407200000000
C           57.02512300000000       -2.52931300000000        0.78865700000000
C           58.06254000000000       -3.49481500000000        0.81124800000000
C           59.20292300000000       -2.88236000000000        0.33266500000000
N           58.90367800000000       -1.56525900000000        0.08263900000000
C           60.60433400000000       -3.57437600000000        0.09232500000000
C           60.61164299999999       -5.03802700000000       -0.13524000000000
C           60.93830999999999       -5.91913100000000        0.91302200000000
C           60.94655600000000       -7.29702000000000        0.68812700000000
O           61.27580200000000       -8.15823600000000        1.70383100000000
C           60.62482400000000       -7.79413100000000       -0.57531300000000
O           60.62538799999999       -9.14074800000000       -0.82966100000000
C           60.29934700000000       -6.91569800000000       -1.61590700000000
O           59.99745600000000       -7.45147800000000       -2.84746100000000
C           60.28860500000000       -5.54057200000000       -1.40642300000000
C           61.74006600000000       -2.83148300000000        0.02302100000000
C           63.03139199999999       -3.42649000000000       -0.25478200000000
C           63.93833300000000       -2.45815900000000       -0.29453300000000
N           61.94794000000000       -1.48597200000000        0.15451900000000
C           63.27425800000000       -1.19647000000000       -0.03208300000000
C           63.94360800000000       -0.01319000000000       -0.00941300000000
C           63.16100800000000        1.33390600000000        0.28223900000000
C           63.69473400000000        2.49770200000000        0.80332900000000
C           62.65994400000000        3.46640900000000        0.81957700000000
C           61.52073500000000        2.86047300000000        0.32340100000000
N           61.82161300000000        1.54757300000000        0.05463300000000
C           60.11439499999999        3.55014100000000        0.09649600000000
C           60.07223600000000        5.02959000000000        0.04237400000000
C           60.34867700000000        5.72253700000000       -1.14762100000000
C           60.28720900000000        7.11055900000000       -1.15450800000000
O           60.54497500000000        7.80032000000000       -2.30844900000000
C           59.95896200000000        7.80674900000000        0.00753200000000
O           59.89559400000000        9.17626100000000       -0.02251800000000
C           59.69369600000000        7.12344800000000        1.18975600000000
O           59.37521600000000        7.85443700000000        2.30507200000000
C           59.74900699999999        5.73662000000000        1.21667500000000
C           58.98214299999999        2.80244100000000        0.00127600000000
C           57.68437800000000        3.40061700000000       -0.24806400000000
C           56.77717199999999        2.43156700000000       -0.28526800000000
C           57.44728900000000        1.16770100000000       -0.05126400000000
N           58.77969300000000        1.45332900000000        0.09813800000000
H           55.99681900000000       -2.68263500000000        1.08326700000000
H           57.97975499999999       -4.52698300000000        1.12271300000000
H           59.57503800000000       -0.85159100000000       -0.18887200000000
H           61.18745000000000       -5.49725900000000        1.88607500000000
H           61.53130100000000       -7.61814300000000        2.47477300000000
H           60.38003200000000       -9.19327200000000       -1.77601600000000
H           59.81754100000000       -6.69414900000000       -3.43756100000000
H           60.04224600000000       -4.83716100000000       -2.20015900000000
H           63.23403400000000       -4.47046900000000       -0.41544800000000
H           64.98430800000000       -2.60725100000000       -0.49176500000000
H           64.71962900000000        2.64532600000000        1.11567800000000
H           62.74440900000000        4.49404800000000        1.14166300000000
H           61.15027100000000        0.83761900000000       -0.22948900000000
H           60.59921600000000        5.16993000000000       -2.05078800000000
H           60.40123600000000        8.73443700000000       -2.05799400000000
H           59.63918000000000        9.40343400000000        0.89667000000000
H           59.22995600000000        7.20687300000000        3.02000500000000
H           59.54083200000000        5.16861400000000        2.12031800000000
H           57.48062400000000        4.44644100000000       -0.39703900000000
H           55.72686600000000        2.58126700000000       -0.45723900000000
C           70.87559799999998       -0.01319000000000       -0.00941300000000
C           71.66003100000000       -1.35986200000000        0.28407200000000
C           71.12549300000001       -2.52931300000000        0.78865700000000
C           72.16291099999999       -3.49481500000000        0.81124800000000
C           73.30329399999999       -2.88236000000000        0.33266500000000
N           73.00404800000000       -1.56525900000000        0.08263900000000
C           74.70470499999999       -3.57437600000000        0.09232500000000
C           74.71201300000000       -5.03802700000000       -0.13524000000000
C           75.03868099999998       -5.91913100000000        0.91302200000000
C           75.04692700000000       -7.29702000000000        0.68812700000000
O           75.37617299999999       -8.15823600000000        1.70383100000000
C           74.72519400000000       -7.79413100000000       -0.57531300000000
O           74.72575799999998       -9.14074800000000       -0.82966100000000
C           74.39971799999998       -6.91569800000000       -1.61590700000000
O           74.09782700000000       -7.45147800000000       -2.84746100000000
C           74.38897500000000       -5.54057200000000       -1.40642300000000
C           75.84043600000000       -2.83148300000000        0.02302100000000
C           77.13176199999998       -3.42649000000000       -0.25478200000000
C           78.03870400000000       -2.45815900000000       -0.29453300000000
N           76.04831099999998       -1.48597200000000        0.15451900000000
C           77.37462900000000       -1.19647000000000       -0.03208300000000
C           78.04397899999999       -0.01319000000000       -0.00941300000000
C           77.26137899999999        1.33390600000000        0.28223900000000
C           77.79510500000001        2.49770200000000        0.80332900000000
C           76.76031399999999        3.46640900000000        0.81957700000000
C           75.62110600000000        2.86047300000000        0.32340100000000
N           75.92198399999999        1.54757300000000        0.05463300000000
C           74.21476600000000        3.55014100000000        0.09649600000000
C           74.17260700000000        5.02959000000000        0.04237400000000
C           74.44904800000000        5.72253700000000       -1.14762100000000
C           74.38757999999999        7.11055900000000       -1.15450800000000
O           74.64534500000001        7.80032000000000       -2.30844900000000
C           74.05933300000000        7.80674900000000        0.00753200000000
O           73.99596500000000        9.17626100000000       -0.02251800000000
C           73.79406700000000        7.12344800000000        1.18975600000000
O           73.47558700000000        7.85443700000000        2.30507200000000
C           73.84937799999999        5.73662000000000        1.21667500000000
C           73.08251400000000        2.80244100000000        0.00127600000000
C           71.78474900000001        3.40061700000000       -0.24806400000000
C           70.87754300000000        2.43156700000000       -0.28526800000000
C           71.54765999999999        1.16770100000000       -0.05126400000000
N           72.88006400000000        1.45332900000000        0.09813800000000
H           70.09718900000000       -2.68263500000000        1.08326700000000
H           72.08012600000001       -4.52698300000000        1.12271300000000
H           73.67540800000000       -0.85159100000000       -0.18887200000000
H           75.28782099999999       -5.49725900000000        1.88607500000000
H           75.63167100000000       -7.61814300000000        2.47477300000000
H           74.48040300000000       -9.19327200000000       -1.77601600000000
H           73.91791200000000       -6.69414900000000       -3.43756100000000
H           74.14261700000000       -4.83716100000000       -2.20015900000000
H           77.33440499999999       -4.47046900000000       -0.41544800000000
H           79.08467799999998       -2.60725100000000       -0.49176500000000
H           78.81999999999999        2.64532600000000        1.11567800000000
H           76.84477999999999        4.49404800000000        1.14166300000000
H           75.25064200000000        0.83761900000000       -0.22948900000000
H           74.69958600000000        5.16993000000000       -2.05078800000000
H           74.50160600000000        8.73443700000000       -2.05799400000000
H           73.73954999999999        9.40343400000000        0.89667000000000
H           73.33032700000000        7.20687300000000        3.02000500000000
H           73.64120300000000        5.16861400000000        2.12031800000000
H           71.58099400000000        4.44644100000000       -0.39703900000000
H           69.82723600000000        2.58126700000000       -0.45723900000000
262
 energy: -502.953433471442 gnorm: 0.473864958960 xtb: 6.5.1 (b24c23e)
C           41.75729727377795       -0.62907368967372        0.53983886261523
C           42.41965995417089       -1.24598729844326       -0.65935014096254
C           41.77714357385000       -1.78854032336254       -1.76735129573504
C           42.76714051069774       -2.26083328308794       -2.64999618975534
C           44.01408335959291       -2.01812362990134       -2.07615359194788
N           43.77422370903713       -1.36543236527876       -0.88297645346160
C           45.38466182626426       -2.41299977091406       -2.62578833727552
C           45.46013075044447       -3.29761031764494       -3.83308499534989
C           46.03853196058425       -2.79576073953675       -5.01479781653831
C           46.09932258601719       -3.58162471748435       -6.15941091259825
O           46.65501121332794       -3.12617175447441       -7.32464430168527
C           45.57817809406358       -4.86909115523851       -6.14758427614891
O           45.62896821215976       -5.64072733241692       -7.27921139895021
C           44.99112026258247       -5.37460518815651       -4.98835798858167
O           44.46256076362256       -6.62996490437176       -5.01059117613756
C           44.93672196831446       -4.59994801511909       -3.83203659465590
C           46.55000915334413       -1.93145237797896       -2.05108161266382
C           47.87069010342950       -2.39785941392008       -2.44412311128187
C           48.77623911421855       -1.74443271089619       -1.70843300781424
N           46.72314822246454       -1.00224938160360       -1.06129741907217
C           48.07127853008630       -0.82222349356780       -0.82908897175834
C           48.70031712968051        0.03840511592740        0.03138593256278
C           47.94710147398786        1.04540247747984        0.88760673287171
C           48.42884841696061        2.25211323239200        1.39550564518051
C           47.41672747659273        2.84380617687447        2.17615284798608
C           46.30392414098028        2.00566356689434        2.13958927386774
N           46.63726893347537        0.93950821139488        1.32400768838250
C           44.96794831232276        2.21049130608868        2.84947697402376
C           44.87028660471022        3.24552956466515        3.92171254671546
C           45.33261299002690        2.99620251082303        5.22145661710649
C           45.24446410381326        3.99138687761465        6.18815851877942
O           45.69145346215797        3.77378216708900        7.45613420134690
C           44.69947292372989        5.23141283929276        5.86515743543602
O           44.61858697320262        6.20529171977383        6.82659412869462
C           44.24324768600545        5.48600787416528        4.57585274319446
O           43.72839360203832        6.72925501444594        4.31878877390163
C           44.31948287425850        4.49828096200530        3.60385619351249
C           43.84486189936395        1.50473134220018        2.47218984068039
C           42.55648890402939        1.61794100687428        3.15065961560562
C           41.68964814762651        0.82168272110836        2.51772165443954
C           42.40258103020336        0.19905522468130        1.41554429371480
N           43.69783429412163        0.61599091315559        1.44686246642527
H           40.69720557080520       -0.82603822215075        0.71847129349079
H           40.70679449833431       -1.82223370619729       -1.90898946426495
H           42.60577463196592       -2.73598575413019       -3.60583464070707
H           44.49840029217967       -0.99485521758257       -0.27876136150475
H           46.42119386063533       -1.77886358710205       -5.01588670454826
H           46.97221778664773       -2.22960152385575       -7.14437576454762
H           46.11165772293977       -5.08597621021502       -7.91539663711307
H           44.69397274185629       -6.97426496231736       -5.89007091056608
H           44.47891069512993       -4.99957523364326       -2.93364487719591
H           48.09280305252572       -3.16370127533016       -3.16436229607735
H           49.83678607919696       -1.89326349454464       -1.76824002933394
H           49.41185215900649        2.65655339900020        1.20481720824813
H           47.47636441684201        3.78164513430296        2.71048078166332
H           45.97924592520265        0.21970301263593        1.04115855682499
H           45.76004651076379        2.03079433473781        5.46842782103025
H           45.52612312144360        4.60870235999313        7.92891079707449
H           44.20664140942204        6.95907664192782        6.36210837748158
H           43.49253586652338        6.75408690974270        3.37764188549472
H           43.96311254409397        4.67283803152913        2.59272577082893
H           42.33716977018273        2.21337941394729        4.01716610990554
H           40.65484934643585        0.67099447646642        2.76898555830332
C           93.01457520594495       -0.66175752686353        0.49767515617360
C           92.35224639237680        0.34604646956109        1.39368225966062
C           92.99475703162500        1.28410699340905        2.19501858897130
C           92.00475670107483        2.02137388927804        2.87215231301201
C           90.75781000783869        1.52601245904949        2.49417747343404
N           90.99765739497194        0.53291306793041        1.56504120089298
C           89.38706175803465        1.95998749274281        3.01337597911911
C           89.31171535867595        2.90906501226878        4.17081556775672
C           88.73335745998081        4.17854067482802        3.97897422149476
C           88.67256855006826        5.09148669814344        5.02505430398860
O           88.11689474090126        6.33339223130410        4.87404312451820
C           89.19371360972612        4.75950844942382        6.26904883910451
O           89.14292379166859        5.66338574796354        7.29810362371249
C           89.78077337354551        3.51092686159823        6.47004533827939
O           90.30932695914275        3.21992789019812        7.69141034196923
C           89.83516459105689        2.58385779460215        5.43189763417126
C           88.22176915244030        1.52320958400053        2.40384111730640
C           86.90113901240548        1.78785458403168        2.95361625095972
C           85.99542138245755        1.23811726580927        2.13780949095412
N           88.04804411859018        0.79571659304919        1.25726651746659
C           86.69953671068438        0.61588259297285        1.02553506411742
C           86.06855412640496       -0.00235355149703       -0.02247813438357
C           86.82391801832976       -0.58201520983071       -1.21058273802536
C           86.34289936264348       -0.77321494639385       -2.50593580155928
C           87.35512575507300       -1.38196196809257       -3.27320640295573
C           88.46786071067417       -1.55511542935229       -2.45229113246129
N           88.13421634691949       -1.03069531478818       -1.21652417443675
C           89.80390755797504       -2.19172276951615       -2.82751462705379
C           89.90158759188787       -2.97258063200127       -4.09689061692180
C           89.43926208195245       -4.29347689450988       -4.17898842554214
C           89.52741571327337       -4.98200239559469       -5.38352668503418
O           89.08049115145998       -6.26414777696129       -5.48840426547602
C           90.07241635493244       -4.36043809127157       -6.50411268469308
O           90.15333587131072       -5.04911693476994       -7.68658576838200
C           90.52864041542540       -3.04832846093584       -6.42969531727544
O           91.04351015246569       -2.48986870495732       -7.56973454346518
C           90.45242353070931       -2.35283361113897       -5.23105885093178
C           90.92703197354653       -2.00207546927775       -2.05004068629237
C           92.21539692309422       -2.63099446607591       -2.32859368063957
C           93.08223978934805       -2.21622103223961       -1.39983212803982
C           92.36931277370579       -1.30376011566323       -0.52242491325158
N           91.07405510036303       -1.23028983656770       -0.93400115452277
H           94.07467506489591       -0.88382002095509        0.64394615997025
H           94.06510063280217        1.41290073906729        2.26290099749544
H           92.16611280051933        2.82882558943860        3.57031142243436
H           90.27348489136179        0.03997776712644        1.05572063319548
H           88.35069763364993        4.43276895124151        2.99437167145741
H           87.79966881581882        6.38203793267401        3.96082269148712
H           88.66023565700606        6.41766296784567        6.91920995404936
H           90.07792373624652        3.98600476747658        8.24382701788335
H           90.29298029943386        1.61426782305125        5.59529617773908
H           86.67911049399972        2.29477404218875        3.87465063374554
H           84.93493252770011        1.25897210314667        2.29671126877754
H           85.35996150081363       -0.48786703281563       -2.85014392026206
H           87.29553936871594       -1.66599543830846       -4.31454417607265
H           88.79247847968800       -0.93593189130650       -0.44911702998307
H           89.01183959572704       -4.77301642600445       -3.30546444053073