225
 energy: -346.041082346136 gnorm: 0.645470439406 xtb: 6.5.1 (b24c23e)
Fe          35.05465100000000       -0.02107500000000       -0.01856900000000
C           31.68078300000000        0.11144400000000        0.02071400000000
C           32.34949900000000        1.16408300000000        0.49932600000000
C           31.70618200000000        2.34561300000000        1.06211000000000
C           32.65319600000000        3.19807600000000        1.40723500000000
C           33.95364000000000        2.60078000000000        1.07685000000000
N           33.76907300000000        1.30658800000000        0.50442300000000
C           35.14739899999999        3.19831300000000        1.25916600000000
C           35.19295300000000        4.56620700000000        1.83872700000000
C           35.10921999999999        5.69944500000000        0.99552700000000
C           34.97142500000000        5.54899500000000       -0.49750600000000
C           35.15216100000000        6.98472100000000        1.55706600000000
C           35.27175699999999        7.15738100000000        2.94093500000000
C           35.35765500000000        8.53732100000000        3.52440800000000
C           35.38051099999999        6.03577000000000        3.77108000000000
C           35.33370200000000        4.73966600000000        3.23557800000000
C           35.44506700000000        3.55344900000000        4.15807500000000
C           36.44048200000000        2.55886500000000        0.90583700000000
C           37.73261900000000        3.24956400000000        0.97802900000000
C           38.66781700000000        2.39057800000000        0.63000500000000
N           36.57787299999999        1.32357000000000        0.53043600000000
C           37.98006800000000        1.13880700000000        0.33413300000000
C           38.57506699999999       -0.01492500000000       -0.01438300000000
C           37.81782000000000       -1.25688600000000       -0.30201500000000
C           38.37410700000000       -2.45575100000000       -0.42488900000000
C           37.32512600000000       -3.38481700000000       -0.79150000000000
C           36.19374500000000       -2.69446700000000       -0.86798200000000
N           36.41404700000000       -1.31604600000000       -0.56187200000000
C           34.89206100000000       -3.27408900000000       -1.28804100000000
C           34.88158200000000       -4.63619400000000       -1.88635900000000
C           35.12025200000000       -4.80388700000000       -3.27054500000000
C           35.38797900000000       -3.61882100000000       -4.16199600000000
C           35.11695700000000       -6.09381100000000       -3.82261000000000
C           34.87820600000000       -7.21491200000000       -3.02043500000000
C           34.85263300000000       -8.58093400000000       -3.64124600000000
C           34.62908600000000       -7.04730600000000       -1.65277800000000
C           34.63978500000000       -5.76925800000000       -1.07347300000000
C           34.37870700000000       -5.62558100000000        0.40388100000000
C           33.73038700000000       -2.61134800000000       -1.14454200000000
C           32.41038800000000       -3.10692500000000       -1.52734300000000
C           31.54924800000000       -2.17981000000000       -1.15623400000000
C           32.31140700000000       -1.09132200000000       -0.54573800000000
N           33.58468600000000       -1.33235300000000       -0.53267000000000
H           30.59760800000000        0.13680000000000        0.04304200000000
H           30.64309400000000        2.51159300000000        1.18002200000000
H           32.47535300000000        4.16938600000000        1.85051100000000
H           34.01980200000000        5.02960400000000       -0.73566200000000
H           35.82145600000000        4.95703600000000       -0.89706500000000
H           34.96689800000000        6.53332800000000       -1.01192800000000
H           35.09294800000000        7.85670600000000        0.91620100000000
H           34.93379600000000        8.55602700000000        4.55116800000000
H           36.42047700000000        8.85524200000000        3.56510100000000
H           34.78575400000000        9.26189600000000        2.90625700000000
H           35.49987400000000        6.17529400000000        4.83919100000000
H           36.36006199999999        2.97407700000000        3.91387800000000
H           35.50392600000000        3.86379300000000        5.22264000000000
H           34.55577000000000        2.89933600000000        4.04012600000000
H           37.90826999999999        4.27817500000000        1.26454800000000
H           39.72799799999999        2.60234800000000        0.58736900000000
H           39.41971700000000       -2.70290600000000       -0.30106400000000
H           37.45246800000000       -4.44097200000000       -0.99073100000000
H           34.55288000000000       -2.89087400000000       -4.08412800000000
H           35.48380400000000       -3.91829300000000       -5.22715600000000
H           36.33354200000000       -3.12549700000000       -3.85379900000000
H           35.29871500000000       -6.23025500000000       -4.88251100000000
H           35.75358200000000       -8.72497300000000       -4.27563700000000
H           34.84351299999999       -9.37909700000000       -2.86790300000000
H           33.94403700000000       -8.68387700000000       -4.27190700000000
H           34.43022800000000       -7.91618400000000       -1.03653000000000
H           33.42420400000000       -5.08259900000000        0.56432300000000
H           35.20627200000000       -5.05996600000000        0.88109700000000
H           34.30596100000000       -6.61294800000000        0.90733200000000
H           32.16254800000000       -4.04471500000000       -2.00749400000000
H           30.47602700000000       -2.23063300000000       -1.28444000000000
Fe          57.84424299999999       -0.00758800000000       -0.01314600000000
C           61.21811000000000       -0.13040800000000       -0.07654600000000
C           60.54939400000000       -1.22133200000000       -0.45995900000000
C           61.19271199999999       -2.46353500000000       -0.87186800000000
C           60.24569800000000       -3.31759800000000       -1.21301500000000
C           58.94525400000000       -2.65786400000000       -1.03789200000000
N           59.12982000000000       -1.32769000000000       -0.55494000000000
C           57.75149499999999       -3.21525700000000       -1.32002300000000
C           57.70593999999999       -4.60355200000000       -1.84885300000000
C           57.78967399999999       -4.83750800000000       -3.24186300000000
C           57.92746899999999       -3.69527800000000       -4.21505100000000
C           57.74673200000000       -6.15371100000000       -3.72649800000000
C           57.62713600000000       -7.23638900000000       -2.84745800000000
C           57.54123799999999       -8.63608600000000       -3.38180400000000
C           57.51838200000000       -7.00178600000000       -1.47191800000000
C           57.56519100000000       -5.69579600000000       -0.96099900000000
C           57.45382600000000       -5.47851100000000        0.52591100000000
C           56.45841200000000       -2.50922300000000       -1.13227200000000
C           55.16627499999999       -3.05760000000000       -1.55837100000000
C           54.23107700000000       -2.19682300000000       -1.21479900000000
N           56.32102099999999       -1.35795300000000       -0.54792700000000
C           54.91882500000000       -1.08872500000000       -0.56165900000000
C           54.32382600000000       -0.01492500000000       -0.01438300000000
C           55.08107300000000        1.08039000000000        0.63791100000000
C           54.52478600000000        2.03054000000000        1.37925300000000
C           55.57376800000000        2.95475300000000        1.75793100000000
C           56.70514900000000        2.50955900000000        1.22479500000000
N           56.48484600000000        1.30298500000000        0.49136000000000
C           58.00683200000000        3.21862300000000        1.32297500000000
C           58.01731100000000        4.61572700000000        1.83426200000000
C           57.77864099999999        5.69504200000000        0.95155400000000
C           57.51091400000000        5.45709300000000       -0.51215600000000
C           57.78193700000000        7.00803900000000        1.44624300000000
C           58.02068700000000        7.26163900000000        2.80124900000000
C           58.04626100000000        8.67714300000000        3.29901700000000
C           58.26980800000000        6.19383100000000        3.67208900000000
C           58.25910900000000        4.87054400000000        3.20527800000000
C           58.52018699999999        3.74405600000000        4.17184100000000
C           59.16850700000000        2.64105200000000        0.96768900000000
C           60.48850500000000        3.26367500000000        1.03456700000000
C           61.34964500000000        2.33775600000000        0.66048500000000
C           60.58748600000000        1.12965700000000        0.34741900000000
N           59.31420800000000        1.29453400000000        0.52372100000000
H           62.30128500000000       -0.16416400000000       -0.07798900000000
H           62.25579900000000       -2.66493700000000       -0.90169700000000
H           60.42354100000000       -4.32537100000000       -1.56562000000000
H           58.87909100000000       -3.15561200000000       -4.02731100000000
H           57.07743800000000       -2.99150400000000       -4.09353600000000
H           57.93199500000000       -4.04940700000000       -5.26773000000000
H           57.80594499999999       -6.33923200000000       -4.79263400000000
H           57.96509800000000       -9.36043800000000       -2.65386200000000
H           56.47841600000000       -8.89366600000000       -3.57254700000000
H           58.11314000000000       -8.73096400000000       -4.32949500000000
H           57.39902000000000       -7.84194700000000       -0.79778200000000
H           56.53883100000000       -4.89138200000000        0.75081800000000
H           57.39496800000000       -6.43947800000000        1.07922400000000
H           58.34312300000000       -4.92485500000000        0.89366100000000
H           54.99062399999999       -3.99819400000000       -2.06375900000000
H           53.17089599999999       -2.32011500000000       -1.39217900000000
H           53.47917699999999        2.12315500000000        1.63971600000000
H           55.44642499999999        3.85479100000000        2.34537400000000
H           58.34601299999999        4.87790900000000       -0.95994500000000
H           57.41509000000000        6.41062800000000       -1.07342500000000
H           56.56535199999999        4.88774600000000       -0.63130700000000
H           57.60017800000000        7.84029300000000        0.77590000000000
H           57.14531199999999        9.22028600000000        2.94097200000000
H           58.05538099999999        8.71767800000000        4.40963700000000
H           58.95485700000000        9.18804900000000        2.91521100000000
H           58.46866599999999        6.39415400000000        4.71831100000000
H           59.47468900000000        3.24117100000000        3.91169200000000
H           57.69262199999999        3.00552900000000        4.12460100000000
H           58.59293200000000        4.10797200000000        5.21870400000000
H           60.73634600000000        4.27279000000000        1.33735500000000
H           62.42286699999999        2.46318900000000        0.60316000000000
C           40.52473600000000       -0.01492500000000       -0.01438300000000
C           41.74665300000000       -0.01492500000000       -0.01438300000000
C           51.15224000000000       -0.01492500000000       -0.01438300000000
C           52.37415800000000       -0.01492500000000       -0.01438300000000
Fe          46.44523600000000       -0.02584800000000        0.00485700000000
C           42.99937700000000        0.03107600000000        0.02994800000000
C           43.65789900000000        0.19288500000000        1.19269800000000
C           43.01612400000000        0.42716700000000        2.48862900000000
C           43.95619099999999        0.50257100000000        3.40812200000000
C           45.25573899999999        0.32209600000000        2.75530400000000
N           45.07737100000000        0.12913500000000        1.35055000000000
C           46.44074999999999        0.31526500000000        3.39819800000000
C           46.46500000000000        0.48720300000000        4.87486300000000
C           46.62156800000000        1.77647800000000        5.43612400000000
C           46.78250599999999        2.99184300000000        4.55961600000000
C           46.65090100000000        1.92521100000000        6.83113400000000
C           46.50296000000000        0.81599900000000        7.67240000000000
C           46.56625400000000        0.98353400000000        9.16246800000000
C           46.36489600000000       -0.46077700000000        7.11581500000000
C           46.34597800000000       -0.63858500000000        5.72401400000000
C           46.18123300000000       -2.02548900000000        5.15845500000000
C           47.74519200000000        0.14646500000000        2.71147300000000
C           49.02198899999999        0.00338200000000        3.42053900000000
C           49.97707200000000       -0.07630300000000        2.51783600000000
N           47.91033500000000        0.15586500000000        1.42484300000000
C           49.31699500000000        0.01704100000000        1.22160600000000
C           49.93619700000000        0.03107600000000        0.02994800000000
C           49.19781900000000        0.12274700000000       -1.25035500000000
C           49.76578200000000        0.37642700000000       -2.42248200000000
C           48.73209900000000        0.27931700000000       -3.43281500000000
C           47.59927800000000       -0.02551100000000       -2.81155000000000
N           47.80184200000000       -0.13827500000000       -1.40286200000000
C           46.32063300000000       -0.31304600000000       -3.50552900000000
C           46.35282300000000       -0.55991100000000       -4.97229900000000
C           46.10558800000000        0.49880900000000       -5.87850700000000
C           45.80241000000000        1.89029900000000       -5.38552800000000
C           46.14389700000000        0.25129900000000       -7.25920900000000
C           46.42098600000000       -1.03025900000000       -7.74904300000000
C           46.50538000000000       -1.27061100000000       -9.22778800000000
C           46.69052500000000       -2.07043900000000       -6.85211500000000
C           46.64689799999999       -1.85258400000000       -5.46666500000000
C           46.94188900000000       -2.99562500000000       -4.52978700000000
C           45.14467000000000       -0.37318400000000       -2.85395500000000
C           43.85312800000000       -0.66617700000000       -3.46470600000000
C           42.96179100000000       -0.56591000000000       -2.50090400000000
C           43.67344100000000       -0.21250700000000       -1.26717700000000
N           44.95086100000000       -0.09922300000000       -1.46677600000000
H           41.95778700000000        0.52195100000000        2.69150700000000
H           43.77249699999999        0.66703700000000        4.46208300000000
H           47.73798300000000        2.92279200000000        3.99935700000000
H           46.79355300000000        3.92904000000000        5.15518200000000
H           45.93992299999999        3.05527200000000        3.83982100000000
H           46.78661600000000        2.90856100000000        7.26630800000000
H           47.61139300000000        0.83644400000000        9.50612100000000
H           45.91068300000000        0.24138300000000        9.66598700000000
H           46.22635500000000        1.99807500000000        9.46147200000000
H           46.27422000000000       -1.31881600000000        7.77164700000000
H           45.20542800000000       -2.10118500000000        4.63495600000000
H           46.99984100000000       -2.24274900000000        4.44086700000000
H           46.21126000000000       -2.80002900000000        5.95410800000000
H           49.17455600000000       -0.02939900000000        4.49142800000000
H           51.03277100000000       -0.18364200000000        2.72904600000000
H           50.81071300000000        0.58688800000000       -2.60631600000000
H           48.87233400000000        0.39707700000000       -4.49947500000000
H           44.85221100000000        1.88601200000000       -4.81169800000000
H           45.69716499999999        2.61090000000000       -6.22443600000000
H           46.62451600000000        2.24589800000000       -4.72930900000000
H           45.96177800000000        1.05919600000000       -7.95834100000000
H           46.19559000000000       -2.30884200000000       -9.47357700000000
H           47.55024000000000       -1.11416800000000       -9.56838200000000
H           45.83677100000000       -0.57470400000000       -9.77844600000000
H           46.93405800000000       -3.05401900000000       -7.23691400000000
H           47.02421200000000       -3.96110000000000       -5.07296800000000
H           46.12672200000000       -3.09590200000000       -3.78281600000000
H           47.90099800000000       -2.80762800000000       -4.00375300000000
H           43.64200500000000       -0.91056600000000       -4.49774100000000
H           41.89879000000000       -0.72229300000000       -2.62497900000000
225
 energy: -346.239158633321 gnorm: 0.325197461668 xtb: 6.5.1 (b24c23e)
Fe          35.06171976940600       -0.01478396677032       -0.01558650880055
C           31.68181603917526        0.09527469002927        0.01260628268875
C           32.35775631921107        1.16193628607212        0.49808473638639
C           31.70871837495909        2.33680729387097        1.05816609866096
C           32.66700974144329        3.19788966452475        1.40650077047267
C           33.95686469259376        2.59214715565045        1.07357689841965
N           33.75929099653126        1.31221005243186        0.51026185714783
C           35.16538723100662        3.19585834514558        1.25694989445449
C           35.19957502810369        4.57103960688672        1.83977168743557
C           35.10998638777421        5.70018135666292        1.00045527781187
C           34.97198420100865        5.54760911099956       -0.49573409258626
C           35.15172388466956        6.97920047607332        1.56068361269426
C           35.27499272773298        7.15430927044625        2.93923857312087
C           35.35546875144350        8.53817508408823        3.52496958554099
C           35.37872494166449        6.03445448761762        3.76471810462911
C           35.33456336538254        4.74371696103536        3.23228914814875
C           35.44463712536718        3.55378065733112        4.15568115976715
C           36.43413426363860        2.56913243318759        0.91079022047639
C           37.71848207503374        3.25820602555788        0.98372491053279
C           38.66719841541772        2.38390136351426        0.62866348974603
N           36.59212733120170        1.31669082844302        0.51780715842149
C           37.99757728673492        1.13077887549177        0.33215047228629
C           38.60978655098672       -0.03219926538565       -0.01494908558809
C           37.82361468584933       -1.23766797092525       -0.30658399869690
C           38.37930013653219       -2.47539877554984       -0.43151499849172
C           37.34546084287732       -3.38577582357606       -0.79147643874448
C           36.18439731439035       -2.67529635673192       -0.87058032539586
N           36.41874465830442       -1.31259111076777       -0.54638864283361
C           34.90859396414780       -3.26513882969885       -1.28452257679774
C           34.89120630351322       -4.63761368331713       -1.88500278557506
C           35.12153107315365       -4.80685757252626       -3.26643741635553
C           35.38726352354965       -3.61887689349951       -4.15972247428127
C           35.11543626734901       -6.09178332900478       -3.81544881645572
C           34.87613704022641       -7.21177157651990       -3.01830335312572
C           34.85380523909836       -8.58186431688820       -3.64090368364914
C           34.63059967764639       -7.04080799086069       -1.65600360249777
C           34.64107332425674       -5.76793348749467       -1.07813816266555
C           34.37983586737275       -5.62395031820516        0.40238485344540
C           33.73340567913245       -2.60642627308906       -1.14277074367238
C           32.41981063027266       -3.10429300543933       -1.52440734302231
C           31.54018537285129       -2.16765200993687       -1.14957001788552
C           32.29502752025682       -1.08185824210160       -0.54121372908223
N           33.58915290232792       -1.33217955060688       -0.54014940217777
H           30.59841320032727        0.12990769798889        0.03913464068668
H           30.64511984088843        2.50076686627561        1.17526745878759
H           32.49022877347147        4.16890454042546        1.84993830665982
H           34.02948293703341        5.03135168059895       -0.73577087211777
H           35.81232147387235        4.95919948659744       -0.89539050023319
H           34.96683939874593        6.52427330374964       -1.00448509752123
H           35.09227702308915        7.85270445146680        0.91742570733088
H           34.93958737370031        8.55677192403373        4.54375535564302
H           36.40983348385566        8.85561555132001        3.56624852674314
H           34.79259914578400        9.25737222823273        2.91089517715145
H           35.49840474337078        6.17328941925197        4.83560291815723
H           36.35063815992996        2.97566221805369        3.91573690734068
H           35.50351668670698        3.86283999667258        5.21095174574992
H           34.56514648733980        2.90165982728706        4.04003268908916
H           37.89609230034036        4.28322639645517        1.26757536065281
H           39.72682497401345        2.59129324139874        0.58416658930988
H           39.42212047414116       -2.71155257430639       -0.30186003713241
H           37.45873779388761       -4.44104985548241       -0.98848394802597
H           34.56203010146116       -2.89399177766166       -4.08342296482434
H           35.48272159669890       -3.91751256638730       -5.21540338733266
H           36.32409658203567       -3.12616128786218       -3.85620988266461
H           35.29824469145048       -6.22777622820941       -4.87817745104936
H           35.74421627675816       -8.72542674695704       -4.27269296726332
H           34.84242668788161       -9.37210028189433       -2.87480205250325
H           33.95363725769256       -8.68591765391120       -4.26784752698043
H           34.43154888081463       -7.91177277521493       -1.03760018876945
H           33.43374902257875       -5.08472225115491        0.56537918719678
H           35.19745949747628       -5.06159587028799        0.87860225702767
H           34.30645746027384       -6.60383848853603        0.89970123739156
H           32.17606204027776       -4.04262641584711       -2.00571139495922
H           30.47129783940076       -2.22125598711993       -1.28031921387944
Fe          57.83725383604155       -0.01417277316667       -0.01541955010150
C           61.21706577372009       -0.11310650199470       -0.07118404150576
C           60.54113996998087       -1.21896780905108       -0.45935845314721
C           61.19020341169781       -2.45448347314339       -0.86862571395408
C           60.23190990935186       -3.31697374150414       -1.21342493707980
C           58.94207406981002       -2.64931826064801       -1.03423288633240
N           59.13977957946073       -1.33598418954142       -0.55472180604771
C           57.73337628587911       -3.21194059751871       -1.31989524429922
C           57.69927703204854       -4.60776552595635       -1.85145368033852
C           57.78890475996405       -4.84145625071168       -3.23881805580485
C           57.92690972455381       -3.69550494195846       -4.21281305201186
C           57.74717126678155       -6.15223535051724       -3.72006749317296
C           57.62389957354926       -7.23300077921701       -2.84655230569526
C           57.54342494984781       -8.63709120856072       -3.38198824642261
C           57.52017343960242       -6.99643233411859       -1.47559506389714
C           57.56432665696221       -5.69644333091240       -0.96616904122251
C           57.45425627656620       -5.47709695012157        0.52395608439361
C           56.46488288624863       -2.52015174070363       -1.13577749565147
C           55.18037724875105       -3.06773666984604       -1.56027832186202
C           54.23172551358878       -2.19101616948858       -1.21119785551069
N           56.30696195706336       -1.34415400638936       -0.55229155873321
C           54.90173824671533       -1.08128282500887       -0.55791995252805
C           54.29097296869276       -0.00124018804026       -0.00267887634402
C           55.07557182589263        1.06991653832894        0.62201920760530
C           54.51956094449185        2.04969716892585        1.38841797933032
C           55.55327189630464        2.95550830765014        1.75872115485604
C           56.71445277910918        2.49751928088852        1.20966426255814
N           56.48009513598314        1.28996177162515        0.50018079666777
C           57.99023554253481        3.20969110429224        1.31930408185209
C           58.00766531386190        4.61579638458521        1.83622952785424
C           57.77735875853575        5.69433288440188        0.95656475939441
C           57.51163009775708        5.45556060377571       -0.51047542593304
C           57.78346170283835        7.00161020592745        1.45000800942526
C           58.02275604385388        7.25789695365682        2.80061123279649
C           58.04508795702804        8.67757480403382        3.29990942874241
C           58.26829473800506        6.19137484961084        3.66526597764438
C           58.25781532147424        4.87281962397973        3.20099166780108
C           58.51905842474654        3.74391298408934        4.16963504433094
C           59.16546129787468        2.63622224533458        0.96552962152121
C           60.47907180718497        3.25972215412347        1.03486146876091
C           61.35869833673659        2.32435544512007        0.65687936803745
C           60.60386020789388        1.11965601521806        0.34412358489324
N           59.30967828431690        1.29957141679392        0.51818485236106
H           62.30047408556938       -0.15646898560273       -0.07603639326943
H           62.25379237555561       -2.65384796560133       -0.89763571403811
H           60.40866548331620       -4.32464202966274       -1.56570435821691
H           58.86941020188593       -3.15679788908772       -4.02859894324214
H           57.08657290936225       -2.99422098047301       -4.09382732793167
H           57.93205482451987       -4.04802576313487       -5.25609114544603
H           57.80661796024257       -6.33719446090511       -4.78898253504082
H           57.95930534521149       -9.35584188860900       -2.65972466149675
H           56.48906019985417       -8.89472969028694       -3.57197353353916
H           58.10629533060943       -8.73091188522977       -4.32301500833769
H           57.40048932746754       -7.83801341179955       -0.79898378309560
H           56.54825760406554       -4.89381945189294        0.75106334997523
H           57.39537688029397       -6.43069823674712        1.07144809218812
H           58.33374657460966       -4.92646890232048        0.89198565191104
H           55.00274848919023       -4.00390978591493       -2.06506227826607
H           53.17206743770344       -2.30989648309978       -1.38679930309469
H           53.47669519881937        2.13014279186755        1.64523797778786
H           55.44010285060729        3.85335610603247        2.34708550309883
H           58.33686337412713        4.87967042185830       -0.95727360263880
H           57.41617344433315        6.40192541858991       -1.06547744995382
H           56.57480128851493        4.88989996015046       -0.63258326071372
H           57.60064939388197        7.83549579273453        0.77731654141431
H           57.15467934342454        9.21857193946300        2.94341121454875
H           58.05646774912309        8.71740577729044        4.39981881607031
H           58.94525513872581        9.18670796499005        2.91955457252746
H           58.46734689911182        6.39171045829241        4.71449019769013
H           59.46514546412931        3.24196877725993        3.91392894160577
H           57.70143306313255        3.00842581570611        4.12393485320680
H           58.59243623293496        4.10667920908320        5.20689597753390
H           60.72282286455595        4.27003589735709        1.33719380022498
H           62.42758885851297        2.45356758896393        0.59964574734745
C           40.42052581270347       -0.01345735121866       -0.01150407229183
C           41.64975938642240       -0.01641814672336       -0.02010051844512
C           51.25543432183915       -0.01452834107671       -0.02860296718560
C           52.48465838607134       -0.01471582253279       -0.01530026272775
Fe          46.43932798487286       -0.01908562006754        0.00169037900498
C           43.00821543944143        0.02210200819369        0.01412330045071
C           43.67596977270190        0.19384453306820        1.19659569127317
C           43.01907981413283        0.42535174368438        2.47620584424676
C           43.97019133530740        0.50192009855877        3.40883604362397