120
 energy: -214.486965587015 gnorm: 0.000510442539 xtb: 6.5.1 (b24c23e)
Fe          15.58886265656020       -0.05709022303329       -0.10885779436043
C           12.20690691794049       -0.09297215671638       -0.28811578653923
C           12.86402684714473       -1.30593555359523       -0.28586907415167
C           12.18996321673298       -2.56776953970049       -0.34088620815128
C           13.13803579505108       -3.52047128293499       -0.17885765067630
C           14.39365381386922       -2.83920840767242       -0.04846725737302
N           14.21266957908474       -1.48470759179041       -0.12068583173807
C           15.60601844760575       -3.48038759403833        0.18639241094275
C           15.61471945223497       -4.95710208380645        0.32306546788778
C           15.25416431732402       -5.77250317416257       -0.74969674187501
C           15.26543526276498       -7.15311362988589       -0.62382757215040
C           15.63297940189843       -7.73378676249987        0.58782338504992
O           15.65337371249851       -9.08098780557060        0.75584374288416
C           15.99364508873756       -6.92962801153397        1.66755761562643
C           15.98764738645644       -5.55286883859762        1.53004232723518
C           16.81279234435683       -2.80067966879213        0.27283343995306
C           18.08160833465896       -3.45097078576184        0.41524613152215
C           19.02856190101819       -2.48758983318159        0.31428149526302
N           16.98724748780386       -1.44594408935401        0.11332593685584
C           18.33635784983423       -1.25262403183325        0.11863603365706
C           18.99365380340770       -0.02931562157182       -0.06507904932994
C           18.31580717135634        1.18941537879226       -0.19500174069267
C           18.98648038918937        2.44056945558540       -0.35852586776098
C           18.02794083335686        3.39823888887267       -0.34979217987435
C           16.77380149560164        2.72662142822004       -0.18227565461591
N           16.96671658698791        1.36786711760186       -0.11190267009315
C           15.55055048437375        3.37969980612022       -0.10623340300435
C           15.53728255466103        4.86089223803783       -0.11415107562443
C           16.18251006450599        5.58177806214692        0.89404612312928
C           16.16978170591611        6.96510055253165        0.89500036810314
C           15.51428714535528        7.65130448373082       -0.12594945981961
O           15.52351075798829        9.00843015034167       -0.09619634458870
C           14.87336806184766        6.94607233480653       -1.14214343437203
C           14.88423624308017        5.56014341629025       -1.13010780057588
C           14.33731432912038        2.70053367066297       -0.05431196589924
C           13.05859549484033        3.34689116715247        0.01674710391567
C           12.12215687238516        2.37256509088427       -0.06673718867629
C           12.82957713397586        1.13182938692105       -0.16163475803188
N           14.18284114441134        1.34170097565570       -0.11841722459645
H           11.12524837244638       -0.10441345238373       -0.36335038662682
H           11.12579114165738       -2.68794738189030       -0.46834532520556
H           13.00817341969507       -4.58976521731663       -0.13944153496029
H           14.98064950261500       -5.32196517375080       -1.69726721799353
H           14.99135551232592       -7.78301058852808       -1.46335662959318
H           15.38404360143755       -9.54109032771284       -0.05042093013578
H           16.27459114305100       -7.39473794049228        2.60433604601535
H           16.25883704805082       -4.92652670006211        2.37248332229512
H           18.22047527086266       -4.51122346600208        0.55000894594130
H           20.10082070271514       -2.58935898326430        0.36126600492095
H           20.05325982897151        2.55619571943765       -0.46284597460455
H           18.14887635708764        4.46335318286245       -0.46134761539224
H           16.68219390155638        5.04795840255679        1.69461339691833
H           16.66198020785522        7.52626932963350        1.67966116235372
H           15.03751683226432        9.38086577621389       -0.84424201150086
H           14.37039486083555        7.48415702388733       -1.93849977539289
H           14.39759345712929        5.01296169236910       -1.92982929013492
H           12.90803071202211        4.40911113526957        0.12091462634943
H           11.04769554901484        2.46529521511219       -0.05663970859901
Fe          28.99482974112320        0.04175029718820       -0.11505520943792
C           32.37733550814102        0.05075721891307       -0.29360918653465
C           31.72079068978846        1.25177916718363       -0.46550946851782
C           32.39554591760891        2.49291021383638       -0.69768697263324
C           31.44745545058844        3.45900130851595       -0.67527699284587
C           30.19116810150331        2.80323993454735       -0.45291928183321
N           30.37180372197941        1.45228942861526       -0.33105656390060
C           28.97834021479558        3.47143316530738       -0.31650639942977
C           28.97002840213267        4.95243737217653       -0.39432895992466
C           29.33372852876336        5.60425898270171       -1.57269009838346
C           29.32264441638041        6.98857383265385       -1.64766706901276
C           28.95212027871923        7.73820726987172       -0.53361475395822
O           28.93149565623769        9.09555769652841       -0.56217965803865
C           28.58863418922052        7.09850681897630        0.65013251004954
C           28.59449365336345        5.71632829885085        0.71301278856312
C           27.77110530064430        2.81138074196240       -0.13592502435974
C           26.50231228857703        3.47556028045263       -0.08992005925453
C           25.55525760238222        2.50783811928170       -0.05055573307546
N           27.59643006635525        1.44776915701836       -0.09859498361601
C           26.24732712595876        1.25742391365043       -0.06551269816758
C           25.58936785186106        0.02079509911679       -0.07145057395733
C           26.26675370762344       -1.20425245230398       -0.02569432635344
C           25.59604606471602       -2.46592375878962       -0.00944919141792
C           26.55453983530916       -3.41258611495582        0.13590004538780
C           27.80857743079011       -2.72389578387935        0.20695225556738
N           27.61576700353367       -1.36905787731180        0.08219780478078
C           29.03155344353317       -3.35905641230584        0.37821507656961
C           29.04481179457377       -4.82622786240988        0.58189613653188
C           28.39891370326825       -5.39604157244477        1.68209738277901
C           28.41172979947610       -6.76511554431123        1.88020876416901
C           29.06785607868273       -7.58971012815636        0.96784949212851
O           29.05861177050169       -8.92877639801221        1.19063195285954
C           29.70955870042782       -7.03645519282574       -0.13798975696234
C           29.69872385993958       -5.66295870868986       -0.32353735654798
C           30.24480513843420       -2.67933379711398        0.33551689601185
C           31.52298800439635       -3.30902545191715        0.50191559979669
C           32.46016270514987       -2.35725853378522        0.28053036327955
C           31.75365857558272       -1.14295922626620        0.00626590942188
N           30.40018096433096       -1.34402180933421        0.07629580489157
H           33.45909264685964        0.05089407747718       -0.36812562851800
H           33.46015203580647        2.59368743873192       -0.83775042068482
H           31.57762185396884        4.52307581164634       -0.78750876727465
H           29.60969689996898        5.02152410022818       -2.44443945675143
H           29.59912068234792        7.49056756110376       -2.56867661232871
H           29.20312594464800        9.43431425915527       -1.42575426736554
H           28.30565223382239        7.69408119885028        1.50920985477840
H           28.32115498851356        5.21826485515338        1.63646740745006
H           26.36361838034986        4.54418181867598       -0.10991723677242
H           24.48298428351183        2.61526477870257       -0.01893082768715
H           24.52931859012094       -2.59536053204612       -0.09662964928987
H           26.43363586130761       -4.48272910666471        0.17727029125715
H           27.89857448553082       -4.75358727111334        2.39796150422671
H           27.91909416661039       -7.20878998876337        2.73654345454727
H           29.54424258932868       -9.40397798160705        0.50302147821676
H           30.21311393438623       -7.68248935355203       -0.84915775182165
H           30.18613777808696       -5.23513036752080       -1.19254420308640
H           31.67251409415244       -4.34507036863448        0.75897419737948
H           33.53455256316538       -2.44778452879003        0.30632920988355
C           21.61828714686026       -0.01452747262464       -0.10371217990101
C           20.39430124200288       -0.02031971705314       -0.09068772642385
C           22.96458441066991       -0.00239270022526       -0.10404961918576
C           24.18867739399636        0.00863663212620       -0.09496846735064
