      -----------------------------------------------------------      
     |                   =====================                   |     
     |                           x T B                           |     
     |                   =====================                   |     
     |                         S. Grimme                         |     
     |          Mulliken Center for Theoretical Chemistry        |     
     |                    University of Bonn                     |     
      -----------------------------------------------------------      

   * xtb version 6.5.1 (b24c23e) compiled by 'conda@728c89f4b128' on 2022-07-12

   xtb is free software: you can redistribute it and/or modify it under
   the terms of the GNU Lesser General Public License as published by
   the Free Software Foundation, either version 3 of the License, or
   (at your option) any later version.
   
   xtb is distributed in the hope that it will be useful,
   but WITHOUT ANY WARRANTY; without even the implied warranty of
   MERCHANTABILITY or FITNESS FOR A PARTICULAR PURPOSE.  See the
   GNU Lesser General Public License for more details.
   
   Cite this work as:
   * C. Bannwarth, E. Caldeweyher, S. Ehlert, A. Hansen, P. Pracht,
     J. Seibert, S. Spicher, S. Grimme, WIREs Comput. Mol. Sci., 2020, 11,
     e01493. DOI: 10.1002/wcms.1493
   
   for GFN2-xTB:
   * C. Bannwarth, S. Ehlert and S. Grimme., J. Chem. Theory Comput., 2019,
     15, 1652-1671. DOI: 10.1021/acs.jctc.8b01176
   for GFN1-xTB:
   * S. Grimme, C. Bannwarth, P. Shushkov, J. Chem. Theory Comput., 2017,
     13, 1989-2009. DOI: 10.1021/acs.jctc.7b00118
   for GFN0-xTB:
   * P. Pracht, E. Caldeweyher, S. Ehlert, S. Grimme, ChemRxiv, 2019, preprint.
     DOI: 10.26434/chemrxiv.8326202.v1
   for GFN-FF:
   * S. Spicher and S. Grimme, Angew. Chem. Int. Ed., 2020, 59, 15665-15673.
     DOI: 10.1002/anie.202004239
   
   for ALPB and GBSA implicit solvation:
   * S. Ehlert, M. Stahn, S. Spicher, S. Grimme, J. Chem. Theory Comput.,
     2021, 17, 4250-4261. DOI: 10.1021/acs.jctc.1c00471
   
   for DFT-D4:
   * E. Caldeweyher, C. Bannwarth and S. Grimme, J. Chem. Phys., 2017,
     147, 034112. DOI: 10.1063/1.4993215
   * E. Caldeweyher, S. Ehlert, A. Hansen, H. Neugebauer, S. Spicher,
     C. Bannwarth and S. Grimme, J. Chem. Phys., 2019, 150, 154122.
     DOI: 10.1063/1.5090222
   * E. Caldeweyher, J.-M. Mewes, S. Ehlert and S. Grimme, Phys. Chem. Chem. Phys.
     2020, 22, 8499-8512. DOI: 10.1039/D0CP00502A
   
   for sTDA-xTB:
   * S. Grimme and C. Bannwarth, J. Chem. Phys., 2016, 145, 054103.
     DOI: 10.1063/1.4959605
   
   in the mass-spec context:
   * V. Asgeirsson, C. Bauer and S. Grimme, Chem. Sci., 2017, 8, 4879.
     DOI: 10.1039/c7sc00601b
   * J. Koopman and S. Grimme, ACS Omega 2019, 4, 12, 15120-15133.
     DOI: 10.1021/acsomega.9b02011
   
   for metadynamics refer to:
   * S. Grimme, J. Chem. Theory Comput., 2019, 155, 2847-2862
     DOI: 10.1021/acs.jctc.9b00143
   
   for SPH calculations refer to:
   * S. Spicher and S. Grimme, J. Chem. Theory Comput., 2021, 17, 1701-1714
     DOI: 10.1021/acs.jctc.0c01306
   
   with help from (in alphabetical order)
   P. Atkinson, C. Bannwarth, F. Bohle, G. Brandenburg, E. Caldeweyher
   M. Checinski, S. Dohm, S. Ehlert, S. Ehrlich, I. Gerasimov, C. Hölzer
   A. Katbashev, J. Koopman, C. Lavigne, S. Lehtola, F. März, M. Müller,
   F. Musil, H. Neugebauer, J. Pisarek, C. Plett, P. Pracht, F. Pultar,
   J. Seibert, P. Shushkov, S. Spicher, M. Stahn, M. Steiner, T. Strunk,
   J. Stückrath, T. Rose, and J. Unsleber
   
 * started run on 2022/07/28 at 05:59:40.263     

           -------------------------------------------------
          |                Calculation Setup                |
           -------------------------------------------------

          program call               : xtb DMA_C2_5.xyz --gfn 1 --opt -T 48
          hostname                   : cx3-6-25.cx3.hpc.ic.ac.uk
          coordinate file            : DMA_C2_5.xyz
          omp threads                :                     1

   ID    Z sym.   atoms
    1    6 C      1-5, 7-11, 13-19, 21-26, 28-32, 34-41, 74-78, 80-84, 86-92,
                  94-99, 101-105, 107-114, 147-159, 161-165, 167-173,
                  175-180, 182-186, 188-195, 227-231, 233-237, 239-245,
                  247-252, 254-258, 260-267, 299-303, 305-309, 311-317,
                  319-324, 326-330, 332-339
    2    7 N      6, 12, 20, 27, 33, 42, 79, 85, 93, 100, 106, 115, 160, 166,
                  174, 181, 187, 196, 232, 238, 246, 253, 259, 268, 304, 310,
                  318, 325, 331, 340
    3    1 H      43-73, 116-146, 197-226, 269-298, 341-370
########################################################################
[WARNING] Please study the warnings concerning your input carefully
-1- prog_main_parseArguments: Unknown option '-T' provided
########################################################################

           -------------------------------------------------
          |                 G F N 1 - x T B                 |
           -------------------------------------------------

        Reference                      10.1021/acs.jctc.7b00118
      * Hamiltonian:
        H0-scaling (s, p, d)           1.850000    2.250000    2.000000
        zeta-weighting                 0.000000
      * Dispersion:
        s8                             2.400000
        a1                             0.630000
        a2                             5.000000
        s9                             0.000000
      * Repulsion:
        kExp                           1.500000
        rExp                           1.000000
      * Coulomb:
        alpha                          2.000000
        third order                    atomic
        anisotropic                    false
      * Halogen bond correction:
        rad-scale                      1.300000
        damping                        0.440000


          ...................................................
          :                      SETUP                      :
          :.................................................:
          :  # basis functions                1176          :
          :  # atomic orbitals                1176          :
          :  # shells                          740          :
          :  # electrons                      1054          :
          :  # halogen bonds                     0          :
          :  max. iterations                   250          :
          :  Hamiltonian                  GFN1-xTB          :
          :  restarted?                      false          :
          :  GBSA solvation                  false          :
          :  PC potential                    false          :
          :  electronic temp.          300.0000000     K    :
          :  accuracy                    1.0000000          :
          :  -> integral cutoff          0.2500000E+02      :
          :  -> integral neglect         0.1000000E-07      :
          :  -> SCF convergence          0.1000000E-05 Eh   :
          :  -> wf. convergence          0.2000000E-04 e    :
          :  Broyden damping             0.4000000          :
          ...................................................

 iter      E             dE          RMSdq      gap      omega  full diag
   1   -582.5818173 -0.582582E+03  0.986E+00    0.00       0.0  T
   2   -583.1296034 -0.547786E+00  0.592E+00    0.04       1.0  T
   3   -570.7565465  0.123731E+02  0.234E+00    0.24       1.0  T
   4   -549.0398023  0.217167E+02  0.283E+00    0.08       1.0  T
   5   -551.4489985 -0.240920E+01  0.265E+00    0.01       1.0  T
   6   -581.7279850 -0.302790E+02  0.989E-01    0.15       1.0  T
   7   -583.0442071 -0.131622E+01  0.536E-01    0.41       1.0  T
   8   -583.0968481 -0.526409E-01  0.410E-01    0.16       1.0  T
   9   -583.2019634 -0.105115E+00  0.346E-01    0.09       1.0  T
  10   -583.1626681  0.392953E-01  0.288E-01    0.23       1.0  T
  11   -583.2258277 -0.631596E-01  0.177E-01    0.12       1.0  T
  12   -583.2548839 -0.290562E-01  0.140E-01    0.10       1.0  T
  13   -583.3022381 -0.473542E-01  0.146E-01    0.03       1.0  T
  14   -583.3024915 -0.253437E-03  0.132E-01    0.03       1.0  T
  15   -583.3170052 -0.145137E-01  0.411E-02    0.01       1.0  T
  16   -583.3096706  0.733462E-02  0.895E-02    0.03       1.0  T
  17   -583.3180214 -0.835078E-02  0.389E-02    0.01       1.0  T
  18   -583.3184746 -0.453202E-03  0.275E-02    0.01       1.0  T
  19   -583.3187816 -0.307027E-03  0.192E-02    0.01       1.0  T
  20   -583.3194748 -0.693212E-03  0.467E-03    0.01       1.1  T
  21   -583.3195013 -0.264384E-04  0.136E-03    0.01       3.8  T
  22   -583.3194951  0.616275E-05  0.296E-03    0.01       1.8  T
  23   -583.3194990 -0.392405E-05  0.199E-03    0.01       2.6  T
  24   -583.3195058 -0.673103E-05  0.237E-04    0.01      22.0  T
  25   -583.3195058 -0.495680E-07  0.143E-04    0.01      36.4  T
  26   -583.3195058 -0.168019E-07  0.363E-05    0.01     143.3  T

   *** convergence criteria satisfied after 26 iterations ***

         #    Occupation            Energy/Eh            Energy/eV
      -------------------------------------------------------------
         1        2.0000           -0.7896598             -21.4877
       ...           ...                  ...                  ...
       521        2.0000           -0.3815023             -10.3812
       522        2.0000           -0.3805924             -10.3564
       523        2.0000           -0.3804570             -10.3528
       524        2.0000           -0.3788435             -10.3089
       525        2.0000           -0.3705791             -10.0840
       526        2.0000           -0.3701547             -10.0724
       527        1.0577           -0.3514541              -9.5636 (HOMO)
       528        0.9423           -0.3512347              -9.5576 (LUMO)
       529                         -0.3351038              -9.1186
       530                         -0.3347899              -9.1101
       531                         -0.3281663              -8.9299
       532                         -0.3255215              -8.8579
       ...                                ...                  ...
      1176                          3.9675376             107.9622
      -------------------------------------------------------------
                  HL-Gap            0.0002194 Eh            0.0060 eV
             Fermi-level           -0.3513444 Eh           -9.5606 eV

 SCC (total)                   0 d,  0 h,  0 min, 14.230 sec
 SCC setup                      ...        0 min,  0.034 sec (  0.237%)
 Dispersion                     ...        0 min,  0.020 sec (  0.138%)
 classical contributions        ...        0 min,  0.006 sec (  0.045%)
 integral evaluation            ...        0 min,  0.459 sec (  3.224%)
 iterations                     ...        0 min, 12.543 sec ( 88.146%)
 molecular gradient             ...        0 min,  1.073 sec (  7.540%)
 printout                       ...        0 min,  0.095 sec (  0.670%)

         :::::::::::::::::::::::::::::::::::::::::::::::::::::
         ::                     SUMMARY                     ::
         :::::::::::::::::::::::::::::::::::::::::::::::::::::
         :: total energy            -572.531102856153 Eh    ::
         :: gradient norm              3.775081081742 Eh/a0 ::
         :: HOMO-LUMO gap              0.005971401635 eV    ::
         ::.................................................::
         :: SCC energy              -583.319505830715 Eh    ::
         :: -> electrostatic           0.416226989005 Eh    ::
         :: repulsion energy          11.093502021575 Eh    ::
         :: dispersion energy         -0.305099047013 Eh    ::
         :: halogen bond corr.         0.000000000000 Eh    ::
         :: add. restraining           0.000000000000 Eh    ::
         :: total charge               0.000000000000 e     ::
         :::::::::::::::::::::::::::::::::::::::::::::::::::::

      ----------------------------------------------------------- 
     |                   =====================                   |
     |                        A N C O P T                        |
     |                   =====================                   |
     |               Approximate Normal Coordinate               |
     |                Rational Function Optimizer                |
      ----------------------------------------------------------- 

          ...................................................
          :                      SETUP                      :
          :.................................................:
          :   optimization level            normal          :
          :   max. optcycles                  1110          :
          :   ANC micro-cycles                  20          :
          :   degrees of freedom              1104          :
          :.................................................:
          :   RF solver                   davidson          :
          :   write xtbopt.log                true          :
          :   linear?                        false          :
          :   energy convergence         0.5000000E-05 Eh   :
          :   grad. convergence          0.1000000E-02 Eh/α :
          :   maximium RF displ.         1.0000000          :
          :   Hlow (freq-cutoff)         0.1000000E-01      :
          :   Hmax (freq-cutoff)         5.0000000          :
          :   S6 in model hess.         20.0000000          :
          ...................................................

generating ANC from model Hessian ...
Using Lindh-Hessian (1995)
 Shifting diagonal of input Hessian by    1.0002637226192103E-002
 Lowest  eigenvalues of input Hessian
    0.010000    0.010000    0.010001    0.010002    0.000000    0.000000
    0.000000    0.000000    0.000000    0.000000    0.010004    0.010006
    0.010007    0.010008    0.010012    0.010017    0.010028    0.010045
 Highest eigenvalues
    3.444500    3.444503    3.920721    3.971405    4.336991    4.336991


........................................................................
.............................. CYCLE    1 ..............................
........................................................................
   1   -583.3195058 -0.583320E+03  0.856E-05    0.01       0.0  T
   2   -583.3195007  0.508634E-05  0.151E-03    0.01       3.4  T
   3   -583.3195056 -0.485921E-05  0.321E-04    0.01      16.2  T
   4   -583.3195058 -0.165551E-06  0.179E-04    0.01      29.1  T
   5   -583.3195058 -0.690102E-07  0.422E-05    0.01     123.2  T
     SCC iter.                  ...        0 min,  2.424 sec
     gradient                   ...        0 min,  1.070 sec
 * total energy  :  -572.5311029 Eh     change        0.1992021E-08 Eh
   gradient norm :     3.7750804 Eh/α   predicted     0.0000000E+00 (-100.00%)
   displ. norm   :     0.6622801 α      lambda       -0.2407184E+01
   maximum displ.:     0.3586856 α      in ANC's #1104, #1102, #1101, ...

........................................................................
.............................. CYCLE    2 ..............................
........................................................................
   1   -583.4305197 -0.583431E+03  0.139E-01    0.07       0.0  T
   2   -583.4104014  0.201183E-01  0.133E-01    0.08       1.0  T
   3   -583.3180232  0.923782E-01  0.238E-01    0.36       1.0  T
   4   -583.4334527 -0.115429E+00  0.659E-02    0.07       1.0  T
   5   -583.4197132  0.137395E-01  0.942E-02    0.09       1.0  T
   6   -583.4325836 -0.128704E-01  0.597E-02    0.07       1.0  T
   7   -583.4383782 -0.579459E-02  0.303E-02    0.06       1.0  T
   8   -583.4404684 -0.209017E-02  0.103E-02    0.06       1.0  T
   9   -583.4406431 -0.174724E-03  0.374E-03    0.06       1.4  T
  10   -583.4406400  0.309025E-05  0.277E-03    0.06       1.9  T
  11   -583.4406441 -0.408015E-05  0.249E-03    0.06       2.1  T
  12   -583.4406599 -0.157654E-04  0.484E-04    0.06      10.7  T
  13   -583.4406604 -0.495922E-06  0.101E-04    0.06      51.6  T
  14   -583.4406602  0.116976E-06  0.233E-04    0.06      22.3  T
  15   -583.4406603 -0.115197E-06  0.700E-05    0.06      74.2  T
     SCC iter.                  ...        0 min,  7.238 sec
     gradient                   ...        0 min,  1.080 sec
 * total energy  :  -573.8693703 Eh     change       -0.1338267E+01 Eh
   gradient norm :     1.0039311 Eh/α   predicted    -0.1731506E+01 (  29.38%)
   displ. norm   :     0.6303767 α      lambda       -0.5702541E+00
   maximum displ.:     0.2474021 α      in ANC's #890, #679, #779, ...

........................................................................
.............................. CYCLE    3 ..............................
........................................................................
   1   -583.3386203 -0.583339E+03  0.740E-02    0.09       0.0  T
   2   -583.3408253 -0.220501E-02  0.578E-02    0.08       1.0  T
   3   -583.3276788  0.131465E-01  0.786E-02    0.10       1.0  T
   4   -583.3127990  0.148798E-01  0.108E-01    0.12       1.0  T
   5   -583.3412583 -0.284592E-01  0.285E-02    0.08       1.0  T
   6   -583.3419463 -0.688082E-03  0.154E-02    0.08       1.0  T
   7   -583.3421966 -0.250247E-03  0.426E-03    0.08       1.2  T
   8   -583.3422193 -0.227068E-04  0.152E-03    0.08       3.4  T
   9   -583.3422230 -0.369997E-05  0.567E-04    0.08       9.2  T
  10   -583.3422234 -0.422113E-06  0.209E-04    0.08      24.9  T
  11   -583.3422234 -0.267324E-07  0.121E-04    0.08      43.0  T
  12   -583.3422235 -0.229072E-07  0.376E-05    0.08     138.3  T
     SCC iter.                  ...        0 min,  5.830 sec
     gradient                   ...        0 min,  1.076 sec
 * total energy  :  -574.2727313 Eh     change       -0.4033609E+00 Eh
   gradient norm :     0.6515690 Eh/α   predicted    -0.3984312E+00 (  -1.22%)
   displ. norm   :     0.5816047 α      lambda       -0.2830894E+00
   maximum displ.:     0.1644611 α      in ANC's #679, #890, #731, ...

........................................................................
.............................. CYCLE    4 ..............................
........................................................................
   1   -583.3375016 -0.583338E+03  0.814E-02    0.17       0.0  T
   2   -583.3403286 -0.282694E-02  0.620E-02    0.15       1.0  T
   3   -583.3418160 -0.148740E-02  0.225E-02    0.16       1.0  T
   4   -583.3371727  0.464323E-02  0.467E-02    0.16       1.0  T
   5   -583.3370915  0.812000E-04  0.449E-02    0.16       1.0  T
   6   -583.3418647 -0.477322E-02  0.104E-02    0.16       1.0  T
   7   -583.3419942 -0.129410E-03  0.339E-03    0.16       1.5  T
   8   -583.3420142 -0.200323E-04  0.113E-03    0.16       4.6  T
   9   -583.3420156 -0.145772E-05  0.667E-04    0.16       7.8  T
  10   -583.3420165 -0.858451E-06  0.170E-04    0.16      30.6  T
  11   -583.3420165 -0.236834E-07  0.836E-05    0.16      62.2  T
     SCC iter.                  ...        0 min,  5.336 sec
     gradient                   ...        0 min,  1.066 sec
 * total energy  :  -574.4764324 Eh     change       -0.2037011E+00 Eh
   gradient norm :     0.3087148 Eh/α   predicted    -0.1894242E+00 (  -7.01%)
   displ. norm   :     0.6234666 α      lambda       -0.1186636E+00
   maximum displ.:     0.1770578 α      in ANC's #277, #679, #373, ...

........................................................................
.............................. CYCLE    5 ..............................
........................................................................
   1   -583.3942087 -0.583394E+03  0.561E-02    0.26       0.0  T
   2   -583.3953841 -0.117543E-02  0.494E-02    0.25       1.0  T
   3   -583.3966650 -0.128086E-02  0.168E-02    0.25       1.0  T
   4   -583.3959311  0.733870E-03  0.229E-02    0.25       1.0  T
   5   -583.3967813 -0.850245E-03  0.875E-03    0.25       1.0  T
   6   -583.3968188 -0.374269E-04  0.321E-03    0.25       1.6  T
   7   -583.3968091  0.962339E-05  0.357E-03    0.25       1.5  T
   8   -583.3968383 -0.291813E-04  0.607E-04    0.25       8.6  T
   9   -583.3968387 -0.407962E-06  0.312E-04    0.25      16.7  T
  10   -583.3968388 -0.110165E-06  0.886E-05    0.25      58.7  T
  11   -583.3968389 -0.311093E-08  0.470E-05    0.25     110.5  T
     SCC iter.                  ...        0 min,  5.332 sec
     gradient                   ...        0 min,  1.062 sec
 * total energy  :  -574.5644072 Eh     change       -0.8797480E-01 Eh
   gradient norm :     0.1733928 Eh/α   predicted    -0.8239470E-01 (  -6.34%)
   displ. norm   :     0.6748925 α      lambda       -0.6168447E-01
   maximum displ.:     0.2119406 α      in ANC's #277, #373, #279, ...

........................................................................
.............................. CYCLE    6 ..............................
........................................................................
   1   -583.4696337 -0.583470E+03  0.346E-02    0.34       0.0  T
   2   -583.4699439 -0.310130E-03  0.310E-02    0.33       1.0  T
   3   -583.4705737 -0.629853E-03  0.107E-02    0.33       1.0  T
   4   -583.4703590  0.214757E-03  0.139E-02    0.33       1.0  T
   5   -583.4706608 -0.301877E-03  0.505E-03    0.33       1.0  T
   6   -583.4706710 -0.101571E-04  0.100E-03    0.33       5.2  T
   7   -583.4706719 -0.909859E-06  0.477E-04    0.33      10.9  T
   8   -583.4706721 -0.179776E-06  0.300E-04    0.33      17.3  T
   9   -583.4706722 -0.103739E-06  0.161E-04    0.33      32.3  T
  10   -583.4706722 -0.381366E-07  0.529E-05    0.33      98.3  T
     SCC iter.                  ...        0 min,  4.842 sec
     gradient                   ...        0 min,  1.069 sec
 * total energy  :  -574.6130098 Eh     change       -0.4860258E-01 Eh
   gradient norm :     0.1151331 Eh/α   predicted    -0.4489038E-01 (  -7.64%)
   displ. norm   :     0.7149246 α      lambda       -0.3928613E-01
   maximum displ.:     0.2032666 α      in ANC's #277, #102, #105, ...

........................................................................
.............................. CYCLE    7 ..............................
........................................................................
   1   -583.5411168 -0.583541E+03  0.243E-02    0.41       0.0  T
   2   -583.5412196 -0.102848E-03  0.183E-02    0.41       1.0  T
   3   -583.5414137 -0.194106E-03  0.717E-03    0.41       1.0  T
   4   -583.5413883  0.253881E-04  0.793E-03    0.41       1.0  T
   5   -583.5414757 -0.873742E-04  0.284E-03    0.41       1.8  T
   6   -583.5414785 -0.283632E-05  0.587E-04    0.41       8.9  T
   7   -583.5414789 -0.356934E-06  0.230E-04    0.41      22.6  T
   8   -583.5414789 -0.416238E-07  0.103E-04    0.41      50.2  T
   9   -583.5414790 -0.603075E-08  0.409E-05    0.41     127.1  T
     SCC iter.                  ...        0 min,  4.353 sec
     gradient                   ...        0 min,  1.061 sec
 * total energy  :  -574.6447532 Eh     change       -0.3174336E-01 Eh
   gradient norm :     0.0716898 Eh/α   predicted    -0.2968310E-01 (  -6.49%)
   displ. norm   :     0.7462327 α      lambda       -0.2643783E-01
   maximum displ.:     0.2058684 α      in ANC's #102, #105, #277, ...

........................................................................
.............................. CYCLE    8 ..............................
........................................................................
   1   -583.6026402 -0.583603E+03  0.170E-02    0.48       0.0  T
   2   -583.6026795 -0.392705E-04  0.100E-02    0.47       1.0  T
   3   -583.6027035 -0.240625E-04  0.573E-03    0.47       1.0  T
   4   -583.6027187 -0.151981E-04  0.479E-03    0.47       1.1  T
   5   -583.6027442 -0.254763E-04  0.163E-03    0.47       3.2  T
   6   -583.6027459 -0.171772E-05  0.418E-04    0.47      12.4  T
   7   -583.6027461 -0.199711E-06  0.141E-04    0.47      36.8  T
   8   -583.6027462 -0.156713E-07  0.579E-05    0.47      89.8  T
     SCC iter.                  ...        0 min,  3.869 sec
     gradient                   ...        0 min,  1.065 sec
 * total energy  :  -574.6666193 Eh     change       -0.2186611E-01 Eh
   gradient norm :     0.0443884 Eh/α   predicted    -0.2058004E-01 (  -5.88%)
   displ. norm   :     0.7739210 α      lambda       -0.1906012E-01
   maximum displ.:     0.2409538 α      in ANC's #105, #102, #110, ...

........................................................................
.............................. CYCLE    9 ..............................
........................................................................
   1   -583.6531401 -0.583653E+03  0.124E-02    0.53       0.0  T
   2   -583.6531598 -0.196568E-04  0.665E-03    0.53       1.0  T
   3   -583.6531659 -0.615389E-05  0.414E-03    0.53       1.3  T
   4   -583.6531703 -0.438712E-05  0.335E-03    0.53       1.6  T
   5   -583.6531818 -0.115136E-04  0.100E-03    0.53       5.2  T
   6   -583.6531829 -0.110561E-05  0.273E-04    0.53      19.1  T
   7   -583.6531830 -0.710139E-07  0.101E-04    0.53      51.5  T
   8   -583.6531830 -0.797229E-08  0.420E-05    0.53     123.8  T
     SCC iter.                  ...        0 min,  3.867 sec
     gradient                   ...        0 min,  1.062 sec
 * total energy  :  -574.6828143 Eh     change       -0.1619503E-01 Eh
   gradient norm :     0.0367376 Eh/α   predicted    -0.1523813E-01 (  -5.91%)
   displ. norm   :     0.7959019 α      lambda       -0.1488071E-01
   maximum displ.:     0.2685768 α      in ANC's #105, #102, #110, ...

........................................................................
.............................. CYCLE   10 ..............................
........................................................................
   1   -583.6931636 -0.583693E+03  0.976E-03    0.57       0.0  T
   2   -583.6931788 -0.151927E-04  0.556E-03    0.57       1.0  T
   3   -583.6931888 -0.100295E-04  0.307E-03    0.57       1.7  T
   4   -583.6931905 -0.163491E-05  0.244E-03    0.57       2.1  T
   5   -583.6931953 -0.480586E-05  0.906E-04    0.57       5.7  T
   6   -583.6931963 -0.107230E-05  0.233E-04    0.57      22.3  T
   7   -583.6931964 -0.493936E-07  0.675E-05    0.57      77.1  T
   8   -583.6931964 -0.121929E-08  0.401E-05    0.57     129.7  T
     SCC iter.                  ...        0 min,  3.876 sec
     gradient                   ...        0 min,  1.073 sec
 * total energy  :  -574.6957252 Eh     change       -0.1291095E-01 Eh
   gradient norm :     0.0382597 Eh/α   predicted    -0.1215353E-01 (  -5.87%)
   displ. norm   :     0.8076528 α      lambda       -0.1223077E-01
   maximum displ.:     0.2799900 α      in ANC's #105, #102, #77, ...

........................................................................
.............................. CYCLE   11 ..............................
........................................................................
   1   -583.7246807 -0.583725E+03  0.809E-03    0.60       0.0  T
   2   -583.7246918 -0.111102E-04  0.493E-03    0.59       1.1  T
   3   -583.7247010 -0.920010E-05  0.251E-03    0.59       2.1  T
   4   -583.7247021 -0.113017E-05  0.209E-03    0.59       2.5  T
   5   -583.7247057 -0.358509E-05  0.767E-04    0.59       6.8  T
   6   -583.7247064 -0.675060E-06  0.194E-04    0.59      26.9  T
   7   -583.7247064 -0.320067E-07  0.604E-05    0.59      86.1  T
     SCC iter.                  ...        0 min,  3.395 sec
     gradient                   ...        0 min,  1.070 sec
 * total energy  :  -574.7064314 Eh     change       -0.1070620E-01 Eh
   gradient norm :     0.0374937 Eh/α   predicted    -0.1010448E-01 (  -5.62%)
   displ. norm   :     0.8070225 α      lambda       -0.1017503E-01
   maximum displ.:     0.2749154 α      in ANC's #105, #77, #86, ...

........................................................................
.............................. CYCLE   12 ..............................
........................................................................
   1   -583.7507720 -0.583751E+03  0.697E-03    0.61       0.0  T
   2   -583.7507778 -0.576172E-05  0.462E-03    0.61       1.1  T
   3   -583.7507845 -0.672786E-05  0.246E-03    0.61       2.1  T
   4   -583.7507855 -0.939348E-06  0.204E-03    0.61       2.6  T
   5   -583.7507895 -0.404483E-05  0.631E-04    0.61       8.2  T
   6   -583.7507899 -0.410418E-06  0.160E-04    0.61      32.4  T
   7   -583.7507900 -0.203595E-07  0.631E-05    0.61      82.4  T
     SCC iter.                  ...        0 min,  3.384 sec
     gradient                   ...        0 min,  1.070 sec
 * total energy  :  -574.7153016 Eh     change       -0.8870133E-02 Eh
   gradient norm :     0.0313723 Eh/α   predicted    -0.8400951E-02 (  -5.29%)
   displ. norm   :     0.7968201 α      lambda       -0.8238886E-02
   maximum displ.:     0.2526864 α      in ANC's #105, #77, #60, ...

........................................................................
.............................. CYCLE   13 ..............................
........................................................................
   1   -583.7736740 -0.583774E+03  0.626E-03    0.62       0.0  T
   2   -583.7736754 -0.142319E-05  0.459E-03    0.62       1.1  T
   3   -583.7736823 -0.687736E-05  0.255E-03    0.62       2.0  T
   4   -583.7736838 -0.157136E-05  0.193E-03    0.62       2.7  T
   5   -583.7736878 -0.400115E-05  0.421E-04    0.62      12.4  T
   6   -583.7736880 -0.173937E-06  0.152E-04    0.62      34.2  T
   7   -583.7736880 -0.258791E-07  0.474E-05    0.62     109.6  T
     SCC iter.                  ...        0 min,  3.399 sec
     gradient                   ...        0 min,  1.067 sec
 * total energy  :  -574.7223744 Eh     change       -0.7072848E-02 Eh
   gradient norm :     0.0220892 Eh/α   predicted    -0.6734976E-02 (  -4.78%)
   displ. norm   :     0.7800222 α      lambda       -0.6279469E-02
   maximum displ.:     0.2407080 α      in ANC's #60, #77, #86, ...

........................................................................
.............................. CYCLE   14 ..............................
........................................................................
   1   -583.7934278 -0.583793E+03  0.557E-03    0.62       0.0  T
   2   -583.7934269  0.848827E-06  0.444E-03    0.62       1.2  T
   3   -583.7934379 -0.109398E-04  0.229E-03    0.62       2.3  T
   4   -583.7934394 -0.155878E-05  0.166E-03    0.62       3.1  T
   5   -583.7934420 -0.261994E-05  0.360E-04    0.62      14.5  T
   6   -583.7934422 -0.122592E-06  0.154E-04    0.62      33.7  T
   7   -583.7934422 -0.291752E-07  0.414E-05    0.62     125.6  T
     SCC iter.                  ...        0 min,  3.401 sec
     gradient                   ...        0 min,  1.077 sec
 * total energy  :  -574.7276608 Eh     change       -0.5286417E-02 Eh
   gradient norm :     0.0155146 Eh/α   predicted    -0.5050064E-02 (  -4.47%)
   displ. norm   :     0.7575978 α      lambda       -0.4520462E-02
   maximum displ.:     0.2536502 α      in ANC's #60, #77, #28, ...

........................................................................
.............................. CYCLE   15 ..............................
........................................................................
   1   -583.8087348 -0.583809E+03  0.461E-03    0.62       0.0  T
   2   -583.8087329  0.185229E-05  0.395E-03    0.62       1.3  T
   3   -583.8087461 -0.131598E-04  0.174E-03    0.62       3.0  T
   4   -583.8087471 -0.958466E-06  0.133E-03    0.62       3.9  T
   5   -583.8087485 -0.140589E-05  0.362E-04    0.62      14.4  T
   6   -583.8087486 -0.111049E-06  0.129E-04    0.62      40.2  T
   7   -583.8087486 -0.172399E-07  0.418E-05    0.62     124.5  T
     SCC iter.                  ...        0 min,  3.416 sec
     gradient                   ...        0 min,  1.069 sec
 * total energy  :  -574.7314254 Eh     change       -0.3764578E-02 Eh
   gradient norm :     0.0150059 Eh/α   predicted    -0.3557503E-02 (  -5.50%)
   displ. norm   :     0.7376534 α      lambda       -0.3292502E-02
   maximum displ.:     0.2607715 α      in ANC's #60, #28, #77, ...

........................................................................
.............................. CYCLE   16 ..............................
........................................................................
   1   -583.8190901 -0.583819E+03  0.381E-03    0.62       0.0  T
   2   -583.8190896  0.458255E-06  0.321E-03    0.62       1.6  T
   3   -583.8190995 -0.989540E-05  0.135E-03    0.62       3.8  T
   4   -583.8191004 -0.874040E-06  0.102E-03    0.62       5.1  T
   5   -583.8191011 -0.734642E-06  0.343E-04    0.62      15.2  T
   6   -583.8191012 -0.880347E-07  0.116E-04    0.62      44.8  T
   7   -583.8191012 -0.134040E-07  0.411E-05    0.62     126.5  T
     SCC iter.                  ...        0 min,  3.396 sec
     gradient                   ...        0 min,  1.072 sec
 * total energy  :  -574.7341955 Eh     change       -0.2770078E-02 Eh
   gradient norm :     0.0157873 Eh/α   predicted    -0.2542033E-02 (  -8.23%)
   displ. norm   :     0.7350469 α      lambda       -0.2664454E-02
   maximum displ.:     0.2883110 α      in ANC's #28, #60, #65, ...

........................................................................
.............................. CYCLE   17 ..............................
........................................................................
   1   -583.8254684 -0.583825E+03  0.352E-03    0.62       0.0  T
   2   -583.8254705 -0.207038E-05  0.259E-03    0.62       2.0  T
   3   -583.8254753 -0.486269E-05  0.134E-03    0.62       3.9  T
   4   -583.8254763 -0.101288E-05  0.908E-04    0.62       5.7  T
   5   -583.8254769 -0.567645E-06  0.314E-04    0.62      16.5  T
   6   -583.8254770 -0.640267E-07  0.112E-04    0.62      46.5  T
   7   -583.8254770 -0.124352E-07  0.389E-05    0.62     133.6  T
     SCC iter.                  ...        0 min,  3.415 sec
     gradient                   ...        0 min,  1.091 sec
 * total energy  :  -574.7364995 Eh     change       -0.2303986E-02 Eh
   gradient norm :     0.0142658 Eh/α   predicted    -0.2052026E-02 ( -10.94%)
   displ. norm   :     0.7548067 α      lambda       -0.2444484E-02
   maximum displ.:     0.3246441 α      in ANC's #28, #60, #65, ...

........................................................................
.............................. CYCLE   18 ..............................
........................................................................
   1   -583.8284356 -0.583828E+03  0.370E-03    0.62       0.0  T
   2   -583.8284407 -0.509633E-05  0.224E-03    0.62       2.3  T
   3   -583.8284422 -0.149883E-05  0.133E-03    0.62       3.9  T
   4   -583.8284421  0.797384E-07  0.980E-04    0.62       5.3  T
   5   -583.8284430 -0.944783E-06  0.336E-04    0.62      15.5  T
   6   -583.8284431 -0.836045E-07  0.123E-04    0.62      42.4  T
   7   -583.8284431 -0.188854E-07  0.399E-05    0.62     130.4  T
     SCC iter.                  ...        0 min,  3.442 sec
     gradient                   ...        0 min,  1.072 sec
 * total energy  :  -574.7386611 Eh     change       -0.2161599E-02 Eh
   gradient norm :     0.0116874 Eh/α   predicted    -0.1918608E-02 ( -11.24%)
   displ. norm   :     0.7783875 α      lambda       -0.2336425E-02
   maximum displ.:     0.3559779 α      in ANC's #28, #60, #49, ...

........................................................................
.............................. CYCLE   19 ..............................
........................................................................
   1   -583.8285584 -0.583829E+03  0.395E-03    0.62       0.0  T
   2   -583.8285648 -0.635566E-05  0.234E-03    0.62       2.2  T
   3   -583.8285657 -0.960605E-06  0.120E-03    0.62       4.3  T
   4   -583.8285655  0.289792E-06  0.770E-04    0.62       6.8  T
   5   -583.8285657 -0.265978E-06  0.307E-04    0.62      16.9  T
   6   -583.8285658 -0.128148E-06  0.101E-04    0.62      51.7  T
   7   -583.8285659 -0.135616E-07  0.413E-05    0.62     126.0  T
     SCC iter.                  ...        0 min,  3.422 sec
     gradient                   ...        0 min,  1.082 sec
 * total energy  :  -574.7407391 Eh     change       -0.2077981E-02 Eh
   gradient norm :     0.0115552 Eh/α   predicted    -0.1876020E-02 (  -9.72%)
   displ. norm   :     0.7962404 α      lambda       -0.2169636E-02
   maximum displ.:     0.3796176 α      in ANC's #28, #60, #49, ...

........................................................................
.............................. CYCLE   20 ..............................
........................................................................
   1   -583.8252794 -0.583825E+03  0.364E-03    0.62       0.0  T
   2   -583.8252839 -0.454771E-05  0.235E-03    0.62       2.2  T
   3   -583.8252851 -0.123696E-05  0.124E-03    0.62       4.2  T
   4   -583.8252844  0.782833E-06  0.118E-03    0.62       4.4  T
   5   -583.8252858 -0.144868E-05  0.326E-04    0.62      15.9  T
   6   -583.8252859 -0.123884E-06  0.100E-04    0.62      51.8  T
   7   -583.8252859 -0.919681E-08  0.315E-05    0.62     164.9  T
     SCC iter.                  ...        0 min,  3.428 sec
     gradient                   ...        0 min,  1.064 sec
 * total energy  :  -574.7426784 Eh     change       -0.1939290E-02 Eh
   gradient norm :     0.0138028 Eh/α   predicted    -0.1772596E-02 (  -8.60%)
   displ. norm   :     0.8078906 α      lambda       -0.2012285E-02
   maximum displ.:     0.3971144 α      in ANC's #28, #60, #41, ...
 * RMSD in coord.:     0.5441030 α      energy gain  -0.2211575E+01 Eh

generating ANC from model Hessian ...
Using Lindh-Hessian (1995)
 Shifting diagonal of input Hessian by    1.0092277849583857E-002
 Lowest  eigenvalues of input Hessian
    0.010000    0.010065    0.010077    0.010091    0.010092    0.010092
    0.000000    0.000000    0.000000    0.000000    0.000000    0.000000
    0.010092    0.010093    0.010097    0.010099    0.010109    0.010147
 Highest eigenvalues
    2.210000    2.210345    2.623575    2.630577    2.680501    2.681569


........................................................................
.............................. CYCLE   21 ..............................
........................................................................
   1   -583.8217706 -0.583822E+03  0.316E-03    0.62       0.0  T
   2   -583.8217734 -0.277912E-05  0.206E-03    0.62       2.5  T
   3   -583.8217749 -0.153523E-05  0.113E-03    0.62       4.6  T
   4   -583.8217750 -0.966978E-07  0.904E-04    0.62       5.8  T
   5   -583.8217758 -0.746223E-06  0.309E-04    0.62      16.8  T
   6   -583.8217758 -0.907759E-07  0.721E-05    0.62      72.1  T
   7   -583.8217758 -0.421653E-08  0.261E-05    0.62     199.0  T
     SCC iter.                  ...        0 min,  3.426 sec
     gradient                   ...        0 min,  1.076 sec
 * total energy  :  -574.7444967 Eh     change       -0.1818386E-02 Eh
   gradient norm :     0.0155854 Eh/α   predicted     0.0000000E+00 (-100.00%)
   displ. norm   :     0.2068895 α      lambda       -0.7830163E-03
   maximum displ.:     0.0749263 α      in ANC's #31, #55, #56, ...

........................................................................
.............................. CYCLE   22 ..............................
........................................................................
   1   -583.8242276 -0.583824E+03  0.201E-03    0.62       0.0  T
   2   -583.8242285 -0.869791E-06  0.155E-03    0.62       3.4  T
   3   -583.8242291 -0.651887E-06  0.645E-04    0.62       8.1  T
   4   -583.8242287  0.424794E-06  0.735E-04    0.62       7.1  T
   5   -583.8242292 -0.495809E-06  0.165E-04    0.62      31.5  T
   6   -583.8242292 -0.327827E-07  0.599E-05    0.62      86.8  T
     SCC iter.                  ...        0 min,  2.927 sec
     gradient                   ...        0 min,  1.073 sec
 * total energy  :  -574.7451880 Eh     change       -0.6912358E-03 Eh
   gradient norm :     0.0083813 Eh/α   predicted    -0.4083231E-03 ( -40.93%)
   displ. norm   :     0.6472190 α      lambda       -0.1816918E-02
   maximum displ.:     0.2324056 α      in ANC's #55, #31, #56, ...

........................................................................
.............................. CYCLE   23 ..............................
........................................................................
   1   -583.8290544 -0.583829E+03  0.410E-03    0.62       0.0  T
   2   -583.8290582 -0.376600E-05  0.278E-03    0.62       1.9  T
   3   -583.8290598 -0.163771E-05  0.122E-03    0.62       4.3  T
   4   -583.8290584  0.139028E-05  0.142E-03    0.62       3.7  T
   5   -583.8290603 -0.191073E-05  0.309E-04    0.62      16.8  T
   6   -583.8290604 -0.104915E-06  0.125E-04    0.62      41.5  T
   7   -583.8290604 -0.211281E-07  0.300E-05    0.62     173.5  T
     SCC iter.                  ...        0 min,  3.419 sec
     gradient                   ...        0 min,  1.070 sec
 * total energy  :  -574.7466230 Eh     change       -0.1435054E-02 Eh
   gradient norm :     0.0115282 Eh/α   predicted    -0.1289233E-02 ( -10.16%)
   displ. norm   :     0.6856085 α      lambda       -0.1362420E-02
   maximum displ.:     0.2527173 α      in ANC's #55, #31, #56, ...

........................................................................
.............................. CYCLE   24 ..............................
........................................................................
   1   -583.8296751 -0.583830E+03  0.256E-03    0.62       0.0  T
   2   -583.8296766 -0.142512E-05  0.142E-03    0.62       3.7  T
   3   -583.8296767 -0.971712E-07  0.776E-04    0.62       6.7  T
   4   -583.8296765  0.155587E-06  0.735E-04    0.62       7.1  T
   5   -583.8296770 -0.514273E-06  0.178E-04    0.62      29.2  T
   6   -583.8296771 -0.456574E-07  0.706E-05    0.62      73.7  T
     SCC iter.                  ...        0 min,  2.919 sec
     gradient                   ...        0 min,  1.071 sec
 * total energy  :  -574.7478318 Eh     change       -0.1208781E-02 Eh
   gradient norm :     0.0186313 Eh/α   predicted    -0.1001424E-02 ( -17.15%)
   displ. norm   :     0.7781273 α      lambda       -0.1566021E-02
   maximum displ.:     0.2879056 α      in ANC's #55, #31, #56, ...

........................................................................
.............................. CYCLE   25 ..............................
........................................................................
   1   -583.8281257 -0.583828E+03  0.238E-03    0.62       0.0  T
   2   -583.8281270 -0.133943E-05  0.131E-03    0.62       4.0  T
   3   -583.8281273 -0.293587E-06  0.725E-04    0.62       7.2  T
   4   -583.8281273  0.230050E-07  0.457E-04    0.62      11.4  T
   5   -583.8281274 -0.124102E-06  0.192E-04    0.62      27.1  T
   6   -583.8281274 -0.466056E-07  0.576E-05    0.62      90.3  T
     SCC iter.                  ...        0 min,  2.935 sec
     gradient                   ...        0 min,  1.074 sec
 * total energy  :  -574.7492935 Eh     change       -0.1461649E-02 Eh
   gradient norm :     0.0177728 Eh/α   predicted    -0.1257116E-02 ( -13.99%)
   displ. norm   :     0.8141471 α      lambda       -0.1819385E-02
   maximum displ.:     0.2991165 α      in ANC's #55, #31, #56, ...

........................................................................
.............................. CYCLE   26 ..............................
........................................................................
   1   -583.8260070 -0.583826E+03  0.306E-03    0.61       0.0  T
   2   -583.8260098 -0.282524E-05  0.192E-03    0.61       2.7  T
   3   -583.8260107 -0.857144E-06  0.893E-04    0.61       5.8  T
   4   -583.8260104  0.297239E-06  0.689E-04    0.61       7.6  T
   5   -583.8260108 -0.374595E-06  0.213E-04    0.61      24.5  T
   6   -583.8260108 -0.476817E-07  0.893E-05    0.61      58.2  T
   7   -583.8260108 -0.100036E-07  0.324E-05    0.61     160.6  T
     SCC iter.                  ...        0 min,  3.393 sec
     gradient                   ...        0 min,  1.068 sec
 * total energy  :  -574.7509421 Eh     change       -0.1648593E-02 Eh
   gradient norm :     0.0095673 Eh/α   predicted    -0.1512671E-02 (  -8.24%)
   displ. norm   :     0.8471050 α      lambda       -0.1688591E-02
   maximum displ.:     0.3072530 α      in ANC's #55, #31, #42, ...

........................................................................
.............................. CYCLE   27 ..............................
........................................................................
   1   -583.8225468 -0.583823E+03  0.283E-03    0.61       0.0  T
   2   -583.8225495 -0.272782E-05  0.161E-03    0.61       3.2  T
   3   -583.8225502 -0.672322E-06  0.844E-04    0.61       6.2  T
   4   -583.8225501  0.131479E-06  0.623E-04    0.61       8.3  T
   5   -583.8225504 -0.339264E-06  0.193E-04    0.61      27.0  T
   6   -583.8225504 -0.237486E-07  0.663E-05    0.61      78.4  T
     SCC iter.                  ...        0 min,  2.910 sec
     gradient                   ...        0 min,  1.066 sec
 * total energy  :  -574.7524638 Eh     change       -0.1521784E-02 Eh
   gradient norm :     0.0073758 Eh/α   predicted    -0.1450158E-02 (  -4.71%)
   displ. norm   :     0.8708231 α      lambda       -0.1502739E-02
   maximum displ.:     0.3114478 α      in ANC's #55, #31, #42, ...

........................................................................
.............................. CYCLE   28 ..............................
........................................................................
   1   -583.8178611 -0.583818E+03  0.221E-03    0.61       0.0  T
   2   -583.8178628 -0.168685E-05  0.126E-03    0.61       4.1  T
   3   -583.8178634 -0.619093E-06  0.713E-04    0.61       7.3  T
   4   -583.8178636 -0.180486E-06  0.448E-04    0.61      11.6  T
   5   -583.8178637 -0.131944E-06  0.157E-04    0.61      33.2  T
   6   -583.8178637 -0.837895E-08  0.691E-05    0.61      75.2  T
     SCC iter.                  ...        0 min,  2.908 sec
     gradient                   ...        0 min,  1.070 sec
 * total energy  :  -574.7538530 Eh     change       -0.1389148E-02 Eh
   gradient norm :     0.0092796 Eh/α   predicted    -0.1321161E-02 (  -4.89%)
   displ. norm   :     0.8663704 α      lambda       -0.1415880E-02
   maximum displ.:     0.3082535 α      in ANC's #31, #55, #42, ...

........................................................................
.............................. CYCLE   29 ..............................
........................................................................
   1   -583.8164896 -0.583816E+03  0.204E-03    0.61       0.0  T
   2   -583.8164911 -0.150436E-05  0.136E-03    0.61       3.8  T
   3   -583.8164921 -0.955323E-06  0.637E-04    0.61       8.2  T
   4   -583.8164922 -0.632599E-07  0.471E-04    0.61      11.0  T
   5   -583.8164923 -0.135414E-06  0.180E-04    0.61      28.9  T
   6   -583.8164923 -0.171304E-07  0.910E-05    0.61      57.1  T
     SCC iter.                  ...        0 min,  2.915 sec
     gradient                   ...        0 min,  1.065 sec
 * total energy  :  -574.7551549 Eh     change       -0.1301924E-02 Eh
   gradient norm :     0.0086310 Eh/α   predicted    -0.1239348E-02 (  -4.81%)
   displ. norm   :     0.8627166 α      lambda       -0.1290180E-02
   maximum displ.:     0.3054706 α      in ANC's #31, #42, #55, ...

........................................................................
.............................. CYCLE   30 ..............................
........................................................................
   1   -583.8157635 -0.583816E+03  0.206E-03    0.61       0.0  T
   2   -583.8157650 -0.151821E-05  0.150E-03    0.61       3.5  T
   3   -583.8157660 -0.100475E-05  0.670E-04    0.61       7.8  T
   4   -583.8157659  0.102210E-06  0.588E-04    0.61       8.8  T
   5   -583.8157661 -0.249836E-06  0.201E-04    0.61      25.9  T
   6   -583.8157662 -0.326132E-07  0.964E-05    0.61      53.9  T
   7   -583.8157662 -0.128711E-07  0.270E-05    0.61     192.7  T
     SCC iter.                  ...        0 min,  3.403 sec
     gradient                   ...        0 min,  1.071 sec
 * total energy  :  -574.7563259 Eh     change       -0.1171034E-02 Eh
   gradient norm :     0.0057397 Eh/α   predicted    -0.1125234E-02 (  -3.91%)
   displ. norm   :     0.8562916 α      lambda       -0.1113708E-02
   maximum displ.:     0.3056626 α      in ANC's #42, #31, #55, ...

........................................................................
.............................. CYCLE   31 ..............................
........................................................................
   1   -583.8149225 -0.583815E+03  0.192E-03    0.61       0.0  T
   2   -583.8149240 -0.147006E-05  0.133E-03    0.61       3.9  T
   3   -583.8149246 -0.676591E-06  0.624E-04    0.61       8.3  T
   4   -583.8149245  0.115050E-06  0.574E-04    0.61       9.1  T
   5   -583.8149248 -0.277717E-06  0.178E-04    0.61      29.2  T
   6   -583.8149248 -0.217449E-07  0.924E-05    0.61      56.3  T
     SCC iter.                  ...        0 min,  2.914 sec
     gradient                   ...        0 min,  1.067 sec
 * total energy  :  -574.7573335 Eh     change       -0.1007531E-02 Eh
   gradient norm :     0.0047595 Eh/α   predicted    -0.9651606E-03 (  -4.21%)
   displ. norm   :     0.8414405 α      lambda       -0.9629939E-03
   maximum displ.:     0.3153504 α      in ANC's #42, #31, #55, ...

........................................................................
.............................. CYCLE   32 ..............................
........................................................................
   1   -583.8146395 -0.583815E+03  0.176E-03    0.61       0.0  T
   2   -583.8146409 -0.135883E-05  0.115E-03    0.61       4.5  T
   3   -583.8146413 -0.427414E-06  0.562E-04    0.61       9.3  T
   4   -583.8146412  0.116282E-06  0.528E-04    0.61       9.9  T
   5   -583.8146415 -0.270128E-06  0.158E-04    0.61      32.9  T
   6   -583.8146415 -0.156381E-07  0.744E-05    0.61      69.9  T
     SCC iter.                  ...        0 min,  2.919 sec
     gradient                   ...        0 min,  1.070 sec
 * total energy  :  -574.7582065 Eh     change       -0.8729972E-03 Eh
   gradient norm :     0.0051617 Eh/α   predicted    -0.8224101E-03 (  -5.79%)
   displ. norm   :     0.8230581 α      lambda       -0.8555384E-03
   maximum displ.:     0.3248000 α      in ANC's #42, #31, #55, ...

........................................................................
.............................. CYCLE   33 ..............................
........................................................................
   1   -583.8151458 -0.583815E+03  0.170E-03    0.61       0.0  T
   2   -583.8151471 -0.132803E-05  0.107E-03    0.61       4.9  T
   3   -583.8151474 -0.346575E-06  0.522E-04    0.61      10.0  T
   4   -583.8151473  0.134640E-06  0.494E-04    0.61      10.5  T
   5   -583.8151475 -0.239858E-06  0.158E-04    0.61      32.9  T
   6   -583.8151476 -0.182315E-07  0.614E-05    0.61      84.6  T
     SCC iter.                  ...        0 min,  2.923 sec
     gradient                   ...        0 min,  1.063 sec
 * total energy  :  -574.7589798 Eh     change       -0.7733269E-03 Eh
   gradient norm :     0.0049109 Eh/α   predicted    -0.7175676E-03 (  -7.21%)
   displ. norm   :     0.8053504 α      lambda       -0.7670395E-03
   maximum displ.:     0.3364138 α      in ANC's #42, #31, #12, ...

........................................................................
.............................. CYCLE   34 ..............................
........................................................................
   1   -583.8158695 -0.583816E+03  0.174E-03    0.61       0.0  T
   2   -583.8158709 -0.139204E-05  0.107E-03    0.61       4.9  T
   3   -583.8158713 -0.368444E-06  0.504E-04    0.61      10.3  T
   4   -583.8158712  0.921149E-07  0.447E-04    0.61      11.6  T
   5   -583.8158713 -0.157470E-06  0.168E-04    0.61      31.0  T
   6   -583.8158714 -0.244356E-07  0.589E-05    0.61      88.3  T
     SCC iter.                  ...        0 min,  2.917 sec
     gradient                   ...        0 min,  1.066 sec
 * total energy  :  -574.7596685 Eh     change       -0.6886909E-03 Eh
   gradient norm :     0.0040928 Eh/α   predicted    -0.6322974E-03 (  -8.19%)
   displ. norm   :     0.7892311 α      lambda       -0.6844125E-03
   maximum displ.:     0.3474592 α      in ANC's #42, #31, #12, ...

........................................................................
.............................. CYCLE   35 ..............................
........................................................................
   1   -583.8160158 -0.583816E+03  0.181E-03    0.61       0.0  T
   2   -583.8160173 -0.151165E-05  0.107E-03    0.61       4.9  T
   3   -583.8160177 -0.404123E-06  0.490E-04    0.61      10.6  T
   4   -583.8160177  0.353115E-07  0.396E-04    0.61      13.1  T
   5   -583.8160178 -0.927567E-07  0.158E-04    0.61      32.9  T
   6   -583.8160178 -0.202907E-07  0.544E-05    0.61      95.6  T
     SCC iter.                  ...        0 min,  2.922 sec
     gradient                   ...        0 min,  1.085 sec
 * total energy  :  -574.7602809 Eh     change       -0.6124150E-03 Eh
   gradient norm :     0.0036177 Eh/α   predicted    -0.5553646E-03 (  -9.32%)
   displ. norm   :     0.7772774 α      lambda       -0.6211873E-03
   maximum displ.:     0.3561048 α      in ANC's #42, #12, #16, ...

........................................................................
.............................. CYCLE   36 ..............................
........................................................................
   1   -583.8151786 -0.583815E+03  0.186E-03    0.60       0.0  T
   2   -583.8151802 -0.160329E-05  0.104E-03    0.61       5.0  T
   3   -583.8151806 -0.398607E-06  0.470E-04    0.61      11.1  T
   4   -583.8151806  0.815521E-08  0.363E-04    0.61      14.3  T
   5   -583.8151806 -0.674956E-07  0.145E-04    0.61      35.8  T
   6   -583.8151807 -0.162635E-07  0.470E-05    0.61     110.6  T
     SCC iter.                  ...        0 min,  2.968 sec
     gradient                   ...        0 min,  1.077 sec
 * total energy  :  -574.7608394 Eh     change       -0.5584479E-03 Eh
   gradient norm :     0.0040518 Eh/α   predicted    -0.4982495E-03 ( -10.78%)
   displ. norm   :     0.7745958 α      lambda       -0.5949077E-03
   maximum displ.:     0.3628559 α      in ANC's #42, #12, #16, ...

........................................................................
.............................. CYCLE   37 ..............................
........................................................................
   1   -583.8132480 -0.583813E+03  0.190E-03    0.60       0.0  T
   2   -583.8132496 -0.161934E-05  0.988E-04    0.60       5.3  T
   3   -583.8132499 -0.352594E-06  0.451E-04    0.60      11.5  T
   4   -583.8132499  0.286070E-08  0.348E-04    0.60      15.0  T
   5   -583.8132500 -0.592655E-07  0.147E-04    0.60      35.3  T
   6   -583.8132500 -0.197803E-07  0.509E-05    0.60     102.2  T
     SCC iter.                  ...        0 min,  2.938 sec
     gradient                   ...        0 min,  1.084 sec
 * total energy  :  -574.7613785 Eh     change       -0.5391084E-03 Eh
   gradient norm :     0.0049040 Eh/α   predicted    -0.4759418E-03 ( -11.72%)
   displ. norm   :     0.7839656 α      lambda       -0.6041585E-03
   maximum displ.:     0.3667863 α      in ANC's #42, #12, #16, ...

........................................................................
.............................. CYCLE   38 ..............................
........................................................................
   1   -583.8101106 -0.583810E+03  0.194E-03    0.60       0.0  T
   2   -583.8101122 -0.155995E-05  0.930E-04    0.60       5.6  T
   3   -583.8101125 -0.280446E-06  0.443E-04    0.60      11.7  T
   4   -583.8101125  0.523198E-08  0.344E-04    0.60      15.1  T
   5   -583.8101125 -0.637975E-07  0.147E-04    0.60      35.4  T
   6   -583.8101125 -0.225797E-07  0.526E-05    0.60      98.9  T
     SCC iter.                  ...        0 min,  2.962 sec
     gradient                   ...        0 min,  1.078 sec
 * total energy  :  -574.7619271 Eh     change       -0.5486567E-03 Eh
   gradient norm :     0.0055350 Eh/α   predicted    -0.4877390E-03 ( -11.10%)
   displ. norm   :     0.7899379 α      lambda       -0.6184156E-03
   maximum displ.:     0.3576560 α      in ANC's #42, #12, #16, ...

........................................................................
.............................. CYCLE   39 ..............................
........................................................................
   1   -583.8061410 -0.583806E+03  0.196E-03    0.61       0.0  T
   2   -583.8061424 -0.139762E-05  0.871E-04    0.61       6.0  T
   3   -583.8061426 -0.202313E-06  0.452E-04    0.61      11.5  T
   4   -583.8061426 -0.111697E-08  0.339E-04    0.61      15.3  T
   5   -583.8061427 -0.691114E-07  0.132E-04    0.61      39.4  T
   6   -583.8061427 -0.177776E-07  0.496E-05    0.61     104.8  T
     SCC iter.                  ...        0 min,  2.935 sec
     gradient                   ...        0 min,  1.081 sec
 * total energy  :  -574.7624831 Eh     change       -0.5560295E-03 Eh
   gradient norm :     0.0055620 Eh/α   predicted    -0.5021599E-03 (  -9.69%)
   displ. norm   :     0.7812415 α      lambda       -0.6014099E-03
   maximum displ.:     0.3317185 α      in ANC's #42, #12, #16, ...

........................................................................
.............................. CYCLE   40 ..............................
........................................................................
   1   -583.8024036 -0.583802E+03  0.194E-03    0.61       0.0  T
   2   -583.8024047 -0.118891E-05  0.832E-04    0.61       6.2  T
   3   -583.8024049 -0.159194E-06  0.473E-04    0.61      11.0  T
   4   -583.8024049 -0.314873E-07  0.321E-04    0.61      16.2  T
   5   -583.8024050 -0.600296E-07  0.118E-04    0.61      44.2  T
   6   -583.8024050 -0.131390E-07  0.439E-05    0.61     118.5  T
     SCC iter.                  ...        0 min,  2.964 sec
     gradient                   ...        0 min,  1.075 sec
 * total energy  :  -574.7630157 Eh     change       -0.5325985E-03 Eh
   gradient norm :     0.0050894 Eh/α   predicted    -0.4842377E-03 (  -9.08%)
   displ. norm   :     0.7650243 α      lambda       -0.5583406E-03
   maximum displ.:     0.3030806 α      in ANC's #42, #12, #16, ...

........................................................................
.............................. CYCLE   41 ..............................
........................................................................
   1   -583.8002506 -0.583800E+03  0.185E-03    0.61       0.0  T
   2   -583.8002516 -0.100474E-05  0.799E-04    0.61       6.5  T
   3   -583.8002517 -0.141869E-06  0.477E-04    0.61      10.9  T
   4   -583.8002518 -0.503343E-07  0.297E-04    0.61      17.5  T
   5   -583.8002518 -0.468373E-07  0.120E-04    0.61      43.5  T
   6   -583.8002519 -0.137513E-07  0.443E-05    0.61     117.4  T
     SCC iter.                  ...        0 min,  2.920 sec
     gradient                   ...        0 min,  1.070 sec
 * total energy  :  -574.7635070 Eh     change       -0.4912345E-03 Eh
   gradient norm :     0.0047706 Eh/α   predicted    -0.4425611E-03 (  -9.91%)
   displ. norm   :     0.7480805 α      lambda       -0.5279463E-03
   maximum displ.:     0.2751038 α      in ANC's #42, #12, #16, ...

........................................................................
.............................. CYCLE   42 ..............................
........................................................................
   1   -583.8005714 -0.583801E+03  0.169E-03    0.61       0.0  T
   2   -583.8005723 -0.827603E-06  0.730E-04    0.61       7.1  T
   3   -583.8005724 -0.113920E-06  0.447E-04    0.61      11.6  T
   4   -583.8005724 -0.406875E-07  0.288E-04    0.61      18.1  T
   5   -583.8005725 -0.536513E-07  0.135E-04    0.61      38.6  T
   6   -583.8005725 -0.211176E-07  0.483E-05    0.61     107.6  T
     SCC iter.                  ...        0 min,  2.937 sec
     gradient                   ...        0 min,  1.067 sec
 * total energy  :  -574.7639725 Eh     change       -0.4654870E-03 Eh
   gradient norm :     0.0049657 Eh/α   predicted    -0.4117059E-03 ( -11.55%)
   displ. norm   :     0.7420293 α      lambda       -0.5227808E-03
   maximum displ.:     0.2700174 α      in ANC's #12, #16, #42, ...
 * RMSD in coord.:     0.7668048 α      energy gain  -0.2129411E-01 Eh

generating ANC from model Hessian ...
Using Lindh-Hessian (1995)
 Shifting diagonal of input Hessian by    1.0045855816931917E-002
 Lowest  eigenvalues of input Hessian
    0.010000    0.010041    0.010042    0.010044    0.010045    0.010046
    0.000000    0.000000    0.000000    0.000000    0.000000    0.000000
    0.010046    0.010048    0.010051    0.010054    0.010066    0.010089
 Highest eigenvalues
    2.210953    2.211270    2.620492    2.630448    2.637972    2.638366


........................................................................
.............................. CYCLE   43 ..............................
........................................................................
   1   -583.8030492 -0.583803E+03  0.152E-03    0.61       0.0  T
   2   -583.8030498 -0.649698E-06  0.668E-04    0.61       7.8  T
   3   -583.8030499 -0.601157E-07  0.426E-04    0.61      12.2  T
   4   -583.8030499 -0.511850E-07  0.296E-04    0.61      17.5  T
   5   -583.8030500 -0.862262E-07  0.112E-04    0.61      46.3  T
   6   -583.8030500 -0.130145E-07  0.408E-05    0.61     127.3  T
     SCC iter.                  ...        0 min,  2.917 sec
     gradient                   ...        0 min,  1.072 sec
 * total energy  :  -574.7644336 Eh     change       -0.4611416E-03 Eh
   gradient norm :     0.0053822 Eh/α   predicted     0.0000000E+00 (-100.00%)
   displ. norm   :     0.0873548 α      lambda       -0.9257112E-04
   maximum displ.:     0.0327638 α      in ANC's #55, #38, #40, ...

........................................................................
.............................. CYCLE   44 ..............................
........................................................................
   1   -583.8063959 -0.583806E+03  0.101E-03    0.61       0.0  T
   2   -583.8063961 -0.193009E-06  0.591E-04    0.61       8.8  T
   3   -583.8063961 -0.199212E-07  0.350E-04    0.61      14.9  T
   4   -583.8063961  0.138729E-07  0.213E-04    0.61      24.5  T
   5   -583.8063961 -0.379448E-07  0.968E-05    0.61      53.7  T
   6   -583.8063961 -0.161292E-07  0.199E-05    0.61     260.9  T
     SCC iter.                  ...        0 min,  2.922 sec
     gradient                   ...        0 min,  1.063 sec
 * total energy  :  -574.7645496 Eh     change       -0.1160076E-03 Eh
   gradient norm :     0.0029704 Eh/α   predicted    -0.6584496E-04 ( -43.24%)
   displ. norm   :     0.4129840 α      lambda       -0.4649789E-03
   maximum displ.:     0.1577886 α      in ANC's #55, #38, #40, ...

........................................................................
.............................. CYCLE   45 ..............................
........................................................................
   1   -583.8133629 -0.583813E+03  0.346E-03    0.60       0.0  T
   2   -583.8133667 -0.374932E-05  0.217E-03    0.60       2.4  T
   3   -583.8133675 -0.884274E-06  0.121E-03    0.60       4.3  T
   4   -583.8133673  0.265727E-06  0.793E-04    0.60       6.6  T
   5   -583.8133676 -0.298161E-06  0.399E-04    0.60      13.0  T
   6   -583.8133678 -0.270475E-06  0.903E-05    0.60      57.6  T
   7   -583.8133679 -0.103528E-07  0.315E-05    0.60     165.3  T
     SCC iter.                  ...        0 min,  3.392 sec
     gradient                   ...        0 min,  1.063 sec
 * total energy  :  -574.7648806 Eh     change       -0.3309376E-03 Eh
   gradient norm :     0.0056398 Eh/α   predicted    -0.2721658E-03 ( -17.76%)
   displ. norm   :     0.4029646 α      lambda       -0.2744773E-03
   maximum displ.:     0.1535055 α      in ANC's #55, #38, #40, ...

........................................................................
.............................. CYCLE   46 ..............................
........................................................................
   1   -583.8142897 -0.583814E+03  0.250E-03    0.60       0.0  T
   2   -583.8142925 -0.283510E-05  0.164E-03    0.60       3.2  T
   3   -583.8142932 -0.716694E-06  0.852E-04    0.60       6.1  T
   4   -583.8142931  0.116162E-06  0.583E-04    0.60       8.9  T
   5   -583.8142932 -0.107217E-06  0.260E-04    0.60      20.0  T
   6   -583.8142933 -0.951339E-07  0.805E-05    0.60      64.6  T
   7   -583.8142933 -0.944863E-08  0.273E-05    0.60     190.3  T
     SCC iter.                  ...        0 min,  3.398 sec
     gradient                   ...        0 min,  1.062 sec
 * total energy  :  -574.7651044 Eh     change       -0.2238427E-03 Eh
   gradient norm :     0.0080060 Eh/α   predicted    -0.1595878E-03 ( -28.71%)
   displ. norm   :     0.5253019 α      lambda       -0.3390630E-03
   maximum displ.:     0.1943283 α      in ANC's #55, #38, #40, ...

........................................................................
.............................. CYCLE   47 ..............................
........................................................................
   1   -583.8120110 -0.583812E+03  0.290E-03    0.60       0.0  T
   2   -583.8120152 -0.418052E-05  0.181E-03    0.60       2.9  T
   3   -583.8120161 -0.941359E-06  0.894E-04    0.60       5.8  T
   4   -583.8120160  0.120834E-06  0.639E-04    0.60       8.1  T
   5   -583.8120162 -0.161061E-06  0.249E-04    0.60      20.9  T
   6   -583.8120162 -0.709541E-07  0.869E-05    0.60      59.8  T
   7   -583.8120162 -0.974330E-08  0.318E-05    0.60     163.7  T
     SCC iter.                  ...        0 min,  3.393 sec
     gradient                   ...        0 min,  1.061 sec
 * total energy  :  -574.7653911 Eh     change       -0.2867278E-03 Eh
   gradient norm :     0.0075687 Eh/α   predicted    -0.2163144E-03 ( -24.56%)
   displ. norm   :     0.6021082 α      lambda       -0.4050243E-03
   maximum displ.:     0.2128067 α      in ANC's #55, #38, #40, ...

........................................................................
.............................. CYCLE   48 ..............................
........................................................................
   1   -583.8075698 -0.583808E+03  0.318E-03    0.60       0.0  T
   2   -583.8075746 -0.473135E-05  0.174E-03    0.60       3.0  T
   3   -583.8075755 -0.919382E-06  0.834E-04    0.60       6.2  T
   4   -583.8075753  0.157319E-06  0.658E-04    0.60       7.9  T
   5   -583.8075756 -0.259995E-06  0.283E-04    0.60      18.3  T
   6   -583.8075757 -0.985727E-07  0.985E-05    0.60      52.8  T
   7   -583.8075757 -0.122869E-07  0.342E-05    0.60     152.1  T
     SCC iter.                  ...        0 min,  3.397 sec
     gradient                   ...        0 min,  1.058 sec
 * total energy  :  -574.7657271 Eh     change       -0.3359835E-03 Eh
   gradient norm :     0.0057140 Eh/α   predicted    -0.2759382E-03 ( -17.87%)
   displ. norm   :     0.5742860 α      lambda       -0.4105316E-03
   maximum displ.:     0.2065719 α      in ANC's #38, #55, #40, ...

........................................................................
.............................. CYCLE   49 ..............................
........................................................................
   1   -583.8040540 -0.583804E+03  0.279E-03    0.60       0.0  T
   2   -583.8040572 -0.322156E-05  0.130E-03    0.60       4.0  T
   3   -583.8040578 -0.574848E-06  0.628E-04    0.60       8.3  T
   4   -583.8040578 -0.425564E-08  0.510E-04    0.60      10.2  T
   5   -583.8040580 -0.221836E-06  0.204E-04    0.60      25.5  T
   6   -583.8040580 -0.396766E-07  0.881E-05    0.60      59.0  T
   7   -583.8040580 -0.101609E-07  0.253E-05    0.60     205.7  T
     SCC iter.                  ...        0 min,  3.423 sec
     gradient                   ...        0 min,  1.058 sec
 * total energy  :  -574.7660595 Eh     change       -0.3323860E-03 Eh
   gradient norm :     0.0065455 Eh/α   predicted    -0.2730138E-03 ( -17.86%)
   displ. norm   :     0.5454264 α      lambda       -0.3895436E-03
   maximum displ.:     0.1987052 α      in ANC's #38, #14, #40, ...

........................................................................
.............................. CYCLE   50 ..............................
........................................................................
   1   -583.8026112 -0.583803E+03  0.218E-03    0.60       0.0  T
   2   -583.8026129 -0.162147E-05  0.104E-03    0.60       5.0  T
   3   -583.8026132 -0.366224E-06  0.540E-04    0.60       9.6  T
   4   -583.8026133 -0.529402E-07  0.391E-04    0.60      13.3  T
   5   -583.8026134 -0.107149E-06  0.182E-04    0.60      28.6  T
   6   -583.8026134 -0.399036E-07  0.632E-05    0.60      82.2  T
     SCC iter.                  ...        0 min,  2.918 sec
     gradient                   ...        0 min,  1.062 sec
 * total energy  :  -574.7663763 Eh     change       -0.3168334E-03 Eh
   gradient norm :     0.0087408 Eh/α   predicted    -0.2527149E-03 ( -20.24%)
   displ. norm   :     0.5834556 α      lambda       -0.3934870E-03
   maximum displ.:     0.2142813 α      in ANC's #38, #14, #40, ...

........................................................................
.............................. CYCLE   51 ..............................
........................................................................
   1   -583.8017339 -0.583802E+03  0.173E-03    0.60       0.0  T
   2   -583.8017349 -0.970100E-06  0.103E-03    0.60       5.1  T
   3   -583.8017352 -0.332643E-06  0.537E-04    0.60       9.7  T
   4   -583.8017352  0.569776E-08  0.342E-04    0.60      15.2  T
   5   -583.8017353 -0.279722E-07  0.186E-04    0.60      28.0  T
   6   -583.8017353 -0.545815E-07  0.457E-05    0.60     113.7  T
     SCC iter.                  ...        0 min,  2.943 sec
     gradient                   ...        0 min,  1.063 sec
 * total energy  :  -574.7667095 Eh     change       -0.3332008E-03 Eh
   gradient norm :     0.0087579 Eh/α   predicted    -0.2637251E-03 ( -20.85%)
   displ. norm   :     0.6204754 α      lambda       -0.4400488E-03
   maximum displ.:     0.2291800 α      in ANC's #38, #14, #40, ...

........................................................................
.............................. CYCLE   52 ..............................
........................................................................
   1   -583.8029863 -0.583803E+03  0.204E-03    0.60       0.0  T
   2   -583.8029878 -0.150427E-05  0.131E-03    0.60       4.0  T
   3   -583.8029883 -0.494274E-06  0.682E-04    0.60       7.6  T
   4   -583.8029883  0.407938E-07  0.441E-04    0.60      11.8  T
   5   -583.8029883 -0.594259E-07  0.206E-04    0.60      25.2  T
   6   -583.8029884 -0.635109E-07  0.580E-05    0.60      89.6  T
   7   -583.8029884 -0.428372E-08  0.220E-05    0.60     236.3  T
     SCC iter.                  ...        0 min,  3.405 sec
     gradient                   ...        0 min,  1.066 sec
 * total energy  :  -574.7670795 Eh     change       -0.3699760E-03 Eh
   gradient norm :     0.0059859 Eh/α   predicted    -0.3047561E-03 ( -17.63%)
   displ. norm   :     0.6915666 α      lambda       -0.4316762E-03
   maximum displ.:     0.2597528 α      in ANC's #38, #14, #40, ...

........................................................................
.............................. CYCLE   53 ..............................
........................................................................
   1   -583.8018548 -0.583802E+03  0.202E-03    0.60       0.0  T
   2   -583.8018562 -0.144870E-05  0.118E-03    0.60       4.4  T
   3   -583.8018565 -0.317981E-06  0.637E-04    0.60       8.2  T
   4   -583.8018564  0.140306E-06  0.535E-04    0.60       9.7  T
   5   -583.8018566 -0.259172E-06  0.209E-04    0.60      24.8  T
   6   -583.8018567 -0.593166E-07  0.600E-05    0.60      86.6  T
   7   -583.8018567 -0.386501E-08  0.244E-05    0.60     213.2  T
     SCC iter.                  ...        0 min,  3.413 sec
     gradient                   ...        0 min,  1.064 sec
 * total energy  :  -574.7674453 Eh     change       -0.3657669E-03 Eh
   gradient norm :     0.0045467 Eh/α   predicted    -0.3190660E-03 ( -12.77%)
   displ. norm   :     0.6337482 α      lambda       -0.4366862E-03
   maximum displ.:     0.2311678 α      in ANC's #38, #14, #40, ...

........................................................................
.............................. CYCLE   54 ..............................
........................................................................
   1   -583.8104036 -0.583810E+03  0.302E-03    0.60       0.0  T
   2   -583.8104061 -0.254183E-05  0.172E-03    0.60       3.0  T
   3   -583.8104065 -0.346793E-06  0.977E-04    0.60       5.3  T
   4   -583.8104061  0.364937E-06  0.834E-04    0.60       6.2  T
   5   -583.8104069 -0.823435E-06  0.254E-04    0.60      20.5  T
   6   -583.8104070 -0.783716E-07  0.787E-05    0.60      66.0  T
   7   -583.8104070 -0.657747E-08  0.310E-05    0.60     167.6  T
     SCC iter.                  ...        0 min,  3.433 sec
     gradient                   ...        0 min,  1.063 sec
 * total energy  :  -574.7677512 Eh     change       -0.3059112E-03 Eh
   gradient norm :     0.0079672 Eh/α   predicted    -0.3060635E-03 (   0.05%)
   displ. norm   :     0.7586016 α      lambda       -0.4064365E-03
   maximum displ.:     0.2902801 α      in ANC's #38, #14, #40, ...

........................................................................
.............................. CYCLE   55 ..............................
........................................................................
   1   -583.8011661 -0.583801E+03  0.342E-03    0.60       0.0  T
   2   -583.8011675 -0.132994E-05  0.185E-03    0.60       2.8  T
   3   -583.8011669  0.545172E-06  0.123E-03    0.60       4.2  T
   4   -583.8011675 -0.610533E-06  0.671E-04    0.60       7.8  T
   5   -583.8011680 -0.471454E-06  0.219E-04    0.60      23.8  T
   6   -583.8011681 -0.605440E-07  0.735E-05    0.60      70.7  T
   7   -583.8011681 -0.649413E-08  0.302E-05    0.60     172.4  T
     SCC iter.                  ...        0 min,  3.406 sec
     gradient                   ...        0 min,  1.062 sec
 * total energy  :  -574.7680324 Eh     change       -0.2812072E-03 Eh
   gradient norm :     0.0086028 Eh/α   predicted    -0.3201675E-03 (  13.85%)
   displ. norm   :     0.4905890 α      lambda       -0.2785368E-03
   maximum displ.:     0.1842969 α      in ANC's #38, #14, #40, ...

........................................................................
.............................. CYCLE   56 ..............................
........................................................................
   1   -583.8044515 -0.583804E+03  0.160E-03    0.60       0.0  T
   2   -583.8044521 -0.671229E-06  0.900E-04    0.60       5.8  T
   3   -583.8044524 -0.310465E-06  0.549E-04    0.60       9.5  T
   4   -583.8044526 -0.129560E-06  0.325E-04    0.60      16.0  T
   5   -583.8044526 -0.428292E-07  0.158E-04    0.60      33.0  T
   6   -583.8044527 -0.293824E-07  0.471E-05    0.60     110.4  T
     SCC iter.                  ...        0 min,  2.911 sec
     gradient                   ...        0 min,  1.054 sec
 * total energy  :  -574.7682681 Eh     change       -0.2356767E-03 Eh
   gradient norm :     0.0066818 Eh/α   predicted    -0.1727870E-03 ( -26.68%)
   displ. norm   :     0.5283922 α      lambda       -0.3626182E-03
   maximum displ.:     0.1989348 α      in ANC's #14, #38, #41, ...

........................................................................
.............................. CYCLE   57 ..............................
........................................................................
   1   -583.8127139 -0.583813E+03  0.299E-03    0.60       0.0  T
   2   -583.8127161 -0.218974E-05  0.172E-03    0.60       3.0  T
   3   -583.8127167 -0.683676E-06  0.106E-03    0.60       4.9  T
   4   -583.8127169 -0.149770E-06  0.657E-04    0.60       7.9  T
   5   -583.8127172 -0.294561E-06  0.266E-04    0.60      19.5  T
   6   -583.8127173 -0.857146E-07  0.922E-05    0.60      56.4  T
   7   -583.8127173 -0.141071E-07  0.305E-05    0.60     170.5  T
     SCC iter.                  ...        0 min,  3.391 sec
     gradient                   ...        0 min,  1.062 sec
 * total energy  :  -574.7685285 Eh     change       -0.2604068E-03 Eh
   gradient norm :     0.0041301 Eh/α   predicted    -0.2319305E-03 ( -10.94%)
   displ. norm   :     0.6723494 α      lambda       -0.2503714E-03
   maximum displ.:     0.2602504 α      in ANC's #38, #14, #40, ...

........................................................................
.............................. CYCLE   58 ..............................
........................................................................
   1   -583.8101239 -0.583810E+03  0.202E-03    0.60       0.0  T
   2   -583.8101251 -0.119578E-05  0.110E-03    0.60       4.7  T
   3   -583.8101255 -0.347378E-06  0.667E-04    0.60       7.8  T
   4   -583.8101256 -0.124264E-06  0.422E-04    0.60      12.3  T
   5   -583.8101257 -0.123405E-06  0.162E-04    0.60      32.0  T
   6   -583.8101257 -0.227972E-07  0.656E-05    0.60      79.2  T
     SCC iter.                  ...        0 min,  2.907 sec
     gradient                   ...        0 min,  1.053 sec
 * total energy  :  -574.7687341 Eh     change       -0.2056721E-03 Eh
   gradient norm :     0.0056499 Eh/α   predicted    -0.1817794E-03 ( -11.62%)
   displ. norm   :     0.6043196 α      lambda       -0.2611569E-03
   maximum displ.:     0.2394040 α      in ANC's #14, #38, #41, ...

........................................................................
.............................. CYCLE   59 ..............................
........................................................................
   1   -583.8131531 -0.583813E+03  0.198E-03    0.60       0.0  T
   2   -583.8131544 -0.130194E-05  0.127E-03    0.60       4.1  T
   3   -583.8131547 -0.285312E-06  0.727E-04    0.60       7.2  T
   4   -583.8131545  0.178910E-06  0.547E-04    0.60       9.5  T
   5   -583.8131548 -0.284952E-06  0.196E-04    0.60      26.5  T
   6   -583.8131549 -0.448279E-07  0.723E-05    0.60      71.9  T
     SCC iter.                  ...        0 min,  2.907 sec
     gradient                   ...        0 min,  1.056 sec
 * total energy  :  -574.7689438 Eh     change       -0.2096488E-03 Eh
   gradient norm :     0.0060845 Eh/α   predicted    -0.1782660E-03 ( -14.97%)
   displ. norm   :     0.6679833 α      lambda       -0.2690401E-03
   maximum displ.:     0.2651567 α      in ANC's #14, #38, #41, ...

........................................................................
.............................. CYCLE   60 ..............................
........................................................................
[...]
   100   7 N      134   1 H                                       1.0146922
   103   6 C      135   1 H                                       1.0846670
   104   6 C      136   1 H                                       1.0823536
   107   6 C      137   1 H                                       1.0894226
   107   6 C      138   1 H                                       1.0956625
   107   6 C      139   1 H                                       1.0904709
   108   6 C      140   1 H                                       1.0903626
   108   6 C      141   1 H                                       1.0894725
   108   6 C      142   1 H                                       1.0957409
   109   6 C      143   1 H                                       1.0824285
   110   6 C      144   1 H                                       1.0847508
   112   6 C      145   1 H                                       1.0782072
   113   6 C      146   1 H                                       1.0789629
   147   6 C      148   6 C                                       1.2185721
   149   6 C      150   6 C                                       1.2188055
   151   6 C      152   6 C                                       1.2189535
   153   6 C      154   6 C                                       1.2185095
   155   6 C      156   6 C                                       1.4093749
   156   6 C      157   6 C                                       1.4174503
   157   6 C      158   6 C                                       1.3683203
   158   6 C      159   6 C                                       1.4205364
   156   6 C      160   7 N                                       1.3640414
   159   6 C      160   7 N                                       1.3699932
   159   6 C      161   6 C                                       1.4013011
   162   6 C      163   6 C                                       1.3956902
   163   6 C      164   6 C                                       1.3832272
   164   6 C      165   6 C                                       1.4029038
   165   6 C      166   7 N                                       1.3929807
   166   7 N      167   6 C                                       1.4637542
   166   7 N      168   6 C                                       1.4634607
   165   6 C      169   6 C                                       1.4028098
   162   6 C      170   6 C                                       1.3960512
   169   6 C      170   6 C                                       1.3828352
   161   6 C      171   6 C                                       1.3965015
   171   6 C      172   6 C                                       1.4511577
   172   6 C      173   6 C                                       1.3497034
   171   6 C      174   7 N                                       1.3617481
   173   6 C      175   6 C                                       1.4478842
   174   7 N      175   6 C                                       1.3489867
   175   6 C      176   6 C                                       1.4103017
   176   6 C      177   6 C                                       1.4094597
   177   6 C      178   6 C                                       1.4171609
   178   6 C      179   6 C                                       1.3688598
   179   6 C      180   6 C                                       1.4204150
   177   6 C      181   7 N                                       1.3636463
   180   6 C      181   7 N                                       1.3694611
   180   6 C      182   6 C                                       1.4018161
   183   6 C      184   6 C                                       1.3961993
   184   6 C      185   6 C                                       1.3827380
   185   6 C      186   6 C                                       1.4029912
   186   6 C      187   7 N                                       1.3923346
   187   7 N      188   6 C                                       1.4632551
   187   7 N      189   6 C                                       1.4636261
   186   6 C      190   6 C                                       1.4029422
   183   6 C      191   6 C                                       1.3956416
   190   6 C      191   6 C                                       1.3832752
   182   6 C      192   6 C                                       1.3962196
   192   6 C      193   6 C                                       1.4510975
   193   6 C      194   6 C                                       1.3493309
   155   6 C      195   6 C                                       1.4102494
   194   6 C      195   6 C                                       1.4477256
   192   6 C      196   7 N                                       1.3624499
   195   6 C      196   7 N                                       1.3493915
   157   6 C      197   1 H                                       1.0769548
   158   6 C      198   1 H                                       1.0776626
   160   7 N      199   1 H                                       1.0145203
   163   6 C      200   1 H                                       1.0847282
   164   6 C      201   1 H                                       1.0824213
   167   6 C      202   1 H                                       1.0894430
   167   6 C      203   1 H                                       1.0904446
   167   6 C      204   1 H                                       1.0956747
   168   6 C      205   1 H                                       1.0903794
   168   6 C      206   1 H                                       1.0957684
   168   6 C      207   1 H                                       1.0894956
   169   6 C      208   1 H                                       1.0823487
   170   6 C      209   1 H                                       1.0846471
   172   6 C      210   1 H                                       1.0780021
   173   6 C      211   1 H                                       1.0778512
   178   6 C      212   1 H                                       1.0773328
   179   6 C      213   1 H                                       1.0777598
   181   7 N      214   1 H                                       1.0144385
   184   6 C      215   1 H                                       1.0847709
   185   6 C      216   1 H                                       1.0823946
   188   6 C      217   1 H                                       1.0957787
   188   6 C      218   1 H                                       1.0903838
   188   6 C      219   1 H                                       1.0895073
   189   6 C      220   1 H                                       1.0956801
   189   6 C      221   1 H                                       1.0894469
   189   6 C      222   1 H                                       1.0905492
   190   6 C      223   1 H                                       1.0823740
   191   6 C      224   1 H                                       1.0846057
   193   6 C      225   1 H                                       1.0778973
   194   6 C      226   1 H                                       1.0774421
   227   6 C      228   6 C                                       1.4098386
   228   6 C      229   6 C                                       1.4170323
   229   6 C      230   6 C                                       1.3693952
   230   6 C      231   6 C                                       1.4201717
   228   6 C      232   7 N                                       1.3635057
   231   6 C      232   7 N                                       1.3696040
   231   6 C      233   6 C                                       1.4024320
   234   6 C      235   6 C                                       1.3966069
   235   6 C      236   6 C                                       1.3826633
   236   6 C      237   6 C                                       1.4032028
   237   6 C      238   7 N                                       1.3920067
   238   7 N      239   6 C                                       1.4637538
   238   7 N      240   6 C                                       1.4631204
   237   6 C      241   6 C                                       1.4030598
   234   6 C      242   6 C                                       1.3966062
   241   6 C      242   6 C                                       1.3826727
   233   6 C      243   6 C                                       1.3973099
   243   6 C      244   6 C                                       1.4509658
   244   6 C      245   6 C                                       1.3501821
   243   6 C      246   7 N                                       1.3618120
   245   6 C      247   6 C                                       1.4476320
   246   7 N      247   6 C                                       1.3490574
   247   6 C      248   6 C                                       1.4105333
   248   6 C      249   6 C                                       1.4102194
   249   6 C      250   6 C                                       1.4169564
   250   6 C      251   6 C                                       1.3694952
   251   6 C      252   6 C                                       1.4200140
   249   6 C      253   7 N                                       1.3633291
   252   6 C      253   7 N                                       1.3696114
   252   6 C      254   6 C                                       1.4024397
   255   6 C      256   6 C                                       1.3966347
   256   6 C      257   6 C                                       1.3825961
   257   6 C      258   6 C                                       1.4032925
   258   6 C      259   7 N                                       1.3917900
   259   7 N      260   6 C                                       1.4628633
   259   7 N      261   6 C                                       1.4637742
   258   6 C      262   6 C                                       1.4030495
   255   6 C      263   6 C                                       1.3965591
   262   6 C      263   6 C                                       1.3827092
   254   6 C      264   6 C                                       1.3970659
   264   6 C      265   6 C                                       1.4508515
   265   6 C      266   6 C                                       1.3501493
   227   6 C      267   6 C                                       1.4106717
   266   6 C      267   6 C                                       1.4476684
   264   6 C      268   7 N                                       1.3619938
   267   6 C      268   7 N                                       1.3488129
   229   6 C      269   1 H                                       1.0774282
   230   6 C      270   1 H                                       1.0777631
   232   7 N      271   1 H                                       1.0143372
   235   6 C      272   1 H                                       1.0847661
   236   6 C      273   1 H                                       1.0824442
   239   6 C      274   1 H                                       1.0894278
   239   6 C      275   1 H                                       1.0905332
   239   6 C      276   1 H                                       1.0955968
   240   6 C      277   1 H                                       1.0903923
   240   6 C      278   1 H                                       1.0957417
   240   6 C      279   1 H                                       1.0895043
   241   6 C      280   1 H                                       1.0823688
   242   6 C      281   1 H                                       1.0846356
   244   6 C      282   1 H                                       1.0780523
   245   6 C      283   1 H                                       1.0779273
   250   6 C      284   1 H                                       1.0774060
   251   6 C      285   1 H                                       1.0777716
   253   7 N      286   1 H                                       1.0143463
   256   6 C      287   1 H                                       1.0847674
   257   6 C      288   1 H                                       1.0824449
   260   6 C      289   1 H                                       1.0958084
   260   6 C      290   1 H                                       1.0903836
   260   6 C      291   1 H                                       1.0895470
   261   6 C      292   1 H                                       1.0955970
   261   6 C      293   1 H                                       1.0894382
   261   6 C      294   1 H                                       1.0905470
   262   6 C      295   1 H                                       1.0823721
   263   6 C      296   1 H                                       1.0846426
   265   6 C      297   1 H                                       1.0780465
   266   6 C      298   1 H                                       1.0778703
   299   6 C      300   6 C                                       1.4097376
   300   6 C      301   6 C                                       1.4170107
   301   6 C      302   6 C                                       1.3693727
   302   6 C      303   6 C                                       1.4203250
   300   6 C      304   7 N                                       1.3634687
   303   6 C      304   7 N                                       1.3695030
   303   6 C      305   6 C                                       1.4022538
   306   6 C      307   6 C                                       1.3966401
   307   6 C      308   6 C                                       1.3826196
   308   6 C      309   6 C                                       1.4031959
   309   6 C      310   7 N                                       1.3919529
   310   7 N      311   6 C                                       1.4636246
   310   7 N      312   6 C                                       1.4632308
   309   6 C      313   6 C                                       1.4030934
   306   6 C      314   6 C                                       1.3966057
   313   6 C      314   6 C                                       1.3827020
   305   6 C      315   6 C                                       1.3974928
   315   6 C      316   6 C                                       1.4508400
   316   6 C      317   6 C                                       1.3501143
   315   6 C      318   7 N                                       1.3616065
   317   6 C      319   6 C                                       1.4474433
   318   7 N      319   6 C                                       1.3495571
   319   6 C      320   6 C                                       1.4104319
   320   6 C      321   6 C                                       1.4094417
   321   6 C      322   6 C                                       1.4170287
   322   6 C      323   6 C                                       1.3692030
   323   6 C      324   6 C                                       1.4201951
   321   6 C      325   7 N                                       1.3640279
   324   6 C      325   7 N                                       1.3692945
   324   6 C      326   6 C                                       1.4024582
   327   6 C      328   6 C                                       1.3966484
   328   6 C      329   6 C                                       1.3826050
   329   6 C      330   6 C                                       1.4031990
   330   6 C      331   7 N                                       1.3921442
   331   7 N      332   6 C                                       1.4631396
   331   7 N      333   6 C                                       1.4638592 (max)
   330   6 C      334   6 C                                       1.4030295
   327   6 C      335   6 C                                       1.3965644
   334   6 C      335   6 C                                       1.3827432
   326   6 C      336   6 C                                       1.3970660
   336   6 C      337   6 C                                       1.4509250
   337   6 C      338   6 C                                       1.3501882
   299   6 C      339   6 C                                       1.4108844
   338   6 C      339   6 C                                       1.4476905
   336   6 C      340   7 N                                       1.3619133
   339   6 C      340   7 N                                       1.3487610
   301   6 C      341   1 H                                       1.0774446
   302   6 C      342   1 H                                       1.0777641
   304   7 N      343   1 H                                       1.0143586
   307   6 C      344   1 H                                       1.0847603
   308   6 C      345   1 H                                       1.0824155
   311   6 C      346   1 H                                       1.0894328
   311   6 C      347   1 H                                       1.0905067
   311   6 C      348   1 H                                       1.0956384
   312   6 C      349   1 H                                       1.0904602
   312   6 C      350   1 H                                       1.0957491
   312   6 C      351   1 H                                       1.0895033
   313   6 C      352   1 H                                       1.0824015
   314   6 C      353   1 H                                       1.0846521
   316   6 C      354   1 H                                       1.0780493
   317   6 C      355   1 H                                       1.0777026
   322   6 C      356   1 H                                       1.0772077
   323   6 C      357   1 H                                       1.0777671
   325   7 N      358   1 H                                       1.0143201 (min)
   328   6 C      359   1 H                                       1.0847748
   329   6 C      360   1 H                                       1.0824433
   332   6 C      361   1 H                                       1.0957372
   332   6 C      362   1 H                                       1.0903977
   332   6 C      363   1 H                                       1.0895098
   333   6 C      364   1 H                                       1.0955675
   333   6 C      365   1 H                                       1.0894183
   333   6 C      366   1 H                                       1.0905269
   334   6 C      367   1 H                                       1.0823747
   335   6 C      368   1 H                                       1.0846378
   337   6 C      369   1 H                                       1.0780521
   338   6 C      370   1 H                                       1.0778873

 * 4 distinct bonds (by element types)

   Z      Z             #   av. dist./Å        max./Å        min./Å
   1 H    6 C         142     1.0854803     1.0958320     1.0769548
   6 C    6 C         162     1.3968770     1.4516859     1.2185095
   1 H    7 N          10     1.0144478     1.0146922     1.0143201
   6 C    7 N          70     1.3947990     1.4638592     1.3487610


optimized geometry written to: xtbopt.xyz


           -------------------------------------------------
          | TOTAL ENERGY             -574.771182376860 Eh   |
          | GRADIENT NORM               0.000837958302 Eh/α |
          | HOMO-LUMO GAP               0.603942835184 eV   |
           -------------------------------------------------

------------------------------------------------------------------------
 * finished run on 2022/07/28 at 06:09:27.682     
------------------------------------------------------------------------
 total:
 * wall-time:     0 d,  0 h,  9 min, 47.419 sec
 *  cpu-time:     0 d,  0 h,  9 min, 45.006 sec
 * ratio c/w:     0.996 speedup
 SCF:
 * wall-time:     0 d,  0 h,  0 min, 14.233 sec
 *  cpu-time:     0 d,  0 h,  0 min, 14.170 sec
 * ratio c/w:     0.996 speedup
 ANC optimizer:
 * wall-time:     0 d,  0 h,  9 min, 32.710 sec
 *  cpu-time:     0 d,  0 h,  9 min, 30.429 sec
 * ratio c/w:     0.996 speedup

