      -----------------------------------------------------------      
     |                   =====================                   |     
     |                           x T B                           |     
     |                   =====================                   |     
     |                         S. Grimme                         |     
     |          Mulliken Center for Theoretical Chemistry        |     
     |                    University of Bonn                     |     
      -----------------------------------------------------------      

   * xtb version 6.5.1 (b24c23e) compiled by 'conda@728c89f4b128' on 2022-07-12

   xtb is free software: you can redistribute it and/or modify it under
   the terms of the GNU Lesser General Public License as published by
   the Free Software Foundation, either version 3 of the License, or
   (at your option) any later version.
   
   xtb is distributed in the hope that it will be useful,
   but WITHOUT ANY WARRANTY; without even the implied warranty of
   MERCHANTABILITY or FITNESS FOR A PARTICULAR PURPOSE.  See the
   GNU Lesser General Public License for more details.
   
   Cite this work as:
   * C. Bannwarth, E. Caldeweyher, S. Ehlert, A. Hansen, P. Pracht,
     J. Seibert, S. Spicher, S. Grimme, WIREs Comput. Mol. Sci., 2020, 11,
     e01493. DOI: 10.1002/wcms.1493
   
   for GFN2-xTB:
   * C. Bannwarth, S. Ehlert and S. Grimme., J. Chem. Theory Comput., 2019,
     15, 1652-1671. DOI: 10.1021/acs.jctc.8b01176
   for GFN1-xTB:
   * S. Grimme, C. Bannwarth, P. Shushkov, J. Chem. Theory Comput., 2017,
     13, 1989-2009. DOI: 10.1021/acs.jctc.7b00118
   for GFN0-xTB:
   * P. Pracht, E. Caldeweyher, S. Ehlert, S. Grimme, ChemRxiv, 2019, preprint.
     DOI: 10.26434/chemrxiv.8326202.v1
   for GFN-FF:
   * S. Spicher and S. Grimme, Angew. Chem. Int. Ed., 2020, 59, 15665-15673.
     DOI: 10.1002/anie.202004239
   
   for ALPB and GBSA implicit solvation:
   * S. Ehlert, M. Stahn, S. Spicher, S. Grimme, J. Chem. Theory Comput.,
     2021, 17, 4250-4261. DOI: 10.1021/acs.jctc.1c00471
   
   for DFT-D4:
   * E. Caldeweyher, C. Bannwarth and S. Grimme, J. Chem. Phys., 2017,
     147, 034112. DOI: 10.1063/1.4993215
   * E. Caldeweyher, S. Ehlert, A. Hansen, H. Neugebauer, S. Spicher,
     C. Bannwarth and S. Grimme, J. Chem. Phys., 2019, 150, 154122.
     DOI: 10.1063/1.5090222
   * E. Caldeweyher, J.-M. Mewes, S. Ehlert and S. Grimme, Phys. Chem. Chem. Phys.
     2020, 22, 8499-8512. DOI: 10.1039/D0CP00502A
   
   for sTDA-xTB:
   * S. Grimme and C. Bannwarth, J. Chem. Phys., 2016, 145, 054103.
     DOI: 10.1063/1.4959605
   
   in the mass-spec context:
   * V. Asgeirsson, C. Bauer and S. Grimme, Chem. Sci., 2017, 8, 4879.
     DOI: 10.1039/c7sc00601b
   * J. Koopman and S. Grimme, ACS Omega 2019, 4, 12, 15120-15133.
     DOI: 10.1021/acsomega.9b02011
   
   for metadynamics refer to:
   * S. Grimme, J. Chem. Theory Comput., 2019, 155, 2847-2862
     DOI: 10.1021/acs.jctc.9b00143
   
   for SPH calculations refer to:
   * S. Spicher and S. Grimme, J. Chem. Theory Comput., 2021, 17, 1701-1714
     DOI: 10.1021/acs.jctc.0c01306
   
   with help from (in alphabetical order)
   P. Atkinson, C. Bannwarth, F. Bohle, G. Brandenburg, E. Caldeweyher
   M. Checinski, S. Dohm, S. Ehlert, S. Ehrlich, I. Gerasimov, C. Hölzer
   A. Katbashev, J. Koopman, C. Lavigne, S. Lehtola, F. März, M. Müller,
   F. Musil, H. Neugebauer, J. Pisarek, C. Plett, P. Pracht, F. Pultar,
   J. Seibert, P. Shushkov, S. Spicher, M. Stahn, M. Steiner, T. Strunk,
   J. Stückrath, T. Rose, and J. Unsleber
   
 * started run on 2022/07/30 at 04:21:52.901     

           -------------------------------------------------
          |                Calculation Setup                |
           -------------------------------------------------

          program call               : xtb xtbopt.xyz --gfn 1 --vipea
          hostname                   : cx3-2-25.cx3.hpc.ic.ac.uk
          coordinate file            : xtbopt.xyz
          omp threads                :                     1

   ID    Z sym.   atoms
    1    6 C      1-5, 7-10, 12-20, 22-26, 28-32, 35, 36, 38-42, 44, 74-78,
                  80-83, 85-93, 95-99, 101-105, 108, 109, 111-115, 117,
                  147-171, 173-176, 178-186, 188-192, 194-198, 201, 202,
                  204-208, 210, 239-243, 245-248, 250-258, 260-264, 266-270,
                  273, 274, 276-280, 282, 311-315, 317-320, 322-330, 332-336,
                  338-342, 345, 346, 348-352, 354, 383-387, 389-392, 394-402,
                  404-408, 410-414, 417, 418, 420-424, 426
    2    7 N      6, 11, 33, 34, 79, 84, 106, 107, 172, 177, 199, 200, 244,
                  249, 271, 272, 316, 321, 343, 344, 388, 393, 415, 416
    3    8 O      21, 27, 37, 43, 94, 100, 110, 116, 187, 193, 203, 209, 259,
                  265, 275, 281, 331, 337, 347, 353, 403, 409, 419, 425
    4    1 H      45-73, 118-146, 211-238, 283-310, 355-382, 427-454

           -------------------------------------------------
          |                 I P E A - x T B                 |
           -------------------------------------------------

        Reference                      10.1039/c7sc00601b
      * Hamiltonian:
        H0-scaling (s, p, d)           2.150000    2.300000    2.000000
        zeta-weighting                 0.000000
      * Dispersion:
        s8                             2.400000
        a1                             0.630000
        a2                             5.000000
        s9                             0.000000
      * Repulsion:
        kExp                           1.500000
        rExp                           1.000000
      * Coulomb:
        alpha                          1.000000
        third order                    atomic
        anisotropic                    false
      * Halogen bond correction:
        rad-scale                      1.300000
        damping                        0.440000


          ...................................................
          :                      SETUP                      :
          :.................................................:
          :  # basis functions                1760          :
          :  # atomic orbitals                1760          :
          :  # shells                         1192          :
          :  # electrons                      1378          :
          :  # halogen bonds                     0          :
          :  max. iterations                   250          :
          :  Hamiltonian                  GFN1-xTB          :
          :  restarted?                      false          :
          :  GBSA solvation                  false          :
          :  PC potential                    false          :
          :  electronic temp.          300.0000000     K    :
          :  accuracy                    1.0000000          :
          :  -> integral cutoff          0.2500000E+02      :
          :  -> integral neglect         0.1000000E-07      :
          :  -> SCF convergence          0.1000000E-05 Eh   :
          :  -> wf. convergence          0.2000000E-04 e    :
          :  Broyden damping             0.4000000          :
          ...................................................

 iter      E             dE          RMSdq      gap      omega  full diag
   1   -881.3404247 -0.881340E+03  0.959E+00    0.60       0.0  T
   2   -883.1794219 -0.183900E+01  0.597E+00    1.16       1.0  T
   3   -871.0547331  0.121247E+02  0.436E+00    0.23       1.0  T
   4   -884.7612319 -0.137065E+02  0.109E+00    1.14       1.0  T
   5   -886.0093505 -0.124812E+01  0.280E-01    0.91       1.0  T
   6   -886.0926984 -0.833479E-01  0.950E-02    0.96       1.0  T
   7   -886.0988939 -0.619549E-02  0.452E-02    0.94       1.0  T
   8   -886.0998664 -0.972548E-03  0.329E-02    0.94       1.0  T
   9   -886.1003295 -0.463120E-03  0.204E-02    0.94       1.0  T
  10   -886.1005982 -0.268650E-03  0.536E-03    0.95       1.0  T
  11   -886.1006145 -0.163111E-04  0.198E-03    0.95       2.4  T
  12   -886.1006177 -0.319522E-05  0.829E-04    0.95       5.7  T
  13   -886.1006183 -0.612173E-06  0.385E-04    0.95      12.2  T
  14   -886.1006184 -0.125790E-06  0.129E-04    0.95      36.3  T
  15   -886.1006184 -0.950968E-08  0.582E-05    0.95      80.7  T

   *** convergence criteria satisfied after 15 iterations ***

         #    Occupation            Energy/Eh            Energy/eV
      -------------------------------------------------------------
         1        2.0000           -1.0544117             -28.6920
       ...           ...                  ...                  ...
       683        2.0000           -0.3892431             -10.5918
       684        2.0000           -0.3829298             -10.4201
       685        2.0000           -0.3768449             -10.2545
       686        2.0000           -0.3740795             -10.1792
       687        2.0000           -0.3721501             -10.1267
       688        2.0000           -0.3659981              -9.9593
       689        2.0000           -0.3595546              -9.7840 (HOMO)
       690                         -0.3247909              -8.8380 (LUMO)
       691                         -0.3179452              -8.6517
       692                         -0.3115043              -8.4765
       693                         -0.3095060              -8.4221
       694                         -0.3065132              -8.3406
       ...                                ...                  ...
      1760                        603.7750902           16429.5565
      -------------------------------------------------------------
                  HL-Gap            0.0347637 Eh            0.9460 eV
             Fermi-level           -0.3421726 Eh           -9.3110 eV

 SCC (total)                   0 d,  0 h,  0 min, 26.788 sec
 SCC setup                      ...        0 min,  0.020 sec (  0.076%)
 Dispersion                     ...        0 min,  0.026 sec (  0.097%)
 classical contributions        ...        0 min,  0.007 sec (  0.028%)
 integral evaluation            ...        0 min,  1.511 sec (  5.639%)
 iterations                     ...        0 min, 21.864 sec ( 81.617%)
 molecular gradient             ...        0 min,  3.076 sec ( 11.485%)
 printout                       ...        0 min,  0.283 sec (  1.058%)

         :::::::::::::::::::::::::::::::::::::::::::::::::::::
         ::                     SUMMARY                     ::
         :::::::::::::::::::::::::::::::::::::::::::::::::::::
         :: total energy            -870.152308267191 Eh    ::
         :: gradient norm              0.107385938011 Eh/a0 ::
         :: HOMO-LUMO gap              0.945968910538 eV    ::
         ::.................................................::
         :: SCC energy              -886.100618429705 Eh    ::
         :: -> electrostatic           0.565655662168 Eh    ::
         :: repulsion energy          16.345735161199 Eh    ::
         :: dispersion energy         -0.397424998685 Eh    ::
         :: halogen bond corr.         0.000000000000 Eh    ::
         :: add. restraining           0.000000000000 Eh    ::
         :: total charge               0.000000000009 e     ::
         :::::::::::::::::::::::::::::::::::::::::::::::::::::

           ------------------------------------------------- 
          |        vertical delta SCC IP calculation        |
           ------------------------------------------------- 
   1   -885.7120346 -0.885712E+03  0.621E-02    0.95       0.0  T
   2   -885.7034160  0.861855E-02  0.871E-02    0.88       1.0  T
   3   -885.7186607 -0.152447E-01  0.371E-02    0.94       1.0  T
   4   -885.7203192 -0.165855E-02  0.217E-02    0.94       1.0  T
   5   -885.7194112  0.908052E-03  0.222E-02    0.93       1.0  T
   6   -885.7194569 -0.457290E-04  0.210E-02    0.93       1.0  T
   7   -885.7207258 -0.126891E-02  0.946E-03    0.94       1.0  T
   8   -885.7208325 -0.106722E-03  0.421E-03    0.94       1.1  T
   9   -885.7208683 -0.357500E-04  0.125E-03    0.93       3.8  T
  10   -885.7208697 -0.145327E-05  0.677E-04    0.94       6.9  T
  11   -885.7208702 -0.441534E-06  0.357E-04    0.93      13.2  T
  12   -885.7208703 -0.152955E-06  0.136E-04    0.93      34.5  T
  13   -885.7208704 -0.146680E-07  0.747E-05    0.93      62.8  T
     SCC iter.                  ...        0 min, 18.918 sec
     gradient                   ...        0 min,  3.045 sec
------------------------------------------------------------------------
empirical IP shift (eV):    4.8455
delta SCC IP (eV):    5.4880
------------------------------------------------------------------------
           ------------------------------------------------- 
          |        vertical delta SCC EA calculation        |
           ------------------------------------------------- 
   1   -886.3820670 -0.886382E+03  0.100E-01    0.23       0.0  T
   2   -886.3924411 -0.103741E-01  0.908E-02    0.06       1.0  T
   3   -886.4021511 -0.971004E-02  0.497E-02    0.14       1.0  T
   4   -886.4026756 -0.524537E-03  0.417E-02    0.08       1.0  T
   5   -886.4029364 -0.260809E-03  0.297E-02    0.10       1.0  T
   6   -886.4007729  0.216352E-02  0.340E-02    0.11       1.0  T
   7   -886.4047221 -0.394921E-02  0.115E-02    0.09       1.0  T
   8   -886.4049350 -0.212892E-03  0.550E-03    0.10       1.0  T
   9   -886.4049783 -0.432947E-04  0.299E-03    0.09       1.6  T
  10   -886.4049973 -0.189727E-04  0.915E-04    0.09       5.1  T
  11   -886.4049977 -0.406746E-06  0.599E-04    0.09       7.8  T
  12   -886.4049981 -0.446814E-06  0.305E-04    0.09      15.4  T
  13   -886.4049982 -0.709699E-07  0.863E-05    0.09      54.4  T
  14   -886.4049982 -0.489922E-08  0.557E-05    0.09      84.2  T
     SCC iter.                  ...        0 min, 20.356 sec
     gradient                   ...        0 min,  3.052 sec
------------------------------------------------------------------------
empirical EA shift (eV):    4.8455
delta SCC EA (eV):    3.4371
------------------------------------------------------------------------
           -------------------------------------------------
          |                Property Printout                |
           -------------------------------------------------

    * Orbital Energies and Occupations

         #    Occupation            Energy/Eh            Energy/eV
      -------------------------------------------------------------
         1        2.0000           -1.0279005             -27.9706
       ...           ...                  ...                  ...
       678        2.0000           -0.3617840              -9.8446
       679        2.0000           -0.3606922              -9.8149
       680        2.0000           -0.3524898              -9.5917
       681        2.0000           -0.3517687              -9.5721
       682        2.0000           -0.3488803              -9.4935
       683        2.0000           -0.3487191              -9.4891
       684        2.0000           -0.3452788              -9.3955
       685        2.0000           -0.3444172              -9.3721
       686        2.0000           -0.3418312              -9.3017
       687        2.0000           -0.3359798              -9.1425
       688        2.0000           -0.3277545              -8.9187
       689        2.0000           -0.3196631              -8.6985
       690        0.8444           -0.2852143              -7.7611 (HOMO)
       691        0.1365           -0.2818552              -7.6697 (LUMO)
       692        0.0180           -0.2798088              -7.6140
       693        0.0006           -0.2766230              -7.5273
       694        0.0003           -0.2759497              -7.5090
       695        0.0001           -0.2749347              -7.4814
       696        0.0000           -0.2688564              -7.3160
       697                         -0.2666692              -7.2564
       698                         -0.2658408              -7.2339
       699                         -0.2634868              -7.1698
       700                         -0.2630301              -7.1574
       701                         -0.2589446              -7.0462
       ...                                ...                  ...
      1760                        603.8141813           16430.6202
      -------------------------------------------------------------
                  HL-Gap            0.0033591 Eh            0.0914 eV
             Fermi-level           -0.2930307 Eh           -7.9738 eV

  Mulliken/CM5 charges         n(s)   n(p)   n(d)
     1C    -0.02395 -0.06473   1.089  2.935  0.000
     2C     0.06180  0.12222   1.108  2.830  0.000
     3C    -0.03489 -0.08016   1.083  2.951  0.000
     4C    -0.03095 -0.07558   1.077  2.954  0.000
     5C     0.06448  0.12794   1.101  2.835  0.000
     6N    -0.15738 -0.51111   1.306  3.852  0.000
     7C     0.01755  0.02432   1.085  2.897  0.000
     8C     0.06225  0.13022   1.114  2.824  0.000
     9C    -0.03578 -0.08164   1.083  2.953  0.000
    10C    -0.03693 -0.08238   1.093  2.944  0.000
    11N    -0.28191 -0.46914   1.281  4.001  0.000
    12C     0.06412  0.13471   1.131  2.805  0.000
    13C     0.01648  0.02377   1.086  2.898  0.000
    14C     0.06634  0.13117   1.112  2.821  0.000
    15C    -0.03227 -0.07670   1.083  2.950  0.000
    16C    -0.03056 -0.07520   1.076  2.955  0.000
    17C     0.06414  0.12708   1.099  2.837  0.000
    18C     0.01726  0.02407   1.085  2.898  0.000
    19C    -0.00955 -0.00838   1.051  2.959  0.000
    20C     0.09564  0.11492   1.107  2.797  0.000
    21O    -0.23867 -0.32807   1.604  4.634  0.000
    22C     0.03544 -0.08434   1.106  2.858  0.000
    23C    -0.04329 -0.09350   1.078  2.965  0.000
    24C    -0.03154 -0.08691   1.088  2.943  0.000
    25C    -0.04626 -0.09827   1.047  3.000  0.000
    26C     0.09456  0.11372   1.108  2.797  0.000
    27O    -0.23180 -0.32120   1.612  4.620  0.000
    28C     0.03428 -0.08648   1.108  2.857  0.000
    29C     0.06298  0.13191   1.117  2.820  0.000
    30C    -0.03614 -0.08198   1.085  2.951  0.000
    31C    -0.03949 -0.08585   1.093  2.946  0.000
    32C     0.05893  0.12476   1.127  2.814  0.000
    33N    -0.28434 -0.47200   1.281  4.004  0.000
    34N    -0.15509 -0.50814   1.307  3.848  0.000
    35C    -0.00929 -0.00813   1.051  2.958  0.000
    36C     0.09523  0.11445   1.107  2.798  0.000
    37O    -0.23993 -0.32927   1.604  4.636  0.000
    38C     0.03540 -0.08443   1.107  2.858  0.000
    39C    -0.04327 -0.09350   1.078  2.965  0.000
    40C    -0.03159 -0.08697   1.088  2.944  0.000
    41C    -0.04603 -0.09804   1.047  2.999  0.000
    42C     0.09471  0.11385   1.108  2.797  0.000
    43O    -0.23163 -0.32106   1.612  4.619  0.000
    44C     0.03437 -0.08640   1.108  2.857  0.000
    45H     0.02837  0.08730   0.972  0.000  0.000
    46H     0.03826  0.09491   0.962  0.000  0.000
    47H     0.03159  0.09049   0.968  0.000  0.000
    48H     0.16322  0.37159   0.837  0.000  0.000
    49H     0.02350  0.08255   0.976  0.000  0.000
    50H     0.02458  0.08258   0.975  0.000  0.000
    51H     0.03463  0.09266   0.965  0.000  0.000
    52H     0.03274  0.09166   0.967  0.000  0.000
    53H     0.02677  0.08905   0.973  0.000  0.000
    54H     0.04324  0.10338   0.957  0.000  0.000
    55H     0.02871  0.09064   0.971  0.000  0.000
    56H     0.03421  0.09416   0.966  0.000  0.000
    57H     0.03225  0.08827   0.968  0.000  0.000
    58H     0.03424  0.09382   0.966  0.000  0.000
    59H     0.04557  0.10586   0.954  0.000  0.000
    60H     0.03460  0.09350   0.965  0.000  0.000
    61H     0.03592  0.09478   0.964  0.000  0.000
    62H     0.02262  0.08152   0.977  0.000  0.000
    63H     0.02851  0.08491   0.971  0.000  0.000
    64H     0.16201  0.37037   0.838  0.000  0.000
    65H     0.03014  0.09202   0.970  0.000  0.000
    66H     0.04314  0.10326   0.957  0.000  0.000
    67H     0.02564  0.08791   0.974  0.000  0.000
    68H     0.03400  0.09391   0.966  0.000  0.000
    69H     0.03218  0.08819   0.968  0.000  0.000
    70H     0.03434  0.09393   0.966  0.000  0.000
    71H     0.03442  0.09325   0.966  0.000  0.000
    72H     0.04590  0.10620   0.954  0.000  0.000
    73H     0.03626  0.09519   0.964  0.000  0.000
    74C    -0.02420 -0.06497   1.089  2.936  0.000
    75C     0.06178  0.12219   1.108  2.830  0.000
    76C    -0.03497 -0.08025   1.083  2.952  0.000
    77C    -0.03084 -0.07546   1.077  2.954  0.000
    78C     0.06441  0.12784   1.101  2.835  0.000
    79N    -0.15749 -0.51124   1.306  3.852  0.000
    80C     0.01761  0.02441   1.085  2.897  0.000
    81C     0.06208  0.13004   1.114  2.824  0.000
    82C    -0.03569 -0.08149   1.083  2.953  0.000
    83C    -0.03700 -0.08245   1.092  2.945  0.000
    84N    -0.28185 -0.46907   1.281  4.001  0.000
    85C     0.06409  0.13471   1.131  2.805  0.000
    86C     0.01640  0.02369   1.086  2.898  0.000
    87C     0.06622  0.13107   1.112  2.821  0.000
    88C    -0.03249 -0.07692   1.082  2.950  0.000
    89C    -0.03088 -0.07554   1.075  2.955  0.000
    90C     0.06389  0.12681   1.099  2.838  0.000
    91C     0.01706  0.02386   1.085  2.898  0.000
    92C    -0.00955 -0.00839   1.051  2.959  0.000
    93C     0.09571  0.11499   1.107  2.797  0.000
    94O    -0.23843 -0.32788   1.604  4.634  0.000
    95C     0.03547 -0.08434   1.106  2.858  0.000
    96C    -0.04345 -0.09365   1.078  2.965  0.000
    97C    -0.03173 -0.08710   1.088  2.944  0.000
    98C    -0.04648 -0.09848   1.047  3.000  0.000
    99C     0.09449  0.11366   1.108  2.797  0.000
   100O    -0.23180 -0.32119   1.612  4.620  0.000
   101C     0.03430 -0.08645   1.108  2.857  0.000
   102C     0.06278  0.13174   1.117  2.821  0.000
   103C    -0.03633 -0.08218   1.085  2.951  0.000
   104C    -0.03965 -0.08600   1.093  2.946  0.000
   105C     0.05882  0.12463   1.127  2.814  0.000
   106N    -0.28453 -0.47217   1.281  4.004  0.000
   107N    -0.15508 -0.50811   1.307  3.848  0.000
   108C    -0.00895 -0.00778   1.052  2.957  0.000
   109C     0.09503  0.11418   1.107  2.798  0.000
   110O    -0.24089 -0.33017   1.604  4.637  0.000
   111C     0.03548 -0.08437   1.107  2.858  0.000
   112C    -0.04294 -0.09319   1.078  2.965  0.000
   113C    -0.03148 -0.08686   1.088  2.943  0.000
   114C    -0.04573 -0.09775   1.047  2.999  0.000
   115C     0.09475  0.11385   1.108  2.797  0.000
   116O    -0.23164 -0.32117   1.612  4.620  0.000
   117C     0.03441 -0.08636   1.108  2.857  0.000
   118H     0.02809  0.08702   0.972  0.000  0.000
   119H     0.03803  0.09468   0.962  0.000  0.000
   120H     0.03136  0.09032   0.969  0.000  0.000
   121H     0.16302  0.37139   0.837  0.000  0.000
   122H     0.02357  0.08276   0.976  0.000  0.000
   123H     0.02471  0.08270   0.975  0.000  0.000
   124H     0.03421  0.09225   0.966  0.000  0.000
   125H     0.03225  0.09119   0.968  0.000  0.000
   126H     0.02706  0.08931   0.973  0.000  0.000
   127H     0.04327  0.10342   0.957  0.000  0.000
   128H     0.02872  0.09068   0.971  0.000  0.000
   129H     0.03394  0.09389   0.966  0.000  0.000
   130H     0.03191  0.08792   0.968  0.000  0.000
   131H     0.03394  0.09351   0.966  0.000  0.000
   132H     0.04548  0.10577   0.955  0.000  0.000
   133H     0.03450  0.09340   0.965  0.000  0.000
   134H     0.03562  0.09447   0.964  0.000  0.000
   135H     0.02232  0.08120   0.978  0.000  0.000
   136H     0.02823  0.08462   0.972  0.000  0.000
   137H     0.16193  0.37028   0.838  0.000  0.000
   138H     0.03039  0.09225   0.970  0.000  0.000
   139H     0.04291  0.10299   0.957  0.000  0.000
   140H     0.02535  0.08763   0.975  0.000  0.000
   141H     0.03410  0.09397   0.966  0.000  0.000
   142H     0.03226  0.08827   0.968  0.000  0.000
   143H     0.03439  0.09397   0.966  0.000  0.000
   144H     0.03437  0.09319   0.966  0.000  0.000
   145H     0.04571  0.10600   0.954  0.000  0.000
   146H     0.03635  0.09529   0.964  0.000  0.000
   147C    -0.01954 -0.02037   1.062  2.958  0.000
   148C    -0.02195 -0.02353   1.089  2.933  0.000
   149C    -0.02411 -0.02493   1.058  2.966  0.000
   150C    -0.01698 -0.01854   1.095  2.922  0.000
   151C    -0.02245 -0.02326   1.060  2.962  0.000
   152C    -0.02194 -0.02351   1.089  2.933  0.000
   153C    -0.02453 -0.02535   1.059  2.966  0.000
   154C    -0.02021 -0.02177   1.092  2.928  0.000
   155C    -0.02357 -0.02439   1.059  2.964  0.000
   156C    -0.02104 -0.02260   1.090  2.931  0.000
   157C    -0.02369 -0.02451   1.059  2.964  0.000
   158C    -0.02126 -0.02282   1.090  2.931  0.000
   159C    -0.02433 -0.02515   1.059  2.966  0.000
   160C    -0.02010 -0.02166   1.091  2.929  0.000
   161C    -0.02267 -0.02349   1.060  2.962  0.000
   162C    -0.02209 -0.02365   1.089  2.933  0.000
   163C    -0.02412 -0.02494   1.058  2.966  0.000
   164C    -0.01702 -0.01858   1.094  2.923  0.000
   165C    -0.01975 -0.02057   1.062  2.958  0.000
   166C    -0.02216 -0.02374   1.089  2.934  0.000
   167C     0.01175  0.01906   1.082  2.907  0.000
   168C     0.06562  0.13053   1.111  2.823  0.000
   169C    -0.03570 -0.08008   1.080  2.956  0.000
   170C    -0.03157 -0.07572   1.077  2.954  0.000
   171C     0.06283  0.12726   1.102  2.835  0.000
   172N    -0.15630 -0.50876   1.312  3.844  0.000
   173C     0.01836  0.02731   1.096  2.886  0.000
   174C     0.06034  0.12919   1.120  2.820  0.000
   175C    -0.03662 -0.08181   1.086  2.951  0.000
   176C    -0.03910 -0.08448   1.091  2.948  0.000
   177N    -0.28401 -0.47034   1.293  3.991  0.000
   178C     0.06407  0.13504   1.131  2.805  0.000
   179C     0.01532  0.02261   1.085  2.900  0.000
   180C     0.06580  0.13079   1.112  2.822  0.000
   181C    -0.03419 -0.07861   1.080  2.954  0.000
   182C    -0.03197 -0.07662   1.075  2.957  0.000
   183C     0.06227  0.12521   1.096  2.842  0.000
   184C     0.01894  0.02562   1.086  2.895  0.000
   185C    -0.00920 -0.00809   1.050  2.959  0.000
   186C     0.09470  0.11386   1.108  2.797  0.000
   187O    -0.23148 -0.32082   1.612  4.619  0.000
   188C     0.03458 -0.08616   1.108  2.857  0.000
   189C    -0.04680 -0.09881   1.046  3.001  0.000
   190C    -0.03202 -0.08740   1.088  2.944  0.000
   191C    -0.04380 -0.09399   1.078  2.966  0.000
   192C     0.09625  0.11562   1.107  2.797  0.000
   193O    -0.23770 -0.32722   1.605  4.633  0.000
   194C     0.03585 -0.08394   1.106  2.859  0.000
   195C     0.06061  0.12837   1.112  2.828  0.000
   196C    -0.03682 -0.08272   1.084  2.953  0.000
   197C    -0.03952 -0.08497   1.092  2.948  0.000
   198C     0.06331  0.13405   1.131  2.806  0.000
   199N    -0.28259 -0.46957   1.280  4.003  0.000
   200N    -0.15412 -0.50742   1.307  3.847  0.000
   201C    -0.00785 -0.00540   1.069  2.939  0.000
   202C     0.09556  0.11462   1.105  2.800  0.000
   203O    -0.23065 -0.32059   1.610  4.620  0.000
   204C     0.03478 -0.08605   1.108  2.858  0.000
   205C    -0.04669 -0.09877   1.048  2.998  0.000
   206C    -0.03254 -0.08808   1.089  2.943  0.000
   207C    -0.04628 -0.09836   1.048  2.998  0.000
   208C     0.09652  0.11556   1.106  2.798  0.000
   209O    -0.22930 -0.31941   1.611  4.618  0.000
   210C     0.03509 -0.08574   1.108  2.857  0.000
   211H     0.03126  0.08929   0.969  0.000  0.000
   212H     0.02991  0.08997   0.970  0.000  0.000
   213H     0.16268  0.37083   0.837  0.000  0.000
   214H     0.02081  0.08098   0.979  0.000  0.000
   215H     0.02254  0.08053   0.977  0.000  0.000
   216H     0.03296  0.09098   0.967  0.000  0.000
   217H     0.03078  0.08970   0.969  0.000  0.000
   218H     0.04523  0.10553   0.955  0.000  0.000
   219H     0.03465  0.09348   0.965  0.000  0.000
   220H     0.03426  0.09318   0.966  0.000  0.000
   221H     0.03308  0.09265   0.967  0.000  0.000
   222H     0.03089  0.08690   0.969  0.000  0.000
   223H     0.03306  0.09306   0.967  0.000  0.000
   224H     0.04285  0.10305   0.957  0.000  0.000
   225H     0.02856  0.09056   0.971  0.000  0.000
   226H     0.02704  0.08935   0.973  0.000  0.000
   227H     0.02095  0.07987   0.979  0.000  0.000
   228H     0.02071  0.07868   0.979  0.000  0.000
   229H     0.16314  0.37122   0.837  0.000  0.000
   230H     0.03522  0.09412   0.965  0.000  0.000
   231H     0.03506  0.09394   0.965  0.000  0.000
   232H     0.04688  0.10718   0.953  0.000  0.000
   233H     0.03196  0.09151   0.968  0.000  0.000
   234H     0.02998  0.08599   0.970  0.000  0.000
   235H     0.03241  0.09196   0.968  0.000  0.000
   236H     0.03570  0.09466   0.964  0.000  0.000
   237H     0.04638  0.10669   0.954  0.000  0.000
   238H     0.03405  0.09287   0.966  0.000  0.000
   239C     0.01257  0.01986   1.083  2.905  0.000
   240C     0.06560  0.13063   1.111  2.823  0.000
   241C    -0.03584 -0.08021   1.079  2.957  0.000
   242C    -0.03222 -0.07637   1.076  2.956  0.000
   243C     0.06202  0.12638   1.101  2.837  0.000
   244N    -0.15574 -0.50824   1.313  3.843  0.000
   245C     0.01856  0.02751   1.096  2.885  0.000
   246C     0.05976  0.12855   1.119  2.821  0.000
   247C    -0.03692 -0.08212   1.086  2.951  0.000
   248C    -0.03973 -0.08510   1.091  2.949  0.000
   249N    -0.28447 -0.47075   1.293  3.992  0.000
   250C     0.06388  0.13489   1.131  2.805  0.000
   251C     0.01387  0.02116   1.084  2.902  0.000
   252C     0.06562  0.13063   1.112  2.823  0.000
   253C    -0.03502 -0.07944   1.080  2.955  0.000
   254C    -0.03223 -0.07687   1.075  2.957  0.000
   255C     0.06153  0.12446   1.095  2.843  0.000
   256C     0.01983  0.02649   1.087  2.893  0.000
   257C    -0.00909 -0.00798   1.050  2.959  0.000
   258C     0.09474  0.11390   1.108  2.797  0.000
   259O    -0.23142 -0.32074   1.612  4.619  0.000
   260C     0.03468 -0.08606   1.108  2.857  0.000
   261C    -0.04688 -0.09889   1.046  3.001  0.000
   262C    -0.03209 -0.08747   1.088  2.944  0.000
   263C    -0.04386 -0.09404   1.078  2.966  0.000
   264C     0.09644  0.11583   1.107  2.797  0.000
   265O    -0.23747 -0.32703   1.605  4.633  0.000
   266C     0.03597 -0.08383   1.105  2.859  0.000
   267C     0.05964  0.12713   1.111  2.830  0.000
   268C    -0.03711 -0.08303   1.083  2.954  0.000
   269C    -0.03963 -0.08507   1.091  2.949  0.000
   270C     0.06349  0.13448   1.131  2.806  0.000
   271N    -0.28192 -0.46888   1.281  4.001  0.000
   272N    -0.15432 -0.50758   1.307  3.847  0.000
   273C    -0.00762 -0.00516   1.069  2.939  0.000
   274C     0.09569  0.11474   1.105  2.800  0.000
   275O    -0.23035 -0.32030   1.610  4.620  0.000
   276C     0.03491 -0.08591   1.108  2.857  0.000
   277C    -0.04675 -0.09883   1.048  2.999  0.000
   278C    -0.03278 -0.08831   1.089  2.944  0.000
   279C    -0.04646 -0.09854   1.048  2.998  0.000
   280C     0.09651  0.11558   1.106  2.798  0.000
   281O    -0.22919 -0.31925   1.611  4.618  0.000
   282C     0.03513 -0.08569   1.108  2.857  0.000
   283H     0.03165  0.08971   0.968  0.000  0.000
   284H     0.02935  0.08945   0.971  0.000  0.000
   285H     0.16232  0.37043   0.838  0.000  0.000
   286H     0.02009  0.08018   0.980  0.000  0.000
   287H     0.02161  0.07960   0.978  0.000  0.000
   288H     0.03205  0.09007   0.968  0.000  0.000
   289H     0.03017  0.08908   0.970  0.000  0.000
   290H     0.04514  0.10543   0.955  0.000  0.000
   291H     0.03424  0.09307   0.966  0.000  0.000
   292H     0.03432  0.09324   0.966  0.000  0.000
   293H     0.03281  0.09239   0.967  0.000  0.000
   294H     0.03057  0.08659   0.969  0.000  0.000
   295H     0.03281  0.09282   0.967  0.000  0.000
   296H     0.04281  0.10302   0.957  0.000  0.000
   297H     0.02889  0.09092   0.971  0.000  0.000
   298H     0.02691  0.08921   0.973  0.000  0.000
   299H     0.02078  0.07967   0.979  0.000  0.000
   300H     0.02126  0.07920   0.979  0.000  0.000
   301H     0.16298  0.37102   0.837  0.000  0.000
   302H     0.03479  0.09367   0.965  0.000  0.000
   303H     0.03511  0.09399   0.965  0.000  0.000
   304H     0.04703  0.10732   0.953  0.000  0.000
   305H     0.03164  0.09118   0.968  0.000  0.000
   306H     0.02943  0.08544   0.971  0.000  0.000
   307H     0.03193  0.09147   0.968  0.000  0.000
   308H     0.03526  0.09421   0.965  0.000  0.000
   309H     0.04623  0.10654   0.954  0.000  0.000
   310H     0.03386  0.09270   0.966  0.000  0.000
   311C     0.01355  0.02085   1.084  2.903  0.000
   312C     0.06558  0.13060   1.111  2.823  0.000
   313C    -0.03545 -0.07981   1.079  2.957  0.000
   314C    -0.03217 -0.07631   1.076  2.956  0.000
   315C     0.06217  0.12655   1.102  2.836  0.000
   316N    -0.15556 -0.50806   1.313  3.842  0.000
   317C     0.01840  0.02735   1.096  2.885  0.000
   318C     0.05977  0.12855   1.120  2.821  0.000
   319C    -0.03688 -0.08207   1.086  2.951  0.000
   320C    -0.03995 -0.08532   1.090  2.949  0.000
   321N    -0.28474 -0.47101   1.292  3.992  0.000
   322C     0.06386  0.13485   1.131  2.805  0.000
   323C     0.01296  0.02025   1.083  2.904  0.000
   324C     0.06557  0.13058   1.112  2.823  0.000
   325C    -0.03544 -0.07986   1.080  2.956  0.000
   326C    -0.03229 -0.07691   1.075  2.957  0.000
   327C     0.06139  0.12437   1.095  2.843  0.000
   328C     0.01997  0.02662   1.087  2.893  0.000
   329C    -0.00911 -0.00801   1.050  2.959  0.000
   330C     0.09472  0.11387   1.108  2.797  0.000
   331O    -0.23146 -0.32076   1.612  4.620  0.000
   332C     0.03467 -0.08607   1.108  2.857  0.000
   333C    -0.04692 -0.09893   1.046  3.001  0.000
   334C    -0.03211 -0.08748   1.088  2.945  0.000
   335C    -0.04390 -0.09408   1.078  2.966  0.000
   336C     0.09654  0.11596   1.107  2.796  0.000
   337O    -0.23731 -0.32688   1.605  4.632  0.000
   338C     0.03599 -0.08380   1.105  2.859  0.000
   339C     0.05961  0.12704   1.111  2.830  0.000
   340C    -0.03711 -0.08308   1.083  2.954  0.000
   341C    -0.03934 -0.08479   1.091  2.948  0.000
   342C     0.06356  0.13455   1.131  2.806  0.000
   343N    -0.28156 -0.46856   1.281  4.001  0.000
   344N    -0.15453 -0.50777   1.307  3.847  0.000
   345C    -0.00764 -0.00519   1.069  2.939  0.000
   346C     0.09571  0.11476   1.105  2.800  0.000
   347O    -0.23032 -0.32031   1.610  4.620  0.000
   348C     0.03494 -0.08588   1.108  2.858  0.000
   349C    -0.04671 -0.09879   1.048  2.999  0.000
   350C    -0.03277 -0.08830   1.089  2.944  0.000
   351C    -0.04649 -0.09857   1.048  2.998  0.000
   352C     0.09647  0.11553   1.106  2.798  0.000
   353O    -0.22925 -0.31934   1.611  4.618  0.000
   354C     0.03514 -0.08568   1.108  2.857  0.000
   355H     0.03211  0.09015   0.968  0.000  0.000
   356H     0.02948  0.08960   0.971  0.000  0.000
   357H     0.16227  0.37037   0.838  0.000  0.000
   358H     0.01996  0.08010   0.980  0.000  0.000
   359H     0.02123  0.07923   0.979  0.000  0.000
   360H     0.03159  0.08959   0.968  0.000  0.000
   361H     0.02999  0.08887   0.970  0.000  0.000
   362H     0.04520  0.10549   0.955  0.000  0.000
   363H     0.03407  0.09290   0.966  0.000  0.000
   364H     0.03452  0.09344   0.965  0.000  0.000
   365H     0.03280  0.09237   0.967  0.000  0.000
   366H     0.03054  0.08655   0.969  0.000  0.000
   367H     0.03277  0.09280   0.967  0.000  0.000
   368H     0.04285  0.10308   0.957  0.000  0.000
   369H     0.02907  0.09114   0.971  0.000  0.000
   370H     0.02684  0.08915   0.973  0.000  0.000
   371H     0.02091  0.07979   0.979  0.000  0.000
   372H     0.02168  0.07964   0.978  0.000  0.000
   373H     0.16301  0.37105   0.837  0.000  0.000
   374H     0.03465  0.09354   0.965  0.000  0.000
   375H     0.03532  0.09421   0.965  0.000  0.000
   376H     0.04711  0.10741   0.953  0.000  0.000
   377H     0.03169  0.09124   0.968  0.000  0.000
   378H     0.02942  0.08543   0.971  0.000  0.000
   379H     0.03184  0.09138   0.968  0.000  0.000
   380H     0.03504  0.09399   0.965  0.000  0.000
   381H     0.04608  0.10639   0.954  0.000  0.000
   382H     0.03393  0.09276   0.966  0.000  0.000
   383C     0.01481  0.02210   1.085  2.900  0.000
   384C     0.06577  0.13077   1.111  2.823  0.000
   385C    -0.03467 -0.07904   1.079  2.955  0.000
   386C    -0.03186 -0.07601   1.076  2.956  0.000
   387C     0.06292  0.12731   1.102  2.835  0.000
   388N    -0.15533 -0.50784   1.313  3.842  0.000
   389C     0.01794  0.02690   1.096  2.886  0.000
   390C     0.06069  0.12970   1.120  2.819  0.000
   391C    -0.03641 -0.08161   1.087  2.950  0.000
   392C    -0.03977 -0.08516   1.091  2.948  0.000
   393N    -0.28539 -0.47164   1.292  3.994  0.000
   394C     0.06372  0.13446   1.131  2.805  0.000
   395C     0.01205  0.01936   1.082  2.906  0.000
   396C     0.06555  0.13047   1.112  2.823  0.000
   397C    -0.03563 -0.08006   1.080  2.955  0.000
   398C    -0.03214 -0.07676   1.076  2.957  0.000
   399C     0.06187  0.12491   1.096  2.842  0.000
   400C     0.01965  0.02630   1.086  2.894  0.000
   401C    -0.00931 -0.00821   1.050  2.959  0.000
   402C     0.09462  0.11378   1.108  2.798  0.000
   403O    -0.23160 -0.32089   1.612  4.620  0.000
   404C     0.03457 -0.08617   1.108  2.857  0.000
   405C    -0.04699 -0.09900   1.046  3.001  0.000
   406C    -0.03212 -0.08750   1.088  2.944  0.000
   407C    -0.04402 -0.09419   1.078  2.966  0.000
   408C     0.09651  0.11593   1.107  2.797  0.000
   409O    -0.23718 -0.32676   1.605  4.632  0.000
   410C     0.03589 -0.08391   1.105  2.859  0.000
   411C     0.05996  0.12742   1.111  2.829  0.000
   412C    -0.03705 -0.08302   1.083  2.954  0.000
   413C    -0.03890 -0.08435   1.091  2.948  0.000
   414C     0.06368  0.13465   1.131  2.805  0.000
   415N    -0.28119 -0.46827   1.281  4.000  0.000
   416N    -0.15509 -0.50827   1.306  3.849  0.000
   417C    -0.00781 -0.00536   1.069  2.939  0.000
   418C     0.09570  0.11476   1.105  2.800  0.000
   419O    -0.23043 -0.32035   1.610  4.620  0.000
   420C     0.03487 -0.08595   1.108  2.858  0.000
   421C    -0.04655 -0.09862   1.048  2.998  0.000
   422C    -0.03260 -0.08813   1.089  2.944  0.000
   423C    -0.04641 -0.09849   1.048  2.998  0.000
   424C     0.09633  0.11536   1.106  2.798  0.000
   425O    -0.22953 -0.31961   1.611  4.619  0.000
   426C     0.03502 -0.08580   1.108  2.857  0.000
   427H     0.03298  0.09102   0.967  0.000  0.000
   428H     0.03017  0.09024   0.970  0.000  0.000
   429H     0.16240  0.37053   0.838  0.000  0.000
   430H     0.02069  0.08086   0.979  0.000  0.000
   431H     0.02112  0.07910   0.979  0.000  0.000
   432H     0.03057  0.08859   0.969  0.000  0.000
   433H     0.02990  0.08878   0.970  0.000  0.000
   434H     0.04533  0.10562   0.955  0.000  0.000
   435H     0.03394  0.09278   0.966  0.000  0.000
   436H     0.03494  0.09386   0.965  0.000  0.000
   437H     0.03299  0.09256   0.967  0.000  0.000
   438H     0.03072  0.08674   0.969  0.000  0.000
   439H     0.03285  0.09288   0.967  0.000  0.000
   440H     0.04305  0.10329   0.957  0.000  0.000
   441H     0.02942  0.09152   0.971  0.000  0.000
   442H     0.02676  0.08905   0.973  0.000  0.000
   443H     0.02135  0.08021   0.979  0.000  0.000
   444H     0.02240  0.08035   0.978  0.000  0.000
   445H     0.16334  0.37142   0.837  0.000  0.000
   446H     0.03486  0.09376   0.965  0.000  0.000
   447H     0.03563  0.09450   0.964  0.000  0.000
   448H     0.04725  0.10754   0.953  0.000  0.000
   449H     0.03210  0.09164   0.968  0.000  0.000
   450H     0.02985  0.08586   0.970  0.000  0.000
   451H     0.03211  0.09166   0.968  0.000  0.000
   452H     0.03514  0.09409   0.965  0.000  0.000
   453H     0.04593  0.10624   0.954  0.000  0.000
   454H     0.03428  0.09311   0.966  0.000  0.000

Wiberg/Mayer (AO) data.
largest (>0.10) Wiberg bond orders for each atom

 ---------------------------------------------------------------------------
     #   Z sym  total        # sym  WBO       # sym  WBO       # sym  WBO
 ---------------------------------------------------------------------------
     1   6 C    3.817 --    32 C    1.383     2 C    1.376    45 H    0.996
     2   6 C    3.923 --     1 C    1.376     3 C    1.240     6 N    1.230
     3   6 C    3.839 --     4 C    1.601     2 C    1.240    46 H    0.994
     4   6 C    3.825 --     3 C    1.601     5 C    1.249    47 H    0.999
     5   6 C    3.896 --     7 C    1.351     4 C    1.249     6 N    1.225
     6   7 N    3.225 --     2 C    1.230     5 C    1.225    48 H    0.962
     7   6 C    3.816 --     8 C    1.373     5 C    1.351    35 C    1.027
     8   6 C    3.918 --     7 C    1.373    11 N    1.356     9 C    1.160
     9   6 C    3.834 --    10 C    1.694     8 C    1.160    49 H    0.998
    10   6 C    3.850 --     9 C    1.694    12 C    1.166    50 H    1.000
    11   7 N    2.522 --    12 C    1.405     8 C    1.356
    12   6 C    3.945 --    11 N    1.405    13 C    1.298    10 C    1.166
    13   6 C    3.848 --    12 C    1.298    14 C    1.298   148 C    1.200
    14   6 C    3.905 --    13 C    1.298    15 C    1.264    34 N    1.247
    15   6 C    3.834 --    16 C    1.589    14 C    1.264    51 H    0.999
    16   6 C    3.819 --    15 C    1.589    17 C    1.255    52 H    0.998
    17   6 C    3.891 --    18 C    1.352    16 C    1.255    34 N    1.219
    18   6 C    3.805 --    29 C    1.366    17 C    1.352    19 C    1.027
    19   6 C    3.814 --    20 C    1.410    26 C    1.355    18 C    1.027
    20   6 C    3.921 --    19 C    1.410    23 C    1.361    21 O    1.114
    21   8 O    2.173 --    20 C    1.114    22 C    0.976
    22   6 C    3.890 --    55 H    1.003    53 H    0.999    54 H    0.984
                            21 O    0.976
    23   6 C    3.899 --    24 C    1.469    20 C    1.361    56 H    0.984
    24   6 C    3.919 --    23 C    1.469    25 C    1.414    57 H    0.985
    25   6 C    3.827 --    24 C    1.414    26 C    1.407    58 H    0.988
    26   6 C    3.921 --    25 C    1.407    19 C    1.355    27 O    1.118
    27   8 O    2.194 --    26 C    1.118    28 C    0.983
    28   6 C    3.914 --    60 H    0.996    61 H    0.996    59 H    0.986
                            27 O    0.983
    29   6 C    3.936 --    33 N    1.375    18 C    1.366    30 C    1.153
    30   6 C    3.838 --    31 C    1.706    29 C    1.153    62 H    0.999
    31   6 C    3.860 --    30 C    1.706    32 C    1.148    63 H    0.995
    32   6 C    3.966 --     1 C    1.383    33 N    1.375    31 C    1.148
    33   7 N    2.510 --    32 C    1.375    29 C    1.375
    34   7 N    3.236 --    14 C    1.247    17 C    1.219    64 H    0.961
    35   6 C    3.815 --    36 C    1.410    42 C    1.356     7 C    1.027
    36   6 C    3.922 --    35 C    1.410    39 C    1.362    37 O    1.113
    37   8 O    2.169 --    36 C    1.113    38 C    0.976
    38   6 C    3.890 --    65 H    1.003    67 H    0.999    66 H    0.984
                            37 O    0.976
    39   6 C    3.899 --    40 C    1.468    36 C    1.362    68 H    0.984
    40   6 C    3.919 --    39 C    1.468    41 C    1.415    69 H    0.985
    41   6 C    3.827 --    40 C    1.415    42 C    1.407    70 H    0.988
    42   6 C    3.922 --    41 C    1.407    35 C    1.356    43 O    1.119
    43   8 O    2.194 --    42 C    1.119    44 C    0.983
    44   6 C    3.912 --    71 H    0.996    73 H    0.996    72 H    0.986
                            43 O    0.983
    45   1 H    1.031 --     1 C    0.996
    46   1 H    1.015 --     3 C    0.994
    47   1 H    1.031 --     4 C    0.999
    48   1 H    1.080 --     6 N    0.962
    49   1 H    1.034 --     9 C    0.998
    50   1 H    1.025 --    10 C    1.000
    51   1 H    1.024 --    15 C    0.999
    52   1 H    1.030 --    16 C    0.998
    53   1 H    1.047 --    22 C    0.999
    54   1 H    1.042 --    22 C    0.984
    55   1 H    1.044 --    22 C    1.003
    56   1 H    1.025 --    23 C    0.984
    57   1 H    1.021 --    24 C    0.985
    58   1 H    1.019 --    25 C    0.988
    59   1 H    1.037 --    28 C    0.986
    60   1 H    1.027 --    28 C    0.996
    61   1 H    1.027 --    28 C    0.996
    62   1 H    1.035 --    30 C    0.999
    63   1 H    1.016 --    31 C    0.995
    64   1 H    1.082 --    34 N    0.961
    65   1 H    1.042 --    38 C    1.003
    66   1 H    1.042 --    38 C    0.984
    67   1 H    1.047 --    38 C    0.999
    68   1 H    1.025 --    39 C    0.984
    69   1 H    1.021 --    40 C    0.985
    70   1 H    1.019 --    41 C    0.988
    71   1 H    1.028 --    44 C    0.996
    72   1 H    1.037 --    44 C    0.986
    73   1 H    1.026 --    44 C    0.996
    74   6 C    3.816 --   105 C    1.383    75 C    1.376   118 H    0.996
    75   6 C    3.924 --    74 C    1.376    76 C    1.240    79 N    1.230
    76   6 C    3.839 --    77 C    1.601    75 C    1.240   119 H    0.994
    77   6 C    3.825 --    76 C    1.601    78 C    1.249   120 H    0.999
    78   6 C    3.896 --    80 C    1.351    77 C    1.249    79 N    1.225
    79   7 N    3.224 --    75 C    1.230    78 C    1.225   121 H    0.962
    80   6 C    3.817 --    81 C    1.373    78 C    1.351   108 C    1.029
    81   6 C    3.917 --    80 C    1.373    84 N    1.355    82 C    1.161
    82   6 C    3.833 --    83 C    1.693    81 C    1.161   122 H    0.998
    83   6 C    3.850 --    82 C    1.693    85 C    1.167   123 H    1.000
    84   7 N    2.522 --    85 C    1.406    81 C    1.355
    85   6 C    3.944 --    84 N    1.406    86 C    1.296    83 C    1.167
    86   6 C    3.847 --    85 C    1.296    87 C    1.296   166 C    1.204
    87   6 C    3.904 --    86 C    1.296    88 C    1.265   107 N    1.247
    88   6 C    3.833 --    89 C    1.588    87 C    1.265   124 H    0.999
    89   6 C    3.818 --    88 C    1.588    90 C    1.256   125 H    0.998
    90   6 C    3.891 --    91 C    1.352    89 C    1.256   107 N    1.219
    91   6 C    3.804 --   102 C    1.366    90 C    1.352    92 C    1.027
    92   6 C    3.814 --    93 C    1.410    99 C    1.355    91 C    1.027
    93   6 C    3.921 --    92 C    1.410    96 C    1.360    94 O    1.115
    94   8 O    2.174 --    93 C    1.115    95 C    0.976
    95   6 C    3.890 --   128 H    1.003   126 H    0.999   127 H    0.984
                            94 O    0.976
    96   6 C    3.899 --    97 C    1.469    93 C    1.360   129 H    0.984
    97   6 C    3.919 --    96 C    1.469    98 C    1.414   130 H    0.985
    98   6 C    3.827 --    97 C    1.414    99 C    1.408   131 H    0.988
    99   6 C    3.921 --    98 C    1.408    92 C    1.355   100 O    1.118
   100   8 O    2.194 --    99 C    1.118   101 C    0.983
   101   6 C    3.913 --   133 H    0.996   134 H    0.996   132 H    0.986
                           100 O    0.983
   102   6 C    3.936 --   106 N    1.374    91 C    1.366   103 C    1.153
   103   6 C    3.838 --   104 C    1.706   102 C    1.153   135 H    0.999
   104   6 C    3.860 --   103 C    1.706   105 C    1.148   136 H    0.995
   105   6 C    3.966 --    74 C    1.383   106 N    1.375   104 C    1.148
   106   7 N    2.508 --   105 C    1.375   102 C    1.374
   107   7 N    3.236 --    87 C    1.247    90 C    1.219   137 H    0.961
   108   6 C    3.817 --   109 C    1.409   115 C    1.356    80 C    1.029
   109   6 C    3.922 --   108 C    1.409   112 C    1.364   110 O    1.111
   110   8 O    2.165 --   109 C    1.111   111 C    0.975
   111   6 C    3.891 --   138 H    1.003   140 H    0.999   139 H    0.984
                           110 O    0.975
   112   6 C    3.898 --   113 C    1.466   109 C    1.364   141 H    0.984
   113   6 C    3.918 --   112 C    1.466   114 C    1.416   142 H    0.985
   114   6 C    3.827 --   113 C    1.416   115 C    1.406   143 H    0.988
   115   6 C    3.922 --   114 C    1.406   108 C    1.356   116 O    1.119
   116   8 O    2.194 --   115 C    1.119   117 C    0.983
   117   6 C    3.912 --   144 H    0.996   146 H    0.996   145 H    0.986
                           116 O    0.983
   118   1 H    1.031 --    74 C    0.996
   119   1 H    1.015 --    76 C    0.994
   120   1 H    1.031 --    77 C    0.999
   121   1 H    1.081 --    79 N    0.962
   122   1 H    1.034 --    82 C    0.998
   123   1 H    1.026 --    83 C    1.000
   124   1 H    1.025 --    88 C    0.999
   125   1 H    1.030 --    89 C    0.998
   126   1 H    1.047 --    95 C    0.999
   127   1 H    1.042 --    95 C    0.984
   128   1 H    1.045 --    95 C    1.003
   129   1 H    1.025 --    96 C    0.984
   130   1 H    1.021 --    97 C    0.985
   131   1 H    1.019 --    98 C    0.988
   132   1 H    1.037 --   101 C    0.986
   133   1 H    1.027 --   101 C    0.996
   134   1 H    1.027 --   101 C    0.996
   135   1 H    1.035 --   103 C    0.999
   136   1 H    1.016 --   104 C    0.995
   137   1 H    1.082 --   107 N    0.961
   138   1 H    1.042 --   111 C    1.003
   139   1 H    1.042 --   111 C    0.984
   140   1 H    1.048 --   111 C    0.999
   141   1 H    1.025 --   112 C    0.984
   142   1 H    1.021 --   113 C    0.985
   143   1 H    1.019 --   114 C    0.988
   144   1 H    1.028 --   117 C    0.996
   145   1 H    1.038 --   117 C    0.986
   146   1 H    1.027 --   117 C    0.996
   147   6 C    3.800 --   148 C    2.518   149 C    1.309
   148   6 C    3.792 --   147 C    2.518    13 C    1.200   150 C    0.179
   149   6 C    3.795 --   150 C    2.515   147 C    1.309
   150   6 C    3.796 --   149 C    2.515   167 C    1.204   148 C    0.179
   151   6 C    3.798 --   152 C    2.488   153 C    1.337
   152   6 C    3.799 --   151 C    2.488   179 C    1.231   154 C    0.179
   153   6 C    3.797 --   154 C    2.487   151 C    1.337
   154   6 C    3.801 --   153 C    2.487   239 C    1.232   152 C    0.179
   155   6 C    3.797 --   156 C    2.485   157 C    1.339
   156   6 C    3.800 --   155 C    2.485   251 C    1.233   158 C    0.179
   157   6 C    3.797 --   158 C    2.485   155 C    1.339
   158   6 C    3.800 --   157 C    2.485   311 C    1.233   156 C    0.179
   159   6 C    3.797 --   160 C    2.487   161 C    1.337
   160   6 C    3.800 --   159 C    2.487   323 C    1.232   162 C    0.179
   161   6 C    3.798 --   162 C    2.487   159 C    1.337
   162   6 C    3.799 --   161 C    2.487   383 C    1.231   160 C    0.179
   163   6 C    3.795 --   164 C    2.511   165 C    1.313
   164   6 C    3.797 --   163 C    2.511   395 C    1.207   166 C    0.179
   165   6 C    3.800 --   166 C    2.514   163 C    1.313
   166   6 C    3.793 --   165 C    2.514    86 C    1.204   164 C    0.179
   167   6 C    3.828 --   198 C    1.293   168 C    1.292   150 C    1.204
   168   6 C    3.908 --   167 C    1.292   169 C    1.266   172 N    1.251
   169   6 C    3.828 --   170 C    1.582   168 C    1.266   211 H    0.999
   170   6 C    3.824 --   169 C    1.582   171 C    1.258   212 H    0.999
   171   6 C    3.897 --   173 C    1.344   170 C    1.258   172 N    1.221
   172   7 N    3.244 --   168 C    1.251   171 C    1.221   213 H    0.962
   173   6 C    3.836 --   174 C    1.375   171 C    1.344   201 C    1.039
   174   6 C    3.930 --   173 C    1.375   177 N    1.349   175 C    1.161
   175   6 C    3.839 --   176 C    1.689   174 C    1.161   214 H    1.000
   176   6 C    3.849 --   175 C    1.689   178 C    1.168   215 H    1.001
   177   7 N    2.552 --   178 C    1.419   174 C    1.349
   178   6 C    3.941 --   177 N    1.419   179 C    1.282   176 C    1.168
   179   6 C    3.831 --   178 C    1.282   180 C    1.281   152 C    1.231
   180   6 C    3.902 --   179 C    1.281   181 C    1.273   200 N    1.251
   181   6 C    3.827 --   182 C    1.577   180 C    1.273   216 H    1.000
   182   6 C    3.816 --   181 C    1.577   183 C    1.264   217 H    0.998
   183   6 C    3.884 --   184 C    1.342   182 C    1.264   200 N    1.219
   184   6 C    3.803 --   195 C    1.382   183 C    1.342   185 C    1.025
   185   6 C    3.813 --   192 C    1.411   186 C    1.355   184 C    1.025
   186   6 C    3.921 --   189 C    1.408   185 C    1.355   187 O    1.118
   187   8 O    2.194 --   186 C    1.118   188 C    0.983
   188   6 C    3.914 --   220 H    0.996   219 H    0.996   218 H    0.986
                           187 O    0.983
   189   6 C    3.826 --   190 C    1.413   186 C    1.408   221 H    0.988
   190   6 C    3.919 --   191 C    1.470   189 C    1.413   222 H    0.985
   191   6 C    3.899 --   190 C    1.470   192 C    1.358   223 H    0.984
   192   6 C    3.921 --   185 C    1.411   191 C    1.358   193 O    1.117
   193   8 O    2.180 --   192 C    1.117   194 C    0.977
   194   6 C    3.888 --   225 H    1.002   226 H    0.999   224 H    0.984
                           193 O    0.977
   195   6 C    3.917 --   184 C    1.382   199 N    1.349   196 C    1.161
   196   6 C    3.837 --   197 C    1.693   195 C    1.161   227 H    0.999
   197   6 C    3.847 --   196 C    1.693   198 C    1.167   228 H    1.001
   198   6 C    3.947 --   199 N    1.410   167 C    1.293   197 C    1.167
   199   7 N    2.505 --   198 C    1.410   195 C    1.349
   200   7 N    3.231 --   180 C    1.251   183 C    1.219   229 H    0.962
   201   6 C    3.865 --   202 C    1.378   208 C    1.376   173 C    1.039
   202   6 C    3.914 --   205 C    1.388   201 C    1.378   203 O    1.117
   203   8 O    2.189 --   202 C    1.117   204 C    0.982
   204   6 C    3.912 --   231 H    0.997   230 H    0.996   232 H    0.986
                           203 O    0.982
   205   6 C    3.830 --   206 C    1.439   202 C    1.388   233 H    0.989
   206   6 C    3.918 --   207 C    1.439   205 C    1.439   234 H    0.985
   207   6 C    3.830 --   206 C    1.439   208 C    1.387   235 H    0.989
   208   6 C    3.919 --   207 C    1.387   201 C    1.376   209 O    1.121
   209   8 O    2.195 --   208 C    1.121   210 C    0.982
   210   6 C    3.912 --   236 H    0.997   238 H    0.996   237 H    0.986
                           209 O    0.982
   211   1 H    1.022 --   169 C    0.999
   212   1 H    1.027 --   170 C    0.999
   213   1 H    1.079 --   172 N    0.962
   214   1 H    1.031 --   175 C    1.000
   215   1 H    1.028 --   176 C    1.001
   216   1 H    1.024 --   181 C    1.000
   217   1 H    1.032 --   182 C    0.998
   218   1 H    1.038 --   188 C    0.986
   219   1 H    1.028 --   188 C    0.996
   220   1 H    1.027 --   188 C    0.996
   221   1 H    1.020 --   189 C    0.988
   222   1 H    1.021 --   190 C    0.985
   223   1 H    1.025 --   191 C    0.984
   224   1 H    1.042 --   194 C    0.984
   225   1 H    1.046 --   194 C    1.002
   226   1 H    1.047 --   194 C    0.999
   227   1 H    1.036 --   196 C    0.999
   228   1 H    1.026 --   197 C    1.001
   229   1 H    1.081 --   200 N    0.962
   230   1 H    1.029 --   204 C    0.996
   231   1 H    1.027 --   204 C    0.997
   232   1 H    1.040 --   204 C    0.986
   233   1 H    1.021 --   205 C    0.989
   234   1 H    1.024 --   206 C    0.985
   235   1 H    1.021 --   207 C    0.989
   236   1 H    1.028 --   210 C    0.997
   237   1 H    1.039 --   210 C    0.986
   238   1 H    1.029 --   210 C    0.996
   239   6 C    3.824 --   270 C    1.280   240 C    1.280   154 C    1.232
   240   6 C    3.904 --   239 C    1.280   241 C    1.273   244 N    1.255
   241   6 C    3.827 --   242 C    1.575   240 C    1.273   283 H    1.000
   242   6 C    3.821 --   241 C    1.575   243 C    1.263   284 H    1.000
   243   6 C    3.897 --   245 C    1.340   242 C    1.263   244 N    1.221
   244   7 N    3.246 --   240 C    1.255   243 C    1.221   285 H    0.963
   245   6 C    3.832 --   246 C    1.380   243 C    1.340   273 C    1.039
   246   6 C    3.931 --   245 C    1.380   249 N    1.346   247 C    1.161
   247   6 C    3.840 --   248 C    1.689   246 C    1.161   286 H    1.000
   248   6 C    3.849 --   247 C    1.689   250 C    1.168   287 H    1.001
   249   7 N    2.546 --   250 C    1.422   246 C    1.346
   250   6 C    3.942 --   249 N    1.422   251 C    1.280   248 C    1.168
   251   6 C    3.826 --   250 C    1.280   252 C    1.279   156 C    1.233
   252   6 C    3.903 --   251 C    1.279   253 C    1.274   272 N    1.253
   253   6 C    3.826 --   254 C    1.576   252 C    1.274   288 H    1.000
   254   6 C    3.817 --   253 C    1.576   255 C    1.266   289 H    0.999
   255   6 C    3.883 --   256 C    1.341   254 C    1.266   272 N    1.218
   256   6 C    3.804 --   267 C    1.384   255 C    1.341   257 C    1.025
   257   6 C    3.813 --   264 C    1.411   258 C    1.355   256 C    1.025
   258   6 C    3.921 --   261 C    1.408   257 C    1.355   259 O    1.118
   259   8 O    2.194 --   258 C    1.118   260 C    0.983
   260   6 C    3.914 --   292 H    0.996   291 H    0.996   290 H    0.986
                           259 O    0.983
   261   6 C    3.825 --   262 C    1.412   258 C    1.408   293 H    0.988
   262   6 C    3.919 --   263 C    1.471   261 C    1.412   294 H    0.986
   263   6 C    3.899 --   262 C    1.471   264 C    1.357   295 H    0.984
   264   6 C    3.921 --   257 C    1.411   263 C    1.357   265 O    1.118
   265   8 O    2.181 --   264 C    1.118   266 C    0.977
   266   6 C    3.888 --   297 H    1.002   298 H    0.999   296 H    0.984
                           265 O    0.977
   267   6 C    3.914 --   256 C    1.384   271 N    1.343   268 C    1.163
   268   6 C    3.835 --   269 C    1.689   267 C    1.163   299 H    0.999
   269   6 C    3.845 --   268 C    1.689   270 C    1.170   300 H    1.001
   270   6 C    3.943 --   271 N    1.419   239 C    1.280   269 C    1.170
   271   7 N    2.504 --   270 C    1.419   267 C    1.343
   272   7 N    3.228 --   252 C    1.253   255 C    1.218   301 H    0.962
   273   6 C    3.865 --   274 C    1.378   280 C    1.376   245 C    1.039
   274   6 C    3.915 --   277 C    1.388   273 C    1.378   275 O    1.117
   275   8 O    2.189 --   274 C    1.117   276 C    0.982
   276   6 C    3.912 --   303 H    0.997   302 H    0.996   304 H    0.986
                           275 O    0.982
   277   6 C    3.830 --   278 C    1.439   274 C    1.388   305 H    0.989
   278   6 C    3.918 --   279 C    1.439   277 C    1.439   306 H    0.986
   279   6 C    3.830 --   278 C    1.439   280 C    1.387   307 H    0.989
   280   6 C    3.919 --   279 C    1.387   273 C    1.376   281 O    1.121
   281   8 O    2.195 --   280 C    1.121   282 C    0.983
   282   6 C    3.912 --   308 H    0.997   310 H    0.996   309 H    0.986
                           281 O    0.983
   283   1 H    1.023 --   241 C    1.000
   284   1 H    1.027 --   242 C    1.000
   285   1 H    1.079 --   244 N    0.963
   286   1 H    1.032 --   247 C    1.000
   287   1 H    1.028 --   248 C    1.001
   288   1 H    1.025 --   253 C    1.000
   289   1 H    1.033 --   254 C    0.999
   290   1 H    1.039 --   260 C    0.986
   291   1 H    1.028 --   260 C    0.996
   292   1 H    1.027 --   260 C    0.996
   293   1 H    1.019 --   261 C    0.988
   294   1 H    1.022 --   262 C    0.986
   295   1 H    1.026 --   263 C    0.984
   296   1 H    1.042 --   266 C    0.984
   297   1 H    1.046 --   266 C    1.002
   298   1 H    1.047 --   266 C    0.999
   299   1 H    1.036 --   268 C    0.999
   300   1 H    1.027 --   269 C    1.001
   301   1 H    1.081 --   272 N    0.962
   302   1 H    1.029 --   276 C    0.996
   303   1 H    1.027 --   276 C    0.997
   304   1 H    1.040 --   276 C    0.986
   305   1 H    1.021 --   277 C    0.989
   306   1 H    1.025 --   278 C    0.986
   307   1 H    1.021 --   279 C    0.989
   308   1 H    1.029 --   282 C    0.997
   309   1 H    1.040 --   282 C    0.986
   310   1 H    1.029 --   282 C    0.996
   311   6 C    3.825 --   342 C    1.280   312 C    1.279   158 C    1.233
   312   6 C    3.904 --   311 C    1.279   313 C    1.273   316 N    1.254
   313   6 C    3.827 --   314 C    1.575   312 C    1.273   355 H    1.000
   314   6 C    3.820 --   313 C    1.575   315 C    1.263   356 H    1.000
   315   6 C    3.897 --   317 C    1.338   314 C    1.263   316 N    1.222
   316   7 N    3.246 --   312 C    1.254   315 C    1.222   357 H    0.963
   317   6 C    3.832 --   318 C    1.381   315 C    1.338   345 C    1.039
   318   6 C    3.932 --   317 C    1.381   321 N    1.345   319 C    1.160
   319   6 C    3.840 --   320 C    1.690   318 C    1.160   358 H    1.000
   320   6 C    3.848 --   319 C    1.690   322 C    1.168   359 H    1.001
   321   7 N    2.546 --   322 C    1.422   318 C    1.345
   322   6 C    3.942 --   321 N    1.422   323 C    1.280   320 C    1.168
   323   6 C    3.826 --   322 C    1.280   324 C    1.280   160 C    1.232
   324   6 C    3.903 --   323 C    1.280   325 C    1.274   344 N    1.253
   325   6 C    3.826 --   326 C    1.576   324 C    1.274   360 H    1.000
   326   6 C    3.819 --   325 C    1.576   327 C    1.265   361 H    0.999
   327   6 C    3.884 --   328 C    1.343   326 C    1.265   344 N    1.217
   328   6 C    3.804 --   339 C    1.382   327 C    1.343   329 C    1.025
   329   6 C    3.813 --   336 C    1.411   330 C    1.355   328 C    1.025
   330   6 C    3.920 --   333 C    1.408   329 C    1.355   331 O    1.118
   331   8 O    2.194 --   330 C    1.118   332 C    0.983
   332   6 C    3.914 --   363 H    0.996   364 H    0.996   362 H    0.986
                           331 O    0.983
   333   6 C    3.825 --   334 C    1.412   330 C    1.408   365 H    0.988
   334   6 C    3.919 --   335 C    1.471   333 C    1.412   366 H    0.986
   335   6 C    3.899 --   334 C    1.471   336 C    1.357   367 H    0.984
   336   6 C    3.921 --   329 C    1.411   335 C    1.357   337 O    1.118
   337   8 O    2.183 --   336 C    1.118   338 C    0.977
   338   6 C    3.888 --   369 H    1.002   370 H    0.999   368 H    0.984
                           337 O    0.977
   339   6 C    3.913 --   328 C    1.382   343 N    1.344   340 C    1.164
   340   6 C    3.834 --   341 C    1.688   339 C    1.164   371 H    0.999
   341   6 C    3.845 --   340 C    1.688   342 C    1.170   372 H    1.001
   342   6 C    3.942 --   343 N    1.418   311 C    1.280   341 C    1.170
   343   7 N    2.505 --   342 C    1.418   339 C    1.344
   344   7 N    3.228 --   324 C    1.253   327 C    1.217   373 H    0.962
   345   6 C    3.865 --   346 C    1.378   352 C    1.376   317 C    1.039
   346   6 C    3.915 --   349 C    1.388   345 C    1.378   347 O    1.117
   347   8 O    2.189 --   346 C    1.117   348 C    0.982
   348   6 C    3.912 --   375 H    0.997   374 H    0.996   376 H    0.986
                           347 O    0.982
   349   6 C    3.830 --   350 C    1.439   346 C    1.388   377 H    0.989
   350   6 C    3.918 --   351 C    1.439   349 C    1.439   378 H    0.986
   351   6 C    3.830 --   350 C    1.439   352 C    1.387   379 H    0.989
   352   6 C    3.919 --   351 C    1.387   345 C    1.376   353 O    1.120
   353   8 O    2.195 --   352 C    1.120   354 C    0.983
   354   6 C    3.912 --   380 H    0.997   382 H    0.996   381 H    0.986
                           353 O    0.983
   355   1 H    1.023 --   313 C    1.000
   356   1 H    1.027 --   314 C    1.000
   357   1 H    1.079 --   316 N    0.963
   358   1 H    1.032 --   319 C    1.000
   359   1 H    1.028 --   320 C    1.001
   360   1 H    1.025 --   325 C    1.000
   361   1 H    1.033 --   326 C    0.999
   362   1 H    1.039 --   332 C    0.986
   363   1 H    1.028 --   332 C    0.996
   364   1 H    1.027 --   332 C    0.996
   365   1 H    1.020 --   333 C    0.988
   366   1 H    1.022 --   334 C    0.986
   367   1 H    1.026 --   335 C    0.984
   368   1 H    1.042 --   338 C    0.984
   369   1 H    1.046 --   338 C    1.002
   370   1 H    1.047 --   338 C    0.999
   371   1 H    1.036 --   340 C    0.999
   372   1 H    1.027 --   341 C    1.001
   373   1 H    1.081 --   344 N    0.962
   374   1 H    1.029 --   348 C    0.996
   375   1 H    1.027 --   348 C    0.997
   376   1 H    1.040 --   348 C    0.986
   377   1 H    1.021 --   349 C    0.989
   378   1 H    1.025 --   350 C    0.986
   379   1 H    1.021 --   351 C    0.989
   380   1 H    1.029 --   354 C    0.997
   381   1 H    1.041 --   354 C    0.986
   382   1 H    1.029 --   354 C    0.996
   383   6 C    3.829 --   384 C    1.282   414 C    1.281   162 C    1.231
   384   6 C    3.903 --   383 C    1.282   385 C    1.272   388 N    1.253
   385   6 C    3.828 --   386 C    1.576   384 C    1.272   427 H    1.000
   386   6 C    3.820 --   385 C    1.576   387 C    1.262   428 H    0.999
   387   6 C    3.897 --   389 C    1.339   386 C    1.262   388 N    1.224
   388   7 N    3.248 --   384 C    1.253   387 C    1.224   429 H    0.962
   389   6 C    3.831 --   390 C    1.380   387 C    1.339   417 C    1.038
   390   6 C    3.934 --   389 C    1.380   393 N    1.350   391 C    1.158
   391   6 C    3.842 --   392 C    1.694   390 C    1.158   430 H    1.000
   392   6 C    3.851 --   391 C    1.694   394 C    1.165   431 H    1.000
   393   7 N    2.546 --   394 C    1.414   390 C    1.350
   394   6 C    3.946 --   393 N    1.414   395 C    1.292   392 C    1.165
   395   6 C    3.828 --   394 C    1.292   396 C    1.289   164 C    1.207
   396   6 C    3.906 --   395 C    1.289   397 C    1.268   416 N    1.249
   397   6 C    3.826 --   398 C    1.582   396 C    1.268   432 H    1.000
   398   6 C    3.822 --   397 C    1.582   399 C    1.261   433 H    0.998
   399   6 C    3.884 --   400 C    1.347   398 C    1.261   416 N    1.217
   400   6 C    3.807 --   411 C    1.379   399 C    1.347   401 C    1.025
   401   6 C    3.812 --   408 C    1.411   402 C    1.355   400 C    1.025
   402   6 C    3.920 --   405 C    1.409   401 C    1.355   403 O    1.118
   403   8 O    2.194 --   402 C    1.118   404 C    0.983
   404   6 C    3.914 --   435 H    0.996   436 H    0.996   434 H    0.986
                           403 O    0.983
   405   6 C    3.825 --   406 C    1.412   402 C    1.409   437 H    0.988
   406   6 C    3.920 --   407 C    1.472   405 C    1.412   438 H    0.985
   407   6 C    3.900 --   406 C    1.472   408 C    1.356   439 H    0.984
   408   6 C    3.922 --   401 C    1.411   407 C    1.356   409 O    1.119
   409   8 O    2.183 --   408 C    1.119   410 C    0.977
   410   6 C    3.887 --   441 H    1.002   442 H    0.999   440 H    0.984
                           409 O    0.977
   411   6 C    3.913 --   400 C    1.379   415 N    1.347   412 C    1.164
   412   6 C    3.834 --   413 C    1.688   411 C    1.164   443 H    0.999
   413   6 C    3.845 --   412 C    1.688   414 C    1.170   444 H    1.001
   414   6 C    3.942 --   415 N    1.416   383 C    1.281   413 C    1.170
   415   7 N    2.508 --   414 C    1.416   411 C    1.347
   416   7 N    3.227 --   396 C    1.249   399 C    1.217   445 H    0.962
   417   6 C    3.865 --   418 C    1.378   424 C    1.377   389 C    1.038
   418   6 C    3.915 --   421 C    1.388   417 C    1.378   419 O    1.117
   419   8 O    2.189 --   418 C    1.117   420 C    0.982
   420   6 C    3.912 --   447 H    0.997   446 H    0.996   448 H    0.986
                           419 O    0.982
   421   6 C    3.830 --   422 C    1.439   418 C    1.388   449 H    0.989
   422   6 C    3.918 --   423 C    1.439   421 C    1.439   450 H    0.985
   423   6 C    3.830 --   422 C    1.439   424 C    1.387   451 H    0.989
   424   6 C    3.918 --   423 C    1.387   417 C    1.377   425 O    1.120
   425   8 O    2.194 --   424 C    1.120   426 C    0.982
   426   6 C    3.912 --   452 H    0.997   454 H    0.996   453 H    0.986
                           425 O    0.982
   427   1 H    1.023 --   385 C    1.000
   428   1 H    1.027 --   386 C    0.999
   429   1 H    1.079 --   388 N    0.962
   430   1 H    1.032 --   391 C    1.000
   431   1 H    1.029 --   392 C    1.000
   432   1 H    1.026 --   397 C    1.000
   433   1 H    1.033 --   398 C    0.998
   434   1 H    1.039 --   404 C    0.986
   435   1 H    1.028 --   404 C    0.996
   436   1 H    1.027 --   404 C    0.996
   437   1 H    1.020 --   405 C    0.988
   438   1 H    1.021 --   406 C    0.985
   439   1 H    1.026 --   407 C    0.984
   440   1 H    1.042 --   410 C    0.984
   441   1 H    1.046 --   410 C    1.002
   442   1 H    1.047 --   410 C    0.999
   443   1 H    1.035 --   412 C    0.999
   444   1 H    1.027 --   413 C    1.001
   445   1 H    1.081 --   416 N    0.962
   446   1 H    1.029 --   420 C    0.996
   447   1 H    1.027 --   420 C    0.997
   448   1 H    1.040 --   420 C    0.986
   449   1 H    1.021 --   421 C    0.989
   450   1 H    1.024 --   422 C    0.985
   451   1 H    1.021 --   423 C    0.989
   452   1 H    1.029 --   426 C    0.997
   453   1 H    1.041 --   426 C    0.986
   454   1 H    1.028 --   426 C    0.996
 ---------------------------------------------------------------------------

Topologies differ in total number of bonds
Writing topology from bond orders to xtbtopo.mol

 dipole moment from electron density (au)
     X       Y       Z   
-211.4459   1.9126   3.6692  total (Debye):  537.545


           -------------------------------------------------
          | TOTAL ENERGY             -870.456688060163 Eh   |
          | GRADIENT NORM               0.107752761507 Eh/α |
          | HOMO-LUMO GAP               0.091407015628 eV   |
           -------------------------------------------------
########################################################################
[WARNING] Runtime exception occurred
-1- restart_readRestart: Dimension missmatch in restart file.
########################################################################

------------------------------------------------------------------------
 * finished run on 2022/07/30 at 04:23:10.024     
------------------------------------------------------------------------
 total:
 * wall-time:     0 d,  0 h,  1 min, 17.123 sec
 *  cpu-time:     0 d,  0 h,  1 min, 16.820 sec
 * ratio c/w:     0.996 speedup
 SCF:
 * wall-time:     0 d,  0 h,  1 min, 15.873 sec
 *  cpu-time:     0 d,  0 h,  1 min, 15.580 sec
 * ratio c/w:     0.996 speedup

