454
 energy: -779.395592920082 gnorm: 0.000850276310 xtb: 6.5.1 (b24c23e)
C           74.17953642159216        0.12652601361338        0.00309653866270
C           74.80685940921272        0.13542327490165        1.24189941552974
C           74.18136213098448        0.13505045671581        2.52124498491222
C           75.16365853424715        0.14794334246030        3.47060272335774
C           76.42147354550208        0.15473125881145        2.80226565457933
N           76.15536062747611        0.15043205797572        1.46167336128559
C           77.69165282077185        0.16184659428378        3.38387952843031
C           78.90128405269223        0.13417128032606        2.68833018112940
C           80.19909591642256        0.11220737678392        3.33850316818500
C           81.12005802723129        0.11000577384579        2.35231899381070
N           79.05385428609598        0.15209594150201        1.33672540103375
C           80.38287248148217        0.13354269015123        1.10322826543366
C           81.01129144260597        0.13807825627363       -0.15675177028148
C           80.35978219046170        0.15621034311739       -1.40262272697822
C           80.97947310214745        0.17697657806488       -2.68113558032911
C           79.99319452465386        0.20347048648825       -3.62759775651206
C           78.73977689386295        0.19796010085498       -2.95483013352589
C           77.47011210084563        0.21742973087652       -3.53727795253560
C           77.42782277189602        0.20930148685465       -5.03133947824407
C           77.57161807931634        1.34249425594281       -5.83617215291597
O           77.74187510063123        2.61692917189592       -5.39401083339112
C           77.35801653475859        3.04967040614351       -4.10172146286554
C           77.57530645501578        1.21310440798648       -7.23095373380042
C           77.42569215102191       -0.02609389195851       -7.81924992986661
C           77.26249340947911       -1.16495576804533       -7.03946173465908
C           77.26727427199592       -1.04385781752504       -5.65455830495521
O           77.13509642378882       -2.09923915548357       -4.80640472991139
C           76.94983701259420       -3.40523785402694       -5.31362305155886
C           76.26032921446036        0.17371317267449       -2.84092247323661
C           74.95645224715484        0.15693985527110       -3.48453317467444
C           74.04194328076221        0.13180575625091       -2.49374597051689
C           74.78712527011500        0.13869006305036       -1.24654345840136
N           76.11916629833713        0.16724622713385       -1.49367523718355
N           79.01281875962431        0.17061023340188       -1.61253805048948
C           77.73303546090149        0.12288795372646        4.87749095768809
C           77.56674772183284        1.23789699851450        5.70307746984146
O           77.37769280784268        2.51656869760439        5.27999031512868
C           77.80783533362698        2.98307809550134        4.01386792484658
C           77.55659958140224        1.08215715503151        7.09486839282694
C           77.72348963362995       -0.16575799760837        7.66004203991858
C           77.91102349751024       -1.28625391106335        6.85954641203893
C           77.91163660357756       -1.13913491932569        5.47701074009852
O           78.06427184015324       -2.17611305756632        4.60999852734773
C           78.28812854892561       -3.48526157163353        5.09301119367275
H           73.09465140835187        0.10987543307778        0.02220834245984
H           73.11458145280400        0.12612928785712        2.67911743280083
H           75.04035641524666        0.14991029454568        4.54162000230063
H           76.86286438101449        0.13466368043363        0.73500028922188
H           80.35515686293719        0.09482754499411        4.40528585382684
H           82.19518641630427        0.09266175807825        2.43422785568966
H           82.04530428312607        0.17256477871103       -2.84369765513431
H           80.11381640012982        0.22278159866614       -4.69860429777874
H           78.07158641965006        2.72334090464203       -3.33727144979224
H           77.35200702699606        4.14189932141625       -4.13837491338139
H           76.35611437775005        2.69279642640268       -3.84052983929292
H           77.69647991974736        2.10778197332205       -7.82845518683169
H           77.42908772421390       -0.11478094791183       -8.89976042259943
H           77.14140578112550       -2.12904555502005       -7.51466719616300
H           76.85810155379070       -4.05855143430101       -4.44391382239816
H           76.03563817513117       -3.47644992820865       -5.91536263662918
H           77.80709419453227       -3.72759241258239       -5.91709213325296
H           74.79535725415393        0.15853030717792       -4.55088926393113
H           72.96572532633307        0.11086871261582       -2.56714244698934
H           78.30790658695399        0.14436031940116       -0.88338982989014
H           78.82014073595947        2.63571394624957        3.78220458849919
H           77.80773970910694        4.07408321043144        4.07721401769844
H           77.12503822748208        2.67277835580663        3.21542487798904
H           77.41722451592618        1.96292705840991        7.70879898469971
H           77.71508455586080       -0.27546398476502        8.73860969202394
H           78.04564710372533       -2.25717879160166        7.31687943118324
H           77.43979638870000       -3.84514750717677        5.68788329335478
H           78.40170865730433       -4.11884276729342        4.21138514491976
H           79.20266884010334       -3.53975201019772        5.69585251709146
C          148.39115151000055        0.09633131329784       -0.15899467758809
C          147.78802780986621       -0.06081794325099       -1.39998515433839
C          148.43821072084492       -0.20248519940598       -2.65889770252052
C          147.47462426394932       -0.33525188213976       -3.61831373718398
C          146.20428662562753       -0.28126578795904       -2.97653711779313
N          146.44411311247364       -0.11052659929245       -1.64182478995343
C          144.94565819579671       -0.38954340170248       -3.57361506331070
C          143.72429344534430       -0.36547666789012       -2.89875668294376
C          142.44003412392885       -0.51306931588845       -3.55924251255205
C          141.50059460576793       -0.39953807700895       -2.59736921607481
N          143.54527054504157       -0.16331007834592       -1.56517964663994
C          142.21276122224174       -0.17724093591384       -1.35335574579228
C          141.55891760515775        0.01892310455808       -0.12152105687394
C          142.18572841972988        0.23615178408696        1.11843995732647
C          141.54070145811693        0.43543867846756        2.36864312384212
C          142.50800728883112        0.58959779192780        3.32252682082778
C          143.77455196155319        0.48957535500081        2.68254643812226
C          145.03236135761165        0.58215576763535        3.28336394628235
C          145.04466665904783        0.75398191593889        4.76810413611780
C          144.88322718950931        1.97353651222809        5.43060230882930
O          144.72157427997763        3.18667408034021        4.83867644684840
C          145.11912027447977        3.46220736832469        3.50800428715502
C          144.85123554947529        2.00930632559034        6.83069135460444
C          144.98953549277897        0.84863804542716        7.56394863855237
C          145.16937141943581       -0.37379806199267        6.92737101417829
C          145.19309773417689       -0.41653065736605        5.53810591929491
O          145.34303333740863       -1.56410169252360        4.82300501042091
C          145.52090314481654       -2.80066753566001        5.48352335767609
C          146.25566076917579        0.45728900324909        2.62121101635713
C          147.54694946848360        0.53239764857588        3.28564356931738
C          148.48058600229595        0.40071034759583        2.32144018092751
C          147.75959921218023        0.24782151312907        1.06940462223563
N          146.42273774356528        0.28842334846256        1.28764461672518
N          143.52818302768796        0.28100493222517        1.35106389572797
C          144.93406995452420       -0.60822075985355       -5.05167435786040
C          145.12190399940962        0.40433074934521       -5.99647720516291
O          145.30489699829550        1.72266020475965       -5.71426423215409
C          144.79852539384308        2.33457843305982       -4.54121552889364
C          145.16345072897764        0.09025992634499       -7.36024781744670
C          145.00494988731822       -1.21454692274841       -7.78151792046481
C          144.79508643342490       -2.23506031639682       -6.86184748456828
C          144.76418165278295       -1.93049112480284       -5.50546416214586
O          144.59005233925268       -2.86128599773575       -4.52891993257334
C          144.36782675931977       -4.21618436968238       -4.86405798019670
H          149.47636288592375        0.10091009950658       -0.15771618397486
H          149.50773473428174       -0.20097177046051       -2.79736718083109
H          147.61931710472027       -0.46342483037406       -4.67891528964333
H          145.72304526956336       -0.05419255214888       -0.93065829043877
H          142.30463503002136       -0.68501275133102       -4.61501335496033
H          140.42787825499866       -0.45493583277725       -2.69288240623297
H          140.47183683169413        0.45436887192997        2.50867275641088
H          142.36619210748322        0.75551080111069        4.37814515284316
H          144.41394716459612        3.04518727404846        2.78081174692260
H          145.12399743223077        4.55093896573840        3.41361811508796
H          146.12395319766006        3.07855323799139        3.30216347221367
H          144.71709703231335        2.96778245315142        7.31597325960786
H          144.96380043949247        0.88790825939370        8.64709280395034
H          145.28088887527932       -1.27492638430850        7.51522903475238
H          145.63188916512931       -3.55101053846878        4.69842622418575
H          146.42275576823860       -2.79659110420490        6.10770395200705
H          144.65223387327833       -3.05417181153580        6.10333130961645
H          147.68744159343356        0.66402149257267        4.34678862723950
H          149.55536063518784        0.40224308658300        2.41604302732896
H          144.24741575637364        0.15234561518298        0.64718597975770
H          143.78425478994296        1.98908375436137       -4.31592046414033
H          144.77611786040683        3.40828850699066       -4.74376341328266
H          145.44612665728960        2.14880354801721       -3.67744112705385
H          145.31956144596234        0.89433187035652       -8.06815481903784
H          145.03717180132222       -1.44788153179876       -8.83977870673012
H          144.66709755920084       -3.25190322015754       -7.20773139204838
H          145.22539133607188       -4.64482198512482       -5.39689129104431
H          144.23324205850949       -4.74471258119668       -3.91846615926268
H          143.46493092050855       -4.33545782739592       -5.47506697453922
C           83.64126507592368        0.12607181741107       -0.20647775647856
C           82.42052386416898        0.13059909171137       -0.18566909398414
C           84.99336875349154        0.12011562860619       -0.22686092734216
C           86.21450603144315        0.11472368373372       -0.24121744072275
C           97.12629780571210       -0.00562945513185       -0.27342595817024
C           95.90365546137382        0.01140066940363       -0.26744697746983
C           98.47439527253553       -0.01396523785906       -0.27892572059505
C           99.69716935592221       -0.02335167527001       -0.28862015511934
C          110.60748526546459       -0.03100769071625       -0.26875821806396
C          109.38458488187925       -0.02502198170200       -0.27023404749866
C          111.95545019933977       -0.03186161575074       -0.26831565937073
C          113.17840972620769       -0.03621823988729       -0.27137593080478
C          124.09094322621721       -0.05393806873444       -0.24521706031458
C          122.86806570998749       -0.05329276392556       -0.25120845268201
C          125.43911955738190       -0.04793149789381       -0.23701214857949
C          126.66197484179982       -0.04254081260795       -0.23251663214455
C          137.57693826858790       -0.00333653658307       -0.12140106725139
C          136.35558680655674       -0.00273178953859       -0.12838569604502
C          138.92878257856137        0.00213639681177       -0.11551431282650
C          140.14999709673725        0.00527046946863       -0.11754587475076
C           87.62302431140046        0.10638540378616       -0.25928007354397
C           88.26318906087883        1.29877677013808        0.12319106598693
C           87.63088145621822        2.50411614930139        0.52832442715030
C           88.60876522967922        3.42016560878650        0.80125082326371
C           89.86758740849442        2.80228292278284        0.56674372834202
N           89.60763317559946        1.51997620349263        0.16409817842091
C           91.13244608496096        3.37702872151500        0.72713640999178
C           92.35148142167736        2.73119286500002        0.52499047785720
C           93.64188030730463        3.37939302277333        0.67468493874138
C           94.57467735560803        2.44429732306098        0.40147962293852
N           92.52189181649304        1.43175127791931        0.15351557865818
C           93.85208504802571        1.22924216938337        0.07765097591404
C           94.49982723760357        0.02545443071831       -0.26734137808303
C           93.85989050542409       -1.17662234264925       -0.62652466777913
C           94.48997610288953       -2.39581452941690       -0.98823544395591
C           93.51015894359044       -3.30306182943901       -1.28704580511646
C           92.25349628039716       -2.66210528576389       -1.11486158725307
C           90.98853433952688       -3.21865549395751       -1.32627497642631
C           90.96408892624031       -4.65721895007734       -1.73419038667999
C           90.83094034792599       -5.60133196689452       -0.69678076028877
O           90.71395848791295       -5.07440697245940        0.55211671378795
C           90.54033574004475       -5.91954780719980        1.67124466704409
C           90.83422515809423       -6.96646616168742       -0.95815575657406
C           90.97801150362351       -7.40331815462964       -2.26988555663698
C           91.10359333316293       -6.49720604830367       -3.30254801577190
C           91.09293698888759       -5.11947080447809       -3.04637232810805
O           91.23888990615949       -4.34980484653184       -4.15646526776161
C           90.92000897461611       -2.97133091482429       -4.20284307023654
C           89.76967501394978       -2.57469381047823       -1.11935804671445
C           88.48132878651931       -3.21118662848118       -1.32458450324158
C           87.54635857036608       -2.28319686516285       -1.03177407105995
C           88.26637037656923       -1.08299821303709       -0.65192788751614
N           89.59807087907319       -1.28490619371736       -0.72053211986121
N           92.51560468198383       -1.37890587174631       -0.71356200801744
C           91.16059337208252        4.80727671784472        1.14694128378651
C           90.72456607177757        5.81014050346093        0.27061760125609
O           90.28809511210977        5.38768011666152       -0.94598212459896
C           89.85248516109962        6.32175902689839       -1.91349215185845
C           90.76299922753570        7.14955989389241        0.65633861031053
C           91.23028839096246        7.48039220416715        1.91921934832106
C           91.66039025308088        6.50508210861822        2.80593309537108
C           91.62757807614206        5.16573809597159        2.41890995368621
O           92.01692815841740        4.13960247572781        3.21946166662644
C           92.55135320058088        4.39471615068436        4.50292371001501
H           86.56381538289600        2.64097378938492        0.59991650918432
H           88.47535201696486        4.43582902423612        1.13618232665700
H           90.31793843067088        0.83305969936964       -0.06533680631792
H           93.78958331221327        4.41113995981674        0.94985669808500
H           95.64874475276477        2.54130055854303        0.40619489779130
H           95.55680458967853       -2.54925461037467       -1.01443893541275
H           93.63870753563249       -4.32688903769801       -1.59879016241321
H           90.45167598486202       -5.26162028095965        2.53780295958442
H           91.40150033916987       -6.58437368008527        1.81097317996773
H           89.62815911767180       -6.52194495116038        1.58179396853667
H           90.73341184990581       -7.68810525068630       -0.15875594845723
H           90.98690488880321       -8.46676912189383       -2.48059181247869
H           91.21144130089245       -6.82614827440245       -4.32837946866285
H           90.93367498382806       -2.69537140994974       -5.26006492450029
H           89.92342438575214       -2.77605678029051       -3.79282217570628
H           91.65968914159797       -2.36627602074099       -3.66740592993065
H           88.34064011164105       -4.23172502012526       -1.64307610515243
H           86.47232603784013       -2.37593216116897       -1.05992042557992
H           91.80751870685123       -0.68467425738365       -0.49946121771716
H           90.65421959551284        7.01733795400017       -2.18915650545380
H           88.98396971950244        6.89079664547096       -1.56029714164746
H           89.56601131175969        5.73889528423817       -2.79082716219789
H           90.43408716051792        7.93136572910078       -0.01497549022483
H           91.25865718909428        8.52203736487238        2.21955114602447
H           92.01542892182680        6.79165596369390        3.78670334052712
H           93.45328458700818        5.01596419341687        4.44535279886733
H           92.81264161311314        3.42118021318717        4.92171353093092
H           91.81641275660341        4.88180451974624        5.15520644489966
C          101.10076054832778       -0.02169638895111       -0.29637358510987
C          101.72842602534274        1.19018828005098        0.05197839488889
C          101.08111722875630        2.39825878959122        0.42058086926879
C          102.04821617191824        3.32883520187224        0.68561910825663
C          103.31420114267908        2.71642504066673        0.48150182150508
N          103.06972912545015        1.42357150990156        0.10245410466986
C          104.57274943812827        3.30303704284305        0.65098887963353
C          105.79937029612904        2.66598931328852        0.47121723382344
C          107.08181056843584        3.32838745423843        0.62575209001727
C          108.02619212168153        2.40020020310513        0.36891382918065
N          105.98599210073407        1.36397234917476        0.11566224854148
C          107.31856911520889        1.17457786504690        0.05233330971329
C          107.98104582918971       -0.02652173403632       -0.27438809386957
C          107.35545416882613       -1.24161206329342       -0.61627139366726
C          108.00043059537118       -2.45883574837659       -0.95691965933371
C          107.03155879061981       -3.38443543004330       -1.23563229577720
C          105.76745020905533       -2.75690149888052       -1.07176920558432
C          104.50893120081304       -3.33537758830987       -1.26542929498076
C          104.50346183402786       -4.78424849267387       -1.63651587958134
C          104.40276247972673       -5.70233206212010       -0.57236879125923
O          104.29759401700063       -5.14385164837011        0.66390672471704
C          104.15528532325801       -5.96131056869323        1.80772325497862
C          104.42349356431397       -7.07374609123218       -0.79721688043214
C          104.55224903367255       -7.54332807154939       -2.09917711579847
C          104.64684798035583       -6.66334891842809       -3.15730553729514
C          104.61888387476071       -5.27940275033031       -2.93788521542914
O          104.73545472678961       -4.53901972574930       -4.07084366897975
C          104.41462834832434       -3.16242162866175       -4.14667287390466
C          103.28234421347454       -2.70388070565099       -1.07046512542953
C          102.00227889760870       -3.36233591971267       -1.25399143346200
C          101.05580218502841       -2.43783280758721       -0.98677295857329
C          101.76105305982813       -1.21812825438755       -0.64472509748294
N          103.09385010421228       -1.40446936687378       -0.70724365407196
N          106.01376755172271       -1.46256772487269       -0.69693941790970
C          104.58298794444980        4.73655807199901        1.06043245392756
C          104.15443682558596        5.73119549809187        0.17134145128402
O          103.74514560487302        5.29900603281732       -1.05111449370876
C          103.31035997404618        6.22340613491858       -2.02819822952356
C          104.17249225417170        7.07254524750831        0.55199856328893
C          104.61194262362440        7.41311923483025        1.82230324239114
C          105.03428299511150        6.44581911823483        2.72148033248429
C          105.02167793695784        5.10466406685356        2.33963326502333
O          105.40437145508858        4.08525526309741        3.15196285888844
C          105.90057308608381        4.34932568499636        4.44878209932566
H          100.01222064237767        2.52800399576727        0.47606617313875
H          101.90165215768769        4.35050961352647        0.99577222623201
H          103.78850239923068        0.73735206544249       -0.10135937009842
H          107.21646376523131        4.36435036330872        0.89175332024907
H          109.09916057390012        2.50811564537981        0.38110140054793
H          109.06908145007306       -2.59890746842151       -0.98330243241252
H          107.17279791653887       -4.41221652381151       -1.52830126124788
H          104.06911750603636       -5.28184398155085        2.65777949605582
H          105.02943316688733       -6.60812892406141        1.95138857386167
H          103.25196358172100       -6.58058023750353        1.74882403467933
H          104.34737299631840       -7.77509582128087        0.02269307973717
H          104.57426381257814       -8.61177120645879       -2.28179846747769
H          104.74325008428056       -7.01793345890667       -4.17571153222348
H          104.41908858541599       -2.91158336370522       -5.21017863223625
H          103.42127908721463       -2.95859447705122       -3.73304689349669
H          105.15811499082690       -2.54428556429963       -3.63189392620930
H          101.87414745400170       -4.39342750366283       -1.54230580106831
H           99.98294311956458       -2.54478466052227       -1.01039768482804
H          105.29699976986687       -0.77395440220976       -0.49381953859382
H          104.10611767405541        6.92910627610547       -2.29541662388030
H          102.42921341679644        6.78159892097640       -1.68923314803926
H          103.04424098149838        5.63339278308034       -2.90716445253593
H          103.84886838230398        7.84833174840355       -0.12882439441496
H          104.62411204093848        8.45620797956027        2.11873926708242
H          105.36741649633679        6.73986166452564        3.70773183626216
H          106.79827564555829        4.97832266635718        4.41431423209963
H          106.15846332548671        3.37951420144142        4.87819342912835
H          105.14345250161907        4.83209203072907        5.07847486665033
C          114.58185662061865       -0.03522473102294       -0.27857861857069
C          115.21191012883295        1.17587661663942        0.06825685079785
C          114.56741097168316        2.38552643347267        0.43628320178479
C          115.53670491956530        3.31437090680842        0.69962492604438
C          116.80126945067092        2.69925510594317        0.49476757709659
N          116.55377508403991        1.40647812167569        0.11759197078333
C          118.06122688166569        3.28391207462319        0.66139586989286
C          119.28667340696201        2.64422109458632        0.48259002069937
C          120.57027013720486        3.30498253322781        0.63518245837343
C          121.51316543864834        2.37452046484020        0.38145032222725
N          119.47127688517983        1.34102652548292        0.13029518472661
C          120.80361333672671        1.14931972081256        0.06746089273437
C          121.46435089311468       -0.05297464303361       -0.25846590063642
C          120.83659894367662       -1.26613848231176       -0.60289544768468
C          121.47881625893149       -2.48355749989433       -0.94816951833183
C          120.50778492026599       -3.40602219179254       -1.22984617140840
C          119.24509240626998       -2.77666497058855       -1.06219015635076
C          117.98521162450972       -3.35193759673313       -1.25590329770047
C          117.97539396027979       -4.79946469417738       -1.63266795254289
C          117.90411483471817       -5.72160866115738       -0.56963178988624
O          117.83282564987785       -5.16763286686626        0.67116641819526
C          117.72062929312581       -5.98963048407001        1.81509832542666
C          117.91728811357736       -7.09216431060763       -0.79996155374535
C          118.00869794717153       -7.55688954347541       -2.10682473054904
C          118.07545450369706       -6.67294054338514       -3.16366837979386
C          118.05520243477592       -5.28966098667832       -2.93856300869166
O          118.14332457665220       -4.54644417709547       -4.07207715368683
C          117.83912871657429       -3.16550546263307       -4.13427849023139
C          116.75986070346883       -2.71957717824036       -1.05576981988055
C          115.47889312638686       -3.37758177380389       -1.23468242077167
C          114.53370837469286       -2.45243165905313       -0.96501531936872
C          115.24060106143784       -1.23296475692498       -0.62584715142521
N          116.57313456533421       -1.42013604142270       -0.69168013890127
N          119.49439921386087       -1.48413224286451       -0.68311945567998
C          118.07457758657303        4.71888632050645        1.06542826886070
C          117.64267752252728        5.71032609270136        0.17430033853637
O          117.22654180639390        5.27354085935877       -1.04423178329797
C          116.78658707774467        6.19413728322171       -2.02255627689483
C          117.66462862573077        7.05329311089766        0.54894489487326
C          118.11149105301202        7.39886594125273        1.81529890416438
C          118.53711840222576        6.43489393015658        2.71649027591699
C          118.52040006603903        5.09207223187489        2.34072759866777
O          118.90559154882810        4.07575924459801        3.15577529537630
C          119.41423623892379        4.34518242776748        4.44665673730331
H          113.49881306862224        2.51739131286912        0.49257918233599
H          115.39242119940148        4.33653861337005        1.00922375678875
H          117.27094037367895        0.71868667622766       -0.08662196608613
H          120.70678082823297        4.34147021907846        0.89807564703903
H          122.58628635993344        2.48089166912485        0.39337755423374
H          122.54718092912330       -2.62562575061678       -0.97605584013699
H          120.64663388736014       -4.43290329794285       -1.52686738989390
H          117.65859591758118       -5.31364720103788        2.66999646640523
H          118.59744416225848       -6.63818700215467        1.93224199580691
H          116.81517907228694       -6.60747031515991        1.77826371053219
H          117.86299587971722       -7.79657271896724        0.01904296342981
H          118.02383006077453       -8.62464400684302       -2.29410511837728
H          118.14335482945779       -7.02366493026904       -4.18570444761324
H          117.83550029690133       -2.90717771138726       -5.19597326107154
H          116.85264582415535       -2.95249195748407       -3.70886910320783
H          118.59546063740373       -2.56024190300238       -3.62298024205538
H          115.34932841241692       -4.40897316764440       -1.52126230777076
H          113.46076161331089       -2.55907797259732       -0.98510520364851
H          118.77928641383431       -0.79456308009983       -0.47741972304066
H          117.58116209743213        6.89822582699759       -2.29743978584587
H          115.90779593743589        6.75428551087214       -1.68071513287074
H          116.51488330957568        5.60063106173852       -2.89746439856452
H          117.33851803144336        7.82650988188699       -0.13361365303819
H          118.12693771857995        8.44325401140110        2.10695906485004
H          118.87600636301218        6.73275263757130        3.69962811269413
H          120.31304116908541        4.97186304941186        4.40067715039871
H          119.67378718610057        3.37691945978543        4.87857119618549
H          118.66406551702097        4.83291276387910        5.08084513497934
C          128.06577252962953       -0.03166594611512       -0.22988436852816