219
 energy: -352.759854446562 gnorm: 1.502773562279 xtb: 6.5.1 (b24c23e)
Co          24.94470100000000       -0.01754900000000       -0.01853200000000
C           21.58601200000000        0.18571200000000       -0.25384200000000
C           22.25033200000000        1.28654800000000        0.10763300000000
C           21.60068200000000        2.53003700000000        0.50507900000000
C           22.54339700000000        3.40587600000000        0.79523100000000
C           23.84911800000000        2.76510900000000        0.58791900000000
N           23.66995300000000        1.41655300000000        0.15484700000000
C           25.04429100000000        3.36061700000000        0.77419300000000
C           26.33960799999999        2.66915600000000        0.54637100000000
C           27.63637800000000        3.35579800000000        0.54726800000000
C           28.56956100000000        2.45283000000000        0.33020100000000
N           26.47247800000000        1.39490700000000        0.33442600000000
C           27.87593500000000        1.17782700000000        0.18690900000000
C           28.46752400000000       -0.01228400000000       -0.01207900000000
C           27.70895500000000       -1.27875900000000       -0.15318800000000
C           28.26614400000000       -2.48328400000000       -0.13687300000000
C           27.21890800000000       -3.44886700000000       -0.39684800000000
C           26.08474000000000       -2.77453500000000       -0.55165100000000
C           24.78278700000000       -3.39908500000000       -0.91028400000000
C           24.75772000000000       -4.84087900000000       -1.24484900000000
C           24.69124400000000       -5.25393100000000       -2.58310900000000
C           24.68660200000000       -6.61984000000000       -2.90261300000000
C           24.58082000000000       -7.05971100000000       -4.33294000000000
C           24.71440800000000       -7.57187800000000       -1.87165900000000
C           24.77147100000000       -7.16678600000000       -0.52981800000000
C           24.83821600000000       -8.19737300000000        0.55871300000000
C           24.80300900000000       -5.79839000000000       -0.22134700000000
C           23.62964200000000       -2.70468500000000       -0.92414200000000
C           22.30897200000000       -3.24512600000000       -1.24266400000000
C           21.45371799999999       -2.26062200000000       -1.05322700000000
C           22.21740100000000       -1.09268300000000       -0.61762100000000
N           23.48761900000000       -1.33967500000000       -0.53845400000000
N           26.30495900000000       -1.36932100000000       -0.40466800000000
C           25.09382300000000        4.77088200000000        1.21889300000000
C           24.77834000000000        5.80637300000000        0.32711300000000
C           24.82132500000000        7.14264900000000        0.75040000000000
C           24.50118100000000        8.25166400000000       -0.20814100000000
C           25.22196200000000        7.44075900000000        2.06142800000000
C           25.56299000000000        6.41220200000000        2.95247400000000
C           25.94532100000000        6.73297300000000        4.36713500000000
C           25.48187400000000        5.07731600000000        2.53045600000000
H           20.50306100000000        0.22269100000000       -0.27212100000000
H           20.53606800000000        2.71659000000000        0.56445500000000
H           22.35746400000000        4.41856200000000        1.12786100000000
H           27.81630200000000        4.41270700000000        0.69373100000000
H           29.63179900000000        2.65034400000000        0.27545900000000
H           29.31178300000000       -2.71474700000000        0.01331100000000
H           27.35447000000000       -4.51855300000000       -0.48329200000000
H           24.64715900000000       -4.51252300000000       -3.37291500000000
H           25.08331900000000       -8.03947300000000       -4.48049700000000
H           23.51049900000000       -7.15616600000000       -4.61046500000000
H           25.06534400000000       -6.32105600000000       -5.00707100000000
H           24.69327200000000       -8.62834200000000       -2.11315400000000
H           24.66965300000000       -7.74215300000000        1.55902900000000
H           24.05944700000000       -8.97230900000000        0.39523600000000
H           25.83739500000000       -8.68141200000000        0.54953700000000
H           24.85977600000000       -5.47467400000000        0.81207400000000
H           22.05512200000000       -4.24848100000000       -1.55776200000000
H           20.38211799999999       -2.32213400000000       -1.19039500000000
H           24.49431400000000        5.57086900000000       -0.69192100000000
H           24.01227800000000        9.09551800000000        0.32389100000000
H           23.80999000000000        7.89977600000000       -1.00308500000000
H           25.43846200000000        8.61533000000000       -0.67807700000000
H           25.26777800000000        8.47357500000000        2.38750600000000
H           25.03586000000000        6.74020300000000        5.00214700000000
H           26.43544899999999        7.72786000000000        4.42568500000000
H           26.65664400000000        5.97576600000000        4.76194700000000
H           25.72393700000000        4.27637200000000        3.21936900000000
Co          63.87435000000000       -0.00462100000000       -0.00881900000000
C           67.23303900000001        0.16480900000000       -0.26954800000000
C           66.56871900000000       -0.48881200000000       -1.22625300000000
C           67.21836900000000       -1.21669000000000       -2.30996000000000
C           66.27565400000000       -1.73917600000000       -3.07041500000000
C           64.96993300000000       -1.36169200000000       -2.51268100000000
N           65.14909800000000       -0.57034800000000       -1.33797600000000
C           63.77476000000000       -1.70637100000000       -3.03280000000000
C           62.47944400000000       -1.29507600000000       -2.43208600000000
C           61.18267300000000       -1.48707400000000       -3.09133900000000
C           60.24949000000000       -1.02723300000000       -2.28448400000000
N           62.34657299999999       -0.73680400000000       -1.26719800000000
C           60.94311600000000       -0.53469000000000       -1.09976100000000
C           60.35152699999999       -0.01228400000000       -0.01207900000000
C           61.11009599999999        0.47578700000000        1.16506000000000
C           60.55290700000000        0.79541200000000        2.32651800000000
C           61.60014300000000        1.31389500000000        3.18157000000000
C           62.73431200000000        1.27487000000000        2.49080000000000
C           64.03626500000000        1.79318000000000        2.99083400000000
C           64.06133100000000        2.51586500000000        4.28251200000000
C           64.12780700000000        3.91620900000000        4.30671600000000
C           64.13244899999999        4.60330500000000        5.52970100000000
C           64.23823100000000        6.09954200000000        5.55403600000000
C           64.10464300000000        3.87810900000000        6.73109000000000
C           64.04758000000000        2.47654100000000        6.71552800000000
C           63.98083500000000        1.71791100000000        8.00838900000000
C           64.01604200000000        1.79935100000000        5.48708300000000
C           65.18940900000000        1.61319500000000        2.32002300000000
C           66.51007900000000        2.06956700000000        2.75043800000000
C           67.36533300000001        1.61356700000000        1.85757800000000
C           66.60165000000001        0.87006700000000        0.85705700000000
N           65.33143200000001        0.86278200000000        1.11632400000000
N           62.51409199999999        0.74253700000000        1.18204000000000
C           63.72522800000000       -2.52606000000000       -4.26353800000000
C           64.04071100000000       -1.95777000000000       -5.50634000000000
C           63.99772600000000       -2.73629700000000       -6.67197300000000
C           64.31787000000000       -2.12435000000000       -8.00397900000000
C           63.59708900000000       -4.07849000000000       -6.59336000000000
C           63.25606100000000       -4.64800600000000       -5.35742100000000
C           62.87373000000000       -6.09604500000000       -5.27172400000000
C           63.33717700000000       -3.87108500000000       -4.19276900000000
H           68.31598999999999        0.17207100000000       -0.31015300000000
H           68.28298300000000       -1.32565000000000       -2.47261100000000
H           66.46158699999999       -2.34055300000000       -3.95048200000000
H           61.00274900000000       -1.92195300000000       -4.06570500000000
H           59.18725199999999       -1.02963600000000       -2.48942900000000
H           59.50726800000000        0.71559500000000        2.59063900000000
H           61.46458100000000        1.69468400000000        4.18491500000000
H           64.17189200000000        4.46841800000000        3.37475900000000
H           63.73573200000000        6.51399700000000        6.45400000000000
H           65.30855200000001        6.39294800000000        5.56942600000000
H           63.75370700000000        6.54141500000000        4.65692200000000
H           64.12577899999999        4.40414000000000        7.67857500000000
H           64.14939800000001        0.63041500000000        7.84961200000000
H           64.75960499999999        2.09064000000000        8.70719000000000
H           62.98165599999999        1.86146300000000        8.47074300000000
H           63.95927500000000        0.71666500000000        5.46382800000000
H           66.76393000000000        2.65150800000000        3.62642400000000
H           68.43693300000000        1.76243700000000        1.87847600000000
H           64.32473700000000       -0.91345700000000       -5.56380600000000
H           64.80677300000001       -2.87025200000000       -8.66638200000000
H           65.00906200000000       -1.26287300000000       -7.88728200000000
H           63.38058899999999       -1.77421900000000       -8.48408400000000
H           63.55127299999999       -4.67917800000000       -7.49458600000000
H           63.78319100000000       -6.70797200000000       -5.10190500000000
H           62.38360200000000       -6.42922000000000       -6.21099100000000
H           62.16240700000000       -6.26447400000000       -4.43454400000000
H           63.09511400000000       -4.30981600000000       -3.23171300000000
C           30.88421300000000        0.00194100000000       -0.00212800000000
C           32.34244000000000       -0.01989500000000       -0.02000100000000
C           33.47636800000000       -0.04064900000000       -0.02149200000000
C           34.83775000000000       -0.05323900000000       -0.02368300000000
C           36.11196800000000       -0.04293200000000       -0.02844900000000
C           37.30043100000000       -0.02413400000000       -0.03460500000000
C           38.65279200000000        0.00065000000000       -0.01873700000000
C           39.75305900000000        0.00194100000000       -0.00212800000000
C           48.94587799999999        0.00194100000000       -0.00212800000000
C           50.40410400000000       -0.01989500000000       -0.02000100000000
C           51.53803199999999       -0.04064900000000       -0.02149200000000
C           52.89941399999999       -0.05323900000000       -0.02368300000000
C           54.17363300000000       -0.04293200000000       -0.02844900000000
C           55.36209499999999       -0.02413400000000       -0.03460500000000
C           56.71445600000000        0.00065000000000       -0.01873700000000
C           57.81472300000000        0.00194100000000       -0.00212800000000
Co          44.30716100000000       -0.06943500000000       -0.03016200000000
C           40.93779899999999        0.02447200000000        0.02502700000000
C           41.59406800000000        1.19539200000000       -0.07363800000000
C           40.95410300000000        2.51243600000000       -0.08853900000000
C           41.89026600000000        3.42602300000000       -0.25011800000000
C           43.18670600000000        2.74759300000000       -0.35019100000000
N           43.00852600000000        1.33434800000000       -0.22908400000000
C           44.37075600000000        3.36751000000000       -0.54057700000000
C           45.66807799999999        2.64488900000000       -0.57576300000000
C           46.93705299999999        3.26207900000000       -0.98295800000000
C           47.88979100000000        2.36558500000000       -0.82816100000000
N           45.83604400000000        1.41728100000000       -0.19397300000000
C           47.23467800000000        1.16414100000000       -0.32722900000000
C           47.84961000000000        0.02447200000000        0.02502700000000
C           47.09843000000000       -1.15948100000000        0.49284900000000
C           47.63292900000000       -2.17189500000000        1.16367600000000
C           46.60051500000000       -3.17966200000000        1.31362800000000
C           45.50688600000000       -2.71505400000000        0.72002900000000
C           44.25391000000000       -3.48765000000000        0.54357900000000
C           44.31724400000000       -4.96721700000000        0.62958000000000
C           43.61957000000000       -5.65186300000000        1.63671500000000
C           43.69524800000000       -7.04896500000000        1.72911600000000
C           42.98517000000000       -7.76836800000000        2.83714500000000
C           44.50063000000000       -7.75943700000000        0.82636200000000
C           45.19583900000000       -7.08543400000000       -0.18853700000000
C           46.08038700000000       -7.84988900000000       -1.12837400000000
C           45.11296700000000       -5.68791200000000       -0.27307300000000
C           43.08200400000000       -2.87526400000000        0.28722100000000
C           41.80719400000000       -3.53512700000000        0.02493800000000
C           40.91893100000000       -2.57261500000000       -0.11796200000000
C           41.61550000000000       -1.29218000000000        0.04578100000000
N           42.87979099999999       -1.46216500000000        0.27963400000000
N           45.73091700000000       -1.41586000000000        0.17590600000000
C           44.40515299999999        4.83842900000000       -0.71357400000000
C           44.99252700000000        5.64721200000000        0.27008300000000
C           45.04098000000000        7.03942900000000        0.10829100000000
C           45.71273799999999        7.89454300000000        1.14185700000000
C           44.52223699999999        7.61849300000000       -1.05988400000000
C           43.92170200000000        6.81887000000000       -2.04400900000000
C           43.39985100000000        7.44152500000000       -3.30437700000000
C           43.87963700000000        5.42739600000000       -1.87358500000000
H           39.90010400000000        2.73206500000000        0.01619700000000
H           41.70497100000000        4.49175500000000       -0.28927700000000
H           47.08636500000000        4.27069600000000       -1.34552300000000
H           48.93939400000000        2.52077000000000       -1.03982000000000
H           48.65681900000000       -2.25504800000000        1.50323700000000
H           46.71699600000000       -4.14763200000000        1.78323500000000
H           43.02567699999999       -5.09529300000000        2.35243400000000
H           42.74631099999999       -8.81242800000000        2.54037700000000
H           43.63317700000000       -7.78750000000000        3.73812800000000
H           42.03227800000000       -7.25568200000000        3.08751100000000
H           44.58800400000000       -8.83629200000000        0.91390000000000
H           46.22923200000000       -7.29030900000000       -2.07706800000000
H           45.62343100000000       -8.83167500000000       -1.37728500000000
H           47.06840799999999       -8.01887400000000       -0.65014500000000
H           45.66615100000000       -5.15904600000000       -1.04039400000000
H           41.60456400000000       -4.59517300000000       -0.05194300000000
H           39.86950900000000       -2.72609000000000       -0.33001200000000
H           45.41335100000000        5.19087800000000        1.15874700000000
H           45.27934200000000        8.91735300000000        1.14813200000000
H           46.79744600000000        7.96252600000000        0.91615800000000
H           45.57940099999999        7.45991800000000        2.15527300000000
H           44.58562700000000        8.69073000000000       -1.20357300000000
H           42.97360799999999        8.44539300000000       -3.09398100000000
H           42.59867000000000        6.81504000000000       -3.75235000000000
H           44.22880100000000        7.54510700000000       -4.03564200000000
H           43.44395200000000        4.80038200000000       -2.64312300000000
219
 energy: -353.217285346733 gnorm: 0.565891066561 xtb: 6.5.1 (b24c23e)
Co          24.95064565837796       -0.01271015976666       -0.02510729093400
C           21.58694571175278        0.17234687668215       -0.25808184273151
C           22.25747816480558        1.28656519726141        0.10851782291422
C           21.60037284580454        2.52440008806247        0.50298853097594
C           22.55164056896218        3.40711529806353        0.79564995234539
C           23.84866773671348        2.75726373052786        0.58635212093112
N           23.66069850205908        1.42250672631836        0.16011840979285
C           25.05711303638514        3.35754289864903        0.77208478040750
C           26.33260016153558        2.67999504679114        0.54940504472172
C           27.62586870352705        3.36243702464693        0.55044601260098
C           28.56975392131741        2.44694474626459        0.32829790044685
N           26.47570300787808        1.38684571792239        0.33196885424750
C           27.88384781613185        1.17387540381072        0.18634183685440
C           28.46255899791754       -0.02456937851407       -0.01369468683790
C           27.70769885122692       -1.26240771788485       -0.15434091381574
C           28.26740906961963       -2.50141585575816       -0.13876410097619
C           27.23631210921791       -3.44993419235988       -0.39540620250839
C           26.07297716397417       -2.76184946542326       -0.55349587423123
C           24.79447830792416       -3.39207784462170       -0.90684719298094
C           24.76195097126984       -4.84183122521800       -1.24466663443760
C           24.69153874127939       -5.25612330162925       -2.58022421988554
C           24.68475168367367       -6.61892720558126       -2.89933829893481
C           24.58223227679790       -7.06006882893099       -4.33451547645762
C           24.71470432726037       -7.56739638715022       -1.87074615417627
C           24.77219079864611       -7.16415641238376       -0.53163352510216
C           24.83728185381638       -8.19816152826111        0.56018834349066
C           24.80359088874910       -5.79960557187581       -0.22449663930500
C           23.63010534071348       -2.70097125483793       -0.92308899498641
C           22.31636177460398       -3.24499760192722       -1.24189826240651
C           21.44765849946455       -2.25088736285431       -1.05090316771680
C           22.20456972717883       -1.08376879758970       -0.61499004524249
N           23.49335860261749       -1.34220015242790       -0.53925615532771
N           26.30390507866895       -1.36871576890870       -0.40101596146460
C           25.09744446619876        4.77344799849550        1.21874488016984
C           24.77819198462061        5.80751559147760        0.33071083972690
C           24.82314794093393        7.14053216654202        0.75187387818770
C           24.49951069300076        8.25275149905861       -0.20878929483329
C           25.22173218121939        7.43664505884109        2.06017515271741
C           25.56041060182883        6.41163436262768        2.95026142051485
C           25.94725343827341        6.73335000057828        4.36827024357340
C           25.48228914519019        5.08034953914492        2.52827167318210
H           20.50353844525879        0.21972169231052       -0.27347278057955
H           20.53639953377580        2.71176003540054        0.56272776372292
H           22.36373381050591        4.41884703324816        1.12786599711496
H           27.81124604780685        4.41485521006994        0.69472196020971
H           29.63141471962911        2.64417801452024        0.27447078068220
H           29.31227057755232       -2.71760459304413        0.01311195791592
H           27.35723772574832       -4.51858485753996       -0.48231701215696
H           24.64771207611111       -4.51346364665754       -3.37168238142498
H           25.07979685051693       -8.03502547453167       -4.48016230510136
H           23.51639688558237       -7.15608303747199       -4.61049004065596
H           25.06187012206760       -6.32463973551078       -5.00431687147465
H           24.69349439155318       -8.62667834954491       -2.11283599809761
H           24.67112225256779       -7.74464119138961        1.55377493360808
H           24.06414066238305       -8.96960256198403        0.39649442991312
H           25.83178251375930       -8.67999282339880        0.55047473911843
H           24.85954912893864       -5.47523551322078        0.81063504334590
H           22.06112754411488       -4.24804578216734       -1.55720687840945
H           20.38035395189301       -2.31779517558511       -1.18946821546627
H           24.49452042432669        5.57097866214730       -0.69050025129452
H           24.01550835329931        9.09217706261640        0.32074689951371
H           23.81415873612709        7.90180796339169       -0.99990456316779
H           25.43295040206208        8.61454353855404       -0.67649287530774
H           25.26779082260664        8.47201594023013        2.38703825439026
H           25.04122721745477        6.74046848994001        5.00022757534675
H           26.43228575467501        7.72332958334846        4.42616916014407
H           26.65235710441795        5.97937283849572        4.76089049590182
H           25.72388434353477        4.27736351819042        3.21834562138768
Co          63.86880165662298        0.00018331805660       -0.01510215654668
C           67.23215656627461        0.17259021974450       -0.25796330894931
C           66.56167091109818       -0.48958716123493       -1.22603240015344
C           67.21865310049870       -1.21307510836761       -2.30507908250679
C           66.26734952199124       -1.73991100212246       -3.07148251334045
C           64.97029172201594       -1.35817782452531       -2.50578372602585
N           65.15814856260134       -0.57691535498572       -1.34198540556143
C           63.76222195404009       -1.70372690041437       -3.03044258186094
C           62.48633583319573       -1.30106955985362       -2.44144388461377
C           61.19318866374252       -1.49186818737715       -3.09682263648386
C           60.24935939525120       -1.02384783184919       -2.27910082253021
N           62.34330079482664       -0.73172960330051       -1.26079755927526
C           60.93558510191686       -0.53272767817845       -1.09592869642371
C           60.35527413538986       -0.00798944328938       -0.00042716421895
C           61.11202283404736        0.47259781036269        1.14880231180890
C           60.55174826397697        0.80228594762076        2.34284583691164
C           61.58314737959438        1.31284106728199        3.18309788018366
C           62.74610756395066        1.27329149501689        2.47832228283362
C           64.02471379696036        1.78799337080193        2.98517315782475
C           64.05714169402656        2.51601049449294        4.28348255222479
C           64.12751945683394        3.91407170945444        4.30963830812420
C           64.13429338733785        4.59990840598028        5.52973969660656
C           64.23681935193821        6.10115850760880        5.55394367079434
C           64.10434705426051        3.87598667787656        6.72704168946436
C           64.04685876345091        2.47755370188269        6.71249014806441
C           63.98176841742043        1.71671396902417        8.00955621928870
C           64.01546091555157        1.80272249605261        5.48736565658045
C           65.18892460821499        1.61116897484853        2.31688141556622
C           66.50266590338997        2.06880124717855        2.75052681172131
C           67.37138407975672        1.60859484544674        1.84888054485195
C           66.61447991165407        0.86508227864334        0.84925594754904
N           65.32577858814554        0.86435365719220        1.11843359633626
N           62.51498101342850        0.73837319270775        1.18272302364640
C           63.72167230689399       -2.52662965116655       -4.26606880285879
C           64.04086927123514       -1.96154857985446       -5.50645444484093
C           63.99589587210547       -2.73712202176802       -6.66953324216209
C           64.31953860937286       -2.12403073223469       -8.00520819657307
C           63.59732002673397       -4.07614152224681       -6.58976100821467
C           63.25863961409547       -4.64570966623358       -5.35748592049378
C           62.87179956910414       -6.09723989169424       -5.27176910649293
C           63.33676205791544       -3.86982479307219       -4.19629516824899
H           68.31553112878800        0.17417482183817       -0.30767382187134
H           68.28264048611810       -1.32264792682266       -2.46843519611696
H           66.45531997668726       -2.34063292937853       -3.95074666855348
H           61.00784319939595       -1.92348409218642       -4.06749964284336
H           59.18778082103245       -1.02702721928891       -2.48392436316774
H           59.50689365239687        0.71654658185641        2.59326112253451
H           61.46188707962138        1.69373738348589        4.18527127804601
H           64.17133960396865        4.46749891275463        3.37600784442601
H           63.73925322968266        6.51244051267475        6.44982296367138
H           65.30265577712359        6.39295138051959        5.56933950635344
H           63.75718044789348        6.53976797362620        4.66113074660958
H           64.12555722394623        4.40337250144439        7.67706840987407
H           64.14792858704810        0.63615390971910        7.85053924772442
H           64.75491195301058        2.08867775497655        8.70494194629593
H           62.98726801654097        1.86016661675000        8.46964122620789
H           63.95950294354845        0.71820636824637        5.46396310393124
H           66.75792478242801        2.65084965373214        3.62616184619422
H           68.43869258263445        1.76033858100457        1.87455711989057
H           64.32453105298637       -0.91485354865497       -5.56351866460730
H           64.80354432832611       -2.86630302508850       -8.66405196946809
H           65.00489352261286       -1.26649322808740       -7.88834870618273
H           63.38609983482679       -1.77552003961362       -8.48288992628998
H           63.55126017316115       -4.67829748151156       -7.49322227534824
H           63.77782495247179       -6.70620598705070       -5.10269366975885
H           62.38676391152967       -6.42842497393832       -6.20650572940163
H           62.16669307760218       -6.26446331701025       -4.43830227651426
H           63.09516860138416       -4.30910777703012       -3.23295235615803
C           30.89846415146874        0.00146345241415       -0.00166186122046
C           32.25268456145687       -0.02006408431713       -0.02011096909464
C           33.51561168540989       -0.04109281384926       -0.02147072815535
C           34.80492428136498       -0.05304395406740       -0.02353024167625
C           36.08077925133812       -0.04326233155707       -0.02873568724228
C           37.29492514842219       -0.02366147612254       -0.03523585446287
C           38.56991512637956       -0.00054916534413       -0.01932292653371
C           39.75409876425626       -0.00400846214159       -0.00106352144547
C           49.05458518082803       -0.01075364421536       -0.00162778189346
C           50.35522590229505       -0.02039931484392       -0.01949899694027
C           51.59067429437464       -0.04140840689550       -0.02206442276244
C           52.87833110144133       -0.05338758036198       -0.02377689692439
C           54.15420070160870       -0.04321267395803       -0.02841928894430
C           55.37342427009754       -0.02372529675319       -0.03475596745481
C           56.69534447969683        0.00047311317297       -0.01945388151135
C           57.91049034360405        0.00210873280363       -0.00081329440470
Co          44.31307229235917       -0.06329222034235       -0.03020292220964
C           41.01416208712352        0.01264333733728        0.02403699550829
C           41.62820524136500        1.21059566882678       -0.07426411111156
C           40.95540385776413        2.50384279166045       -0.08801724086953
C           41.89982959872716        3.42836313629566       -0.25127457120567
C           43.18654195462752        2.74298730116506       -0.34961839483201
N           43.00686761989930        1.34498977570362       -0.22495391798684
C           44.38346922918926        3.36648660746586       -0.54246352919813
C           45.65964190545109        2.66359882005117       -0.57865858545051
C           46.92262102143796        3.27297996925777       -0.98260353319210
C           47.88539693993491        2.35771860150591       -0.82533391756076