219
 energy: -353.811546493234 gnorm: 0.000902937641 xtb: 6.5.1 (b24c23e)
Co          25.91803709994754        0.12035428454026       -0.35726165161323
C           22.63337077778590        0.34185468037516       -1.05450397089387
C           23.21974975129019        1.37766821922818       -0.35738433823537
C           22.50282059005797        2.50786916008724        0.14873057273077
C           23.41603355136532        3.31485341854157        0.73886983523501
C           24.69716068774380        2.69976262685623        0.54757950792644
N           24.55547471844874        1.48011062635796       -0.06592672324147
C           25.90916551726551        3.32823399990611        0.79907759019604
C           27.12052584839048        2.72594631262577        0.49001657108876
C           28.38259141470066        3.40043007170842        0.52573953480626
C           29.32491573750991        2.48625287844940        0.19005216560178
N           27.28866564973055        1.41431344902400        0.11437307044070
C           28.63872513003017        1.25135978688680       -0.02263929105404
C           29.29386461701355        0.02442713916277       -0.16286488008790
C           28.59005951796421       -1.18325828263929       -0.22380494755833
C           29.21807085661921       -2.46527666204561       -0.17280536829853
C           28.23377646405141       -3.38578294186117       -0.31098541878453
C           27.01010443559753       -2.66036580707769       -0.47959452907087
C           25.82933491743573       -3.24001228828031       -0.91462700018455
C           25.78467612888357       -4.71023383977724       -1.10837399920155
C           25.67537138441929       -5.24919124010722       -2.38801038111423
C           25.64043539157245       -6.62835015488815       -2.57198985969283
C           25.50742661024844       -7.20204374668107       -3.95683039057636
C           25.71062735292634       -7.46504324613396       -1.46361643383151
C           25.82209152683128       -6.93999642671334       -0.17819726662419
C           25.90747961795412       -7.86495767741054        1.00570705183316
C           25.86263529394589       -5.56146899043193       -0.00675022768417
C           24.71402051434674       -2.47755906177884       -1.23930942622096
C           23.51573066332024       -3.00476603228186       -1.82293253285290
C           22.64123449491092       -1.97605166790563       -1.92182593429495
C           23.29023041049140       -0.83096553478308       -1.35879164702252
N           24.57373368599977       -1.13903151985746       -0.98132159680001
N           27.23942874681963       -1.30603711979681       -0.37388332291268
C           25.92020254563986        4.70966515163995        1.33418158936553
C           25.31426059387228        5.74736801908700        0.62677799877845
C           25.33409799636008        7.04600881363065        1.12318666867932
C           24.70229109955543        8.16800981118243        0.34436796105269
C           25.96455567637375        7.30243220557848        2.33726397716669
C           26.57690787489771        6.27810997833682        3.05328594361888
C           27.23909716528953        6.56547889583190        4.37362597702486
C           26.55431099432660        4.98375195471718        2.54520405438482
H           21.58439077691199        0.42546297205453       -1.31362205306741
H           21.43566389249522        2.64090591389247        0.06754391543592
H           23.25175990030016        4.25038660021653        1.24843868331001
H           28.51630035432087        4.44331633128637        0.76297310459161
H           30.39248957411544        2.61482514658451        0.11203968886436
H           30.27676210052578       -2.62329827189911       -0.04395643063335
H           28.31974152767105       -4.45992065270851       -0.33469290941419
H           25.63723817856015       -4.58677334820195       -3.24581604982664
H           25.91903295030718       -8.21037221548973       -4.00212194733434
H           24.45297199739400       -7.25127578672925       -4.23813103827205
H           26.02280344248924       -6.57661517391822       -4.68620768180891
H           25.68172942556707       -8.54120396086326       -1.60042846402112
H           25.87097963636361       -7.30737078966216        1.94131703845854
H           25.08325908192928       -8.57979965801660        0.99106502480407
H           26.84193062596167       -8.42886777675308        0.97465572362087
H           25.94228119856169       -5.13792196806019        0.98838434223059
H           23.37209636488041       -4.03346957181949       -2.11097830469124
H           21.63288263629467       -1.98029644832892       -2.30423784346038
H           24.84310355780904        5.53896577077651       -0.32751754950192
H           24.25058120046885        8.89883619923943        1.01574721682178
H           23.93645643825154        7.78920912239222       -0.33252760997738
H           25.46147470489774        8.67974398038669       -0.25152647758415
H           25.98149519925084        8.31442184525675        2.72872209896319
H           26.50038357810722        6.51922779547502        5.17706213256084
H           27.68043157047715        7.56246341243836        4.37687511433565
H           28.01822216369804        5.83318939605011        4.58562605054923
H           27.01982104525635        4.17484801395612        3.09758690583018
Co          62.91228063855413        0.26575536864201       -0.19299264388136
C           66.20406381762437        0.83807544759828       -0.59909214415105
C           65.60731477685682       -0.11415611363199       -1.39844872373457
C           66.31422145064322       -0.92031254263679       -2.34618444520384
C           65.39043400718828       -1.69128961016562       -2.96685881185866
C           64.11323442793429       -1.32044178867805       -2.43061966097268
N           64.26701182469094       -0.40302153738555       -1.42041750091144
C           62.89707155681857       -1.71255238123941       -2.97084939813110
C           61.69187234886347       -1.23927956360142       -2.47110656703378
C           60.42573104137848       -1.44257168271913       -3.10690808438044
C           59.48952183292879       -0.88017141741528       -2.30476963203089
N           61.53344882169787       -0.53397687260732       -1.30218809148992
C           60.18332482081913       -0.35677254348634       -1.17076226241552
C           59.53850024447622        0.09195112788679       -0.01620499873266
C           60.25062072831238        0.47632210441664        1.12285316555091
C           59.63375580219790        0.77654864480063        2.37574775653935
C           60.62210057771878        1.18245008055756        3.20846463846085
C           61.83779611268609        1.15624989596302        2.45142946709821
C           63.01683023560688        1.74972784793176        2.87330675692357
C           63.06748483440270        2.35746402455146        4.22607246385413
C           63.16610834735693        3.73884606935866        4.37386387289918
C           63.20818513583249        4.31154755653955        5.64166814584488
C           63.33004827352802        5.80391849039996        5.79242050520117
C           63.15575550897877        3.48972039475550        6.76210554192720
C           63.05532867092894        2.10675765532781        6.62931378372691
C           62.98893390209255        1.23765269845894        7.85605618042510
C           63.00783737574365        1.54619175881231        5.35848806622671
C           64.12617527495144        1.84589471245670        2.04389408504238
C           65.32690791379109        2.55417649834263        2.37733696248698
C           66.20204319518444        2.34243129277938        1.36654172796510
C           65.55012832495305        1.47280058668191        0.43474824849743
N           64.26442962313948        1.20905113825885        0.83747278408887
N           61.60150565722250        0.66976784002141        1.18483106353352
C           62.87389077136379       -2.60018823151285       -4.15702333137010
C           63.48439752584632       -2.20766056629726       -5.34756947740214
C           63.45331398532284       -3.03648881576387       -6.46353403762331
C           64.08974555372926       -2.59838048219866       -7.75495304390242
C           62.80730769617055       -4.26665506474048       -6.38179523318850
C           62.19062340833469       -4.67117607742808       -5.20161682741225
C           61.51181437237672       -6.01175161439033       -5.12014421046197
C           62.22447032289511       -3.83219615057720       -4.09301083550433
H           67.25580997987809        1.05106020828950       -0.75021713256424
H           67.38234564325182       -0.89487806188494       -2.49325416243816
H           65.54465392291087       -2.43669617859420       -3.73010105567928
H           60.28542303605638       -1.94072035903093       -4.05242140834771
H           58.42128901818229       -0.83481911522994       -2.44319939252742
H           58.57827669439596        0.68379161404485        2.57534914087382
H           60.54348547038977        1.50661449541218        4.23340489101528
H           63.19116033015438        4.37040458532540        3.49260349153102
H           62.92066357082695        6.13384394906045        6.74729949834702
H           64.38202874651455        6.09592663550010        5.75342698423800
H           62.80641355277589        6.31863344197304        4.98641663234297
H           63.19034950107928        3.93016976377063        7.75332265691028
H           63.04495258811104        0.18202505044585        7.59120733182732
H           63.80986912438294        1.47305004211085        8.53514977047518
H           62.05177572784401        1.41171226450551        8.38867532619337
H           62.93691938100540        0.47061059889648        5.23950278462917
H           65.47165053564946        3.13078731476840        3.27648673103140
H           67.21222816795427        2.70469345782104        1.25992472366813
H           63.96851184906057       -1.23892394358862       -5.40503411778941
H           64.53662822162205       -3.44702731767533       -8.27365609690276
H           64.86028093301337       -1.84872990614487       -7.57475962294315
H           63.33427625352011       -2.16035312014176       -8.41124961445906
H           62.78166300101415       -4.91691403022084       -7.25023271064745
H           62.23985029301266       -6.78060883854388       -4.85143611152899
H           61.07232975525984       -6.28277674936305       -6.08043501421595
H           60.72860792119419       -6.00564489419074       -4.36197166086056
H           61.75547678873637       -4.13934651595409       -3.16463509661214
C           30.69440044074777       -0.00317753368864       -0.16596587956328
C           31.92000472171358       -0.02546667729818       -0.16963053602460
C           33.26021890274077       -0.04799065291203       -0.16051092219586
C           34.49200882926981       -0.06140125798460       -0.14356648862368
C           35.82729553491713       -0.07379517470814       -0.11987126385236
C           37.05940841228571       -0.08100206074412       -0.09503171403942
C           38.39935569961148       -0.08398718184513       -0.06916109399213
C           39.62500266528046       -0.08490973121995       -0.04484156533433
C           49.20320805223700       -0.01714965795777        0.10603677039077
C           50.42783320012480        0.00303435478544        0.11541884125653
C           51.76994587470949        0.02445308849363        0.11856556824677
C           53.00063406300940        0.04735971792620        0.11195139673897
C           54.33820009702455        0.06888135187992        0.09627361923841
C           55.56873571007672        0.08717721903817        0.07592145245007
C           56.91132214734637        0.09393086814118        0.05266775760825
C           58.13541439671778        0.09191065496897        0.02416640908170
Co          44.41302777393458       -0.05361563064594        0.03809892270452
C           41.02455813614393       -0.07839851260489       -0.02609663965063
C           41.69881353180924        1.13665422554561        0.13964471954286
C           41.04522721598174        2.39016244161939        0.34143382697171
C           41.99654635418127        3.34855908713448        0.21571745509630
C           43.22586729763606        2.67446335245268       -0.07215602177670
N           43.04025648970246        1.31185189874410       -0.04649603764897
C           44.39711418659834        3.30545247713040       -0.46904910177738
C           45.57673341218293        2.59954945706074       -0.66661718666175
C           46.80448964635595        3.18108446734641       -1.11759895079638
C           47.76631389991894        2.23955969870409       -0.95327617737418
N           45.77256809012555        1.28481665161236       -0.31359167499520
C           47.12015526586190        1.08383969814595       -0.41829713412375
C           47.80147139616206       -0.03123133395181        0.07945926282684
C           47.11835794749420       -1.16091727566570        0.53994079498211
C           47.75947049701867       -2.31526818671503        1.08350856648292
C           46.80939800908533       -3.27863214557857        1.17781897698549
C           45.59332681926675       -2.70879851337665        0.68309127206273
C           44.43295791919996       -3.42856323228852        0.42543102192746
C           44.44946575781643       -4.89942711335038        0.58944655549692
C           43.55754542714899       -5.52397317144827        1.46067128204662
C           43.56875852258408       -6.90638261920787        1.61135743013873
C           42.61942462320872       -7.57338127290549        2.56961767495766
C           44.47865794039997       -7.66482527746494        0.88077488158447
C           45.37402031902374       -7.05668862782224        0.00565371172538
C           46.36292194806123       -7.88604706193053       -0.76798646848573
C           45.35758555299386       -5.67337189175294       -0.13281776051985
C           43.26198691907189       -2.80530565585500        0.01754831655972
C           42.04555541459403       -3.48988526753902       -0.30069632148197
C           41.08240586279175       -2.54246175050697       -0.41556959912751
C           41.71691406838408       -1.28407941563912       -0.18434952035581
N           43.05911862769703       -1.44400211015237        0.00910108582529
N           45.78232458559087       -1.38637384210577        0.36022677601664
C           44.38844286992502        4.76959826675063       -0.68497941069336
C           45.25790753195393        5.59270547358088        0.02854949896619
C           45.25000258623800        6.97003678774142       -0.16981408981380
C           46.20161713106678        7.84572237959170        0.59961558777448
C           44.36877649375610        7.52017816899754       -1.09434985597471
C           43.49437703267952        6.71110928569455       -1.81595613050393
C           42.55978446625706        7.31971264138132       -2.82606598711268
C           43.50712759852815        5.33756442625533       -1.60568936275197
H           39.99230186824299        2.50675969272890        0.54179946343200
H           41.88569382859527        4.41691590055971        0.30574657246427
H           46.90795113242203        4.18242183899823       -1.50265983692730
H           48.82169904688195        2.30951930529416       -1.16210375135619
H           48.80451271605665       -2.37005455885352        1.34296371715221
H           46.91290213448989       -4.28658651170077        1.54540477580372
H           42.86256664183147       -4.92146303670447        2.03521564406362
H           42.34573164821587       -8.56749139191130        2.21539424075856
H           43.09385012955601       -7.68047722164586        3.54777014494416
H           41.71317037142980       -6.98063516857440        2.69484964376845
H           44.48782444199696       -8.74424280468018        0.99204809218789
H           46.66360052131015       -7.37835203180215       -1.68452423760573
H           45.93843783681532       -8.85700239493724       -1.02432570907220
H           47.25705130802595       -8.05581764028006       -0.16376850743408
H           46.03884421930800       -5.18914424531771       -0.82385630970309
H           41.94978012712765       -4.55753108015497       -0.41305434999758
H           40.03320018305715       -2.66907059468332       -0.62895924246938
H           45.92920859931778        5.15482377363682        0.75914726785604
H           45.87539218404401        8.88552437557550        0.58382448342172
H           47.19779388397576        7.79215014364791        0.15480560126994
H           46.27748490159618        7.51503612634406        1.63602675613702
H           44.35900970532558        8.59346457361857       -1.25414488950898
H           42.16252605362823        8.26784575915643       -2.46223997737571
H           41.72883176210382        6.64836646297369       -3.04239204076306
H           43.09503109639136        7.51315593949133       -3.75838060315813
H           42.84111781840014        4.69531479554238       -2.17140112136246
