184
 energy: -299.562441854019 gnorm: 2.614870827564 xtb: 6.5.1 (b24c23e)
C           24.44666500000000       -0.02667000000000        0.07774500000000
C           25.18054100000000        1.19638800000000        0.70890700000000
C           24.58647100000000        2.21689200000000        1.41592800000000
C           25.61155600000000        3.13851500000000        1.75521200000000
C           26.79597400000000        2.65366900000000        1.23429700000000
N           26.52876200000000        1.44111700000000        0.64913100000000
C           28.21611600000000        3.35859200000000        1.27199200000000
C           28.20785000000000        4.79322100000000        1.59256000000000
C           27.89827100000000        5.68516800000000        0.62695000000000
C           27.82934000000000        7.16611500000000        0.83303300000000
N           28.27613800000000        7.55532800000000        2.16864500000000
C           28.51478800000000        6.62538000000000        3.15382200000000
C           28.50864100000000        5.30687900000000        2.92343700000000
C           29.34211500000000        2.65919600000000        0.96847900000000
C           30.64153300000000        3.29697700000000        0.93903600000000
C           31.54437100000000        2.39032100000000        0.58332800000000
N           29.53997700000000        1.34658100000000        0.62902700000000
C           30.86899300000000        1.12312700000000        0.37735000000000
C           31.53530900000000       -0.00058700000000        0.00052400000000
C           30.75747000000000       -1.37043500000000       -0.19649600000000
C           31.29732100000000       -2.63789800000000       -0.09713000000000
C           30.27130400000000       -3.56522100000000       -0.40740900000000
C           29.12996900000000       -2.83944300000000       -0.67751500000000
N           29.42276700000000       -1.50812700000000       -0.49170900000000
C           27.71674700000000       -3.42220400000000       -1.10153600000000
C           27.72662900000000       -4.75655400000000       -1.71481400000000
C           27.33508500000000       -5.82767200000000       -0.99019700000000
C           27.26448400000000       -7.22683900000000       -1.51779600000000
N           27.82218500000000       -7.33669000000000       -2.86497900000000
C           28.12613900000000       -6.21855200000000       -3.60958900000000
C           28.10803500000000       -4.97956900000000       -3.10347600000000
C           26.59538100000000       -2.68016400000000       -0.90531600000000
C           25.27502700000000       -3.14423400000000       -1.29251900000000
C           24.38886000000000       -2.21103300000000       -0.95643300000000
C           25.10965200000000       -1.11536000000000       -0.35549000000000
N           26.43073700000000       -1.43811800000000       -0.35831500000000
H           23.36948000000000        0.02429700000000       -0.02395800000000
H           23.53602000000000        2.29627800000000        1.64909200000000
H           25.49527900000000        4.06461200000000        2.29757900000000
H           27.22366500000000        0.81877400000000        0.24420800000000
H           27.67105100000000        5.31601900000000       -0.36962100000000
H           26.79762200000000        7.50420700000000        0.68499500000000
H           28.45789299999999        7.67023200000000        0.09157100000000
H           27.97395400000000        8.46599500000000        2.48975700000000
H           28.72073100000000        7.03076500000000        4.13821700000000
H           28.71621800000000        4.58028200000000        3.70173700000000
H           30.84476000000000        4.33077400000000        1.15655800000000
H           32.59577600000000        2.58534900000000        0.47533200000000
H           32.32009600000000       -2.87316000000000        0.15643600000000
H           30.35620000000000       -4.64129200000000       -0.43864700000000
H           28.73993800000000       -0.75536600000000       -0.51552800000000
H           27.02637900000000       -5.67294500000000        0.04109400000000
H           26.21950600000000       -7.55551900000000       -1.53042300000000
H           27.82001900000000       -7.89741500000000       -0.85409800000000
H           27.49732100000000       -8.12965400000000       -3.40357100000000
H           28.38866700000000       -6.40587300000000       -4.64500300000000
H           28.35901200000000       -4.10676800000000       -3.69728900000000
H           25.05131900000000       -4.07888800000000       -1.77387300000000
H           23.32615900000000       -2.25342100000000       -1.11236200000000
C           60.10515999999999       -0.01912500000000        0.07989500000000
C           59.37128400000000       -1.39116800000000       -0.02843700000000
C           59.96535400000000       -2.63106800000000        0.03446500000000
C           58.94026900000000       -3.59309900000000       -0.16301200000000
C           57.75585099999999       -2.90649800000000       -0.35011400000000
N           58.02306200000000       -1.56762900000000       -0.20823300000000
C           56.33570900000000       -3.52540900000000       -0.68965600000000
C           56.34397500000000       -4.91352500000000       -1.17344900000000
C           56.65355300000000       -5.16251100000000       -2.46417700000000
C           56.72248400000000       -6.52964300000000       -3.06967500000000
N           56.27568699999999       -7.56441200000000       -2.13983800000000
C           56.03703700000000       -7.29344600000000       -0.81245200000000
C           56.04318400000000       -6.05155200000000       -0.31323200000000
C           55.20970900000000       -2.77108000000000       -0.57891800000000
C           53.91029099999999       -3.29754300000000       -0.94012200000000
C           53.00745400000000       -2.33957300000000       -0.76449000000000
N           55.01184800000000       -1.47669600000000       -0.17548700000000
C           53.68283100000000       -1.15414400000000       -0.27157500000000
C           53.01651600000000       -0.00058700000000        0.00052400000000
C           53.79435500000000        1.26735500000000        0.55516200000000
C           53.25450399999999        2.29206200000000        1.30769900000000
C           54.28052000000000        3.24364800000000        1.53282900000000
C           55.42185600000000        2.76926300000000        0.92072700000000
N           55.12905800000000        1.53997600000000        0.37687000000000
C           56.83507700000000        3.48799700000000        0.86757800000000
C           56.82519599999999        4.94518800000000        1.04977000000000
C           57.21673900000000        5.47346500000000        2.23014600000000
C           57.28734100000000        6.94057400000000        2.51931300000000
N           56.72964000000000        7.74404200000000        1.43238900000000
C           56.42568500000000        7.18634700000000        0.21023700000000
C           56.44379000000000        5.86668700000000       -0.01275400000000
C           57.95644300000000        2.75398500000000        0.64318600000000
C           59.27679700000000        3.35244900000000        0.55875900000000
C           60.16296499999999        2.38226400000000        0.35246100000000
C           59.44217199999999        1.13440200000000        0.28559600000000
N           58.12108700000000        1.41016900000000        0.45332600000000
H           61.18234399999999       -0.00882800000000       -0.03339700000000
H           61.01580500000000       -2.82143300000000        0.19076200000000
H           59.05654500000000       -4.66598100000000       -0.19026800000000
H           57.32815900000000       -0.82532500000000       -0.22429000000000
H           56.88077400000000       -4.32350500000000       -3.11647500000000
H           57.75420199999999       -6.73891900000000       -3.37369000000000
H           56.09393099999999       -6.56720500000000       -3.96549300000000
H           56.57787000000000       -8.50755500000000       -2.34698300000000
H           55.83109400000000       -8.15682800000000       -0.18960100000000
H           55.83560600000000       -5.84434500000000        0.73116100000000
H           53.70706400000000       -4.29071700000000       -1.30020000000000
H           51.95604900000000       -2.44838000000000       -0.95906700000000
H           52.23172799999999        2.35832900000000        1.64718800000000
H           54.19562400000000        4.17455500000000        2.07349400000000
H           55.81188600000000        0.91283800000000       -0.04016000000000
H           57.52544499999999        4.79837100000000        3.02497300000000
H           58.33231800000000        7.22654000000000        2.68183500000000
H           56.73180499999999        7.16058200000000        3.43679100000000
H           57.05450400000000        8.70179800000000        1.39267700000000
H           56.16315800000000        7.89131200000000       -0.57091300000000
H           56.19281200000000        5.43799100000000       -0.97743800000000
H           59.50050500000000        4.40044200000000        0.64237500000000
H           61.22566499999999        2.50047700000000        0.24229700000000
C           34.90318099999999        0.01214500000000        0.00304900000000
C           33.65091100000000       -0.00703600000000       -0.00130000000000
C           36.21684900000000        0.01137900000000        0.00498100000000
C           37.71998300000000       -0.00703600000000       -0.00130000000000
C           48.17018199999999        0.01214500000000        0.00304900000000
C           46.91791199999999       -0.00703600000000       -0.00130000000000
C           49.48384999999999        0.01137900000000        0.00498100000000
C           50.98698400000000       -0.00703600000000       -0.00130000000000
C           38.66421900000000        0.00216400000000       -0.00088600000000
C           39.43991100000000       -0.14540200000000        1.37821100000000
C           38.86673400000000       -0.12618700000000        2.63407100000000
C           39.90723200000000       -0.26598300000000        3.58021500000000
C           41.09325000000000       -0.36486300000000        2.88177000000000
N           40.80008299999999       -0.28521500000000        1.54020600000000
C           42.53285200000000       -0.51228600000000        3.52726900000000
C           42.55646000000000       -0.76229800000000        4.97779400000000
C           42.49554500000000       -2.03361100000000        5.42928500000000
C           42.55480599999999       -2.42125400000000        6.87400200000000
N           42.51784300000000       -1.25647100000000        7.75778100000000
C           42.68918700000000        0.02001500000000        7.27091100000000
C           42.70167900000000        0.30321000000000        5.96278600000000
C           43.65876500000000       -0.40352400000000        2.77420000000000
C           44.97087000000000       -0.48256600000000        3.38216300000000
C           45.88279000000000       -0.32189900000000        2.43220600000000
N           43.85555500000000       -0.21215900000000        1.43239800000000
C           45.20039000000000       -0.15805300000000        1.16376700000000
C           45.88325100000000        0.00216400000000       -0.00088600000000
C           45.10620000000000        0.10745800000000       -1.38171800000000
C           45.67267200000000        0.01888900000000       -2.63775400000000
C           44.63224100000000        0.15381900000000       -3.58492900000000
C           43.45378100000000        0.31855400000000       -2.88589900000000
N           43.74966700000000        0.27414900000000       -1.54376600000000
C           42.01780300000000        0.49796500000000       -3.52895500000000
C           41.99857700000000        0.76635200000000       -4.97601400000000
C           42.10280800000000        2.03990700000000       -5.41306700000000
C           42.05153100000000        2.44597700000000       -6.85292500000000
N           42.04669400000000        1.29096400000000       -7.75051700000000
C           41.83076900000000        0.01590100000000       -7.27751800000000
C           41.81198900000000       -0.28170500000000       -5.97274300000000
C           40.89129300000000        0.40147700000000       -2.77511100000000
C           39.58016099999999        0.51716500000000       -3.37881300000000
C           38.66720600000000        0.36279200000000       -2.42903800000000
C           39.34843500000000        0.16541200000000       -1.16446700000000
N           40.69334900000000        0.19554100000000       -1.43546200000000
H           37.81670800000000       -0.01454900000000        2.85598200000000
H           39.80292300000000       -0.28223700000000        4.65506400000000
H           41.48481300000000       -0.28568500000000        0.78772600000000
H           42.41430200000000       -2.84005700000000        4.70531400000000
H           43.47410600000000       -2.98734500000000        7.05901400000000
H           41.70647700000000       -3.06975700000000        7.11552200000000
H           42.88310400000000       -1.41001500000000        8.68940100000000
H           42.81100500000000        0.79268300000000        8.02220300000000
H           42.83154200000000        1.31299900000000        5.58816200000000
H           45.18091999999999       -0.63307200000000        4.42610100000000
H           46.94403399999999       -0.33110100000000        2.60006800000000
H           46.71819300000000       -0.13252000000000       -2.85772400000000
H           44.73120700000000        0.12744900000000       -4.66034400000000
H           43.06766000000000        0.31162700000000       -0.78995600000000
H           42.21502100000000        2.83471000000000       -4.68038100000000
H           41.15044000000000        3.04380900000000       -7.02789000000000
H           42.91968700000000        3.06939600000000       -7.09033100000000
H           41.68167400000000        1.46821300000000       -8.67795100000000
H           41.67746000000000       -0.74284900000000       -8.03696000000000
H           41.64528300000000       -1.29006100000000       -5.60923400000000
H           39.37137500000000        0.68762800000000       -4.41995700000000
H           37.60613500000000        0.39732700000000       -2.59465100000000
184
 energy: -300.272843465538 gnorm: 0.609584839625 xtb: 6.5.1 (b24c23e)
C           24.45695689780563       -0.01105196677222        0.08560344557091
C           25.17637187455306        1.18540911215721        0.70356950748447
C           24.58853177217908        2.22097291993062        1.41659139528212
C           25.60873146869968        3.13794888122955        1.75358707284454
C           26.80790144903230        2.65684384799848        1.23418104401753
N           26.52879832106023        1.44118231943504        0.64846900950660
C           28.19866932726967        3.34757624699349        1.27222322797012
C           28.20595586473281        4.79393329314084        1.59104254452486
C           27.89850151274028        5.68180804278082        0.62698222264008
C           27.82946820727005        7.16552039479818        0.83369052706554
N           28.27749380172632        7.55509746326676        2.17060988215444
C           28.51342898787825        6.62528514419557        3.15346509051216
C           28.50920511891800        5.30332385703441        2.92311848420580
C           29.34502066993727        2.65600755284688        0.96705762366014
C           30.64255563023566        3.30076166736342        0.93979641277004
C           31.54882917379781        2.39155469031751        0.58329693849221
N           29.53704245564782        1.34245258402395        0.62682520806225
C           30.87254428050128        1.12427362960961        0.37698619171826
C           31.54106096351794       -0.01706647600566        0.00127533687332
C           30.76620122912703       -1.35826376871727       -0.19407106933563
C           31.29650208068557       -2.64052729958032       -0.09928442392619
C           30.27409095033729       -3.56355470175237       -0.40795372157732
C           29.11880596832882       -2.84110464764019       -0.67998302352126
N           29.42408005256083       -1.50703442798998       -0.49238000509679
C           27.73464593166979       -3.41291807053004       -1.09726553588446
C           27.72636020965780       -4.75809275315362       -1.71239777296547
C           27.33519034983847       -5.82449709546965       -0.98925295626634
C           27.26471035212859       -7.22603973088203       -1.51817822399202
N           27.82359420786592       -7.33611155172727       -2.86668601149150
C           28.12445297997642       -6.21822842538634       -3.60938137230932
C           28.10904781596831       -4.97631783054470       -3.10223938235161
C           26.59303425609104       -2.67735543524523       -0.90528710903985
C           25.27400064750658       -3.14818301666306       -1.29431448558682
C           24.38551555219357       -2.21285370497691       -0.95771948436936
C           25.11269538505510       -1.11774254283680       -0.35718035101899
N           26.43547064373414       -1.43545861095114       -0.35676865930581
H           23.37273514065159        0.02659224659853       -0.02162810723818
H           23.53684121963435        2.29707206026437        1.64942961048914
H           25.49469754691919        4.06404613378829        2.29734953255524
H           27.22313424016164        0.81928615061000        0.24445395369426
H           27.67057797522751        5.31711469587124       -0.36984961068283
H           26.79641794839963        7.50500117426692        0.68442507145726
H           28.45817862405023        7.67099524028370        0.09100830000840
H           27.97418425194130        8.46555168914364        2.48899262074682
H           28.72074462255465        7.03137331311067        4.13790075834763
H           28.71658316850025        4.58084460177422        3.70216917378753
H           30.84388720491795        4.33278040473202        1.15719641809829
H           32.59833112784895        2.58388792141066        0.47466020763666
H           32.31952243346736       -2.87356047783616        0.15603788894384
H           30.35677140281821       -4.64048175610671       -0.43846577409080
H           28.74077388510689       -0.75586660948828       -0.51557414202286
H           27.02618820912462       -5.67416760284550        0.04103062662516
H           26.21824823698418       -7.55637669569839       -1.53016221534692
H           27.82021398393347       -7.89826761216881       -0.85372517837460
H           27.49760107314824       -8.12957142605508       -3.40274975013796
H           28.38866147213685       -6.40650407743055       -4.64479111458599
H           28.35961764162330       -4.10725988171653       -3.69770926878831
H           25.05206526322712       -4.08121859629811       -1.77471633354761
H           23.32414780165051       -2.25287375993100       -1.11227439761375
C           60.09487591619427       -0.03651952977304        0.07834134145314
C           59.37545386638675       -1.37905039292682       -0.02718474456364
C           59.96329937655943       -2.63486314256503        0.03288373784814
C           58.94306674583994       -3.59176496375814       -0.16409623716657
C           57.74396557473308       -2.90912946727867       -0.35188114154496
N           58.02303147350422       -1.56733943448977       -0.20883569472011
C           56.35306744516802       -3.51614945792655       -0.68364438054023
C           56.34586563742634       -4.91332576320512       -1.17512121702508
C           56.65332196676320       -5.15967258217241       -2.46237843314140
C           56.72235543278126       -6.52948308842003       -3.06880392723203
N           56.27433193684401       -7.56525197551741       -2.13804607081372
C           56.03839694109899       -7.29317671653179       -0.81270555014733
C           56.04262265485445       -6.04836125053681       -0.31162870653757
C           55.20683034401746       -2.76767246847587       -0.57841632047617
C           53.90929526500393       -3.30119043342395       -0.94148513986384
C           53.00303557558991       -2.34064993215912       -0.76518083887524
N           55.01451019492737       -1.47175790601174       -0.17517694794433
C           53.67925600642424       -1.15512811533504       -0.27271604963753
C           53.00738229324915        0.01299290001407        0.00979195826315
C           53.78545578467062        1.25586847725906        0.55094767203640
C           53.25532278331725        2.29540103093196        1.30726488423018
C           54.27779474592175        3.24252909004845        1.53147852411448
C           55.43296730252504        2.77197229681799        0.91952826855755
N           55.12766087482360        1.53932217622995        0.37574047585152
C           56.81721278797124        3.47786537116788        0.86630454734834
C           56.82546678198336        4.94522167010605        1.05262485763174
C           57.21663446639544        5.47026775769429        2.22927341326298
C           57.28711380298311        6.94009630264366        2.51856576865314
N           56.72823080829279        7.74445091030226        1.43063522814999
C           56.42736980083628        7.18596153558233        0.21024140273914
C           56.44277579900255        5.86327334834101       -0.01341699130957
C           57.95878397072408        2.75159924053105        0.64173875982047
C           59.27782545403457        3.35675175390739        0.55931575446362
C           60.16630789087106        2.38449190938719        0.35232802480357
C           59.43913449626682        1.13731442994545        0.28541586902866
N           58.11634901163276        1.40708363753448        0.45323927508144
H           61.17909071774928       -0.01200429236553       -0.03262891158703
H           61.01498504473313       -2.82228362734917        0.19062998925758
H           59.05712357854163       -4.66537975253860       -0.19016658879037
H           57.32869119407179       -0.82589179823387       -0.22435344224360
H           56.88124648702327       -4.32431610861506       -3.11724685091746
H           57.75540602374834       -6.73929326090898       -3.37459290184901
H           56.09364547155516       -6.56755679981740       -3.96637286761016
H           56.57763927234402       -8.50677535930410       -2.34739923035441
H           55.83107976071602       -8.15717816641277       -0.19019028085239
H           55.83524048928368       -5.84505081813615        0.73123246843997
H           53.70793780810408       -4.29276078059831       -1.30071741825415
H           51.95345920089301       -2.44673778543671       -0.95884219065865
H           52.23228428837290        2.35886532818378        1.64704418333474
H           54.19505580007723        4.17377184859656        2.07321483499699
H           55.81103956641890        0.91327556992954       -0.03993798405024
H           57.52563629954983        4.79944303600295        3.02556394503600
H           58.33357638986662        7.22713180709193        2.68250895695462
H           56.73161001643070        7.16111056794753        3.43755784674455
H           57.05422415784592        8.70129487467501        1.39333102343591
H           56.16316385075930        7.89173647518995       -0.57040019078914
H           56.19220644874834        5.43863103311670       -0.97753513491335
H           59.49975930266419        4.40286735365345        0.64288657251859
H           61.22767624101991        2.49996613353685        0.24208281826627
C           34.89348774522657        0.01177642442661        0.00255609677861
C           33.63179487230428       -0.00732892365771       -0.00133928059707
C           36.21353802576651        0.01089353547783        0.00610220694596
C           37.52960194434830       -0.00964228506293        0.00944994713162
C           48.22030011942039        0.01231851355248        0.00228515191447
C           47.01445643704835       -0.00635199798553       -0.01083909948513
C           49.53482516965762        0.01128086067308        0.00493039146496
C           50.96676090878240       -0.00617249832112       -0.00074173465159
C           38.79746612573650        0.00174349546643        0.01252909735521
C           39.45429006636353       -0.14508585751913        1.38096949551181
C           38.86850508529616       -0.12649879652063        2.63473372571948
C           39.90667526418366       -0.26620602829139        3.57963526419749
C           41.10438845688502       -0.36587289352846        2.88608727578461
N           40.80387786832630       -0.28549060224765        1.54303613402599
C           42.51695705532082       -0.50916127371699        3.51811979231301
C           42.55582083733683       -0.76462796303032        4.97786562120218
C           42.49466157838468       -2.03219350190655        5.42617865706821
C           42.55497624791481       -2.42036355650808        6.87361568416713
N           42.51722812049598       -1.25441580849976        7.75840153277877
C           42.69079041977216        0.01933437524125        7.27043937341917
C           42.70127970811637        0.30439007422608        5.95946627975849
C           43.66002989448580       -0.40389182966217        2.77530537546247
C           44.97071771452556       -0.48325806864486        3.38755740773750
C           45.88505593530335       -0.32202451065480        2.43171158211494
N           43.84935917009659       -0.21167339704110        1.43035853811093
C           45.17056748364742       -0.15979225430650        1.18145664778922
C           45.78295549492256        0.00344007258616       -0.01548962078071
C           45.09669621034638        0.10688427884330       -1.38058605604785
C           45.67096493725206        0.01944910852898       -2.63874092367917
C           44.63320006319591        0.15425045788410       -3.58428638978407
C           43.44259398963848        0.31970143564231       -2.88995036870890
N           43.74718548742226        0.27433596675238       -1.54580841206257
C           42.03406779181229        0.49446071040921       -3.51987451526915
C           41.99927705184339        0.76860052747012       -4.97607055881201
C           42.10370157184649        2.03840222227755       -5.40994758709472
C           42.05131201299341        2.44508120627966       -6.85255665376941
N           42.04723621352129        1.28890805031936       -7.75113325176430
C           41.82916318602555        0.01666848909115       -7.27703269792620
C           41.81229397680497       -0.28293999869021       -5.96943455262466
C           40.88994853176311        0.40206272949717       -2.77699193847648
C           39.58083417436337        0.51794208202514       -3.38446373136020
C           38.66526851237832        0.36288256119322       -2.42771528262592
C           39.38545132797257        0.16839697207630       -1.18637536538829
N           40.70050419934414        0.19513479326261       -1.43412768094725
H           37.81713880423353       -0.01470654799380        2.85529588872563
H           39.80243932158956       -0.28231277731727        4.65440112851478
H           41.48454142213897       -0.28570280200644        0.78844192356484
H           42.41439826447485       -2.84079415282552        4.70624591312109
H           43.47511545748339       -2.98853788656588        7.05949498372793
H           41.70603289064729       -3.07034616990203        7.11598468051371
H           42.88258192236160       -1.41044088893167        8.68883439602439
H           42.81074908222939        0.79219744166227        8.02258553115437
H           42.83106254811242        1.31330596136495        5.58885981206217
H           45.18008102403599       -0.63339607047721        4.42853501531506
H           46.94611788078147       -0.33072396575234        2.59778197428485
H           46.71768093593013       -0.13230484266735       -2.85733218553643
H           44.73167940017323        0.12752795295172       -4.65965928383075
H           43.06817742145569        0.31161953703442       -0.79061611112630
H           42.21494633054846        2.83545263755299       -4.68129545579915
H           41.14947958635693        3.04505047290841       -7.02834322805308
H           42.92013308934705        3.06993550361739       -7.09077877871393
H           41.68222558876875        1.46861301996693       -8.67740698751373
H           41.67775502071677       -0.74238608993060       -8.03735183469795
H           41.64576914950067       -1.29039364062699       -5.60993160591351
H           39.37220557675698        0.68795537579439       -4.42238567941430
H           37.60404580977185        0.39690561201553       -2.59191053849692
184
 energy: -300.464514855288 gnorm: 0.324614868795 xtb: 6.5.1 (b24c23e)
C           24.48756620851238        0.01736210491126        0.10027799040292
C           25.17564092775554        1.17155904996157        0.69690255557124
C           24.59523037856534        2.22818914930597        1.41279859320455
C           25.60734817858399        3.13739882466526        1.74507691410717
C           26.82541846787216        2.65685861348759        1.23312903622324
N           26.53074453896047        1.44023753304429        0.64636827009684
C           28.16681137421904        3.31711929781970        1.27113232155206
C           28.19558575097537        4.78278696900771        1.58807170786114
C           27.89750404654060        5.67243983941627        0.62614083084901
C           27.83003685147655        7.16173847114028        0.83488183319198
N           28.28076019499825        7.55171631008173        2.17320419273439
C           28.50893472919906        6.61976436334021        3.15218248041957
C           28.50940705321145        5.29312853908172        2.92046232760550