      -----------------------------------------------------------      
     |                   =====================                   |     
     |                           x T B                           |     
     |                   =====================                   |     
     |                         S. Grimme                         |     
     |          Mulliken Center for Theoretical Chemistry        |     
     |                    University of Bonn                     |     
      -----------------------------------------------------------      

   * xtb version 6.5.1 (b24c23e) compiled by 'conda@728c89f4b128' on 2022-07-12

   xtb is free software: you can redistribute it and/or modify it under
   the terms of the GNU Lesser General Public License as published by
   the Free Software Foundation, either version 3 of the License, or
   (at your option) any later version.
   
   xtb is distributed in the hope that it will be useful,
   but WITHOUT ANY WARRANTY; without even the implied warranty of
   MERCHANTABILITY or FITNESS FOR A PARTICULAR PURPOSE.  See the
   GNU Lesser General Public License for more details.
   
   Cite this work as:
   * C. Bannwarth, E. Caldeweyher, S. Ehlert, A. Hansen, P. Pracht,
     J. Seibert, S. Spicher, S. Grimme, WIREs Comput. Mol. Sci., 2020, 11,
     e01493. DOI: 10.1002/wcms.1493
   
   for GFN2-xTB:
   * C. Bannwarth, S. Ehlert and S. Grimme., J. Chem. Theory Comput., 2019,
     15, 1652-1671. DOI: 10.1021/acs.jctc.8b01176
   for GFN1-xTB:
   * S. Grimme, C. Bannwarth, P. Shushkov, J. Chem. Theory Comput., 2017,
     13, 1989-2009. DOI: 10.1021/acs.jctc.7b00118
   for GFN0-xTB:
   * P. Pracht, E. Caldeweyher, S. Ehlert, S. Grimme, ChemRxiv, 2019, preprint.
     DOI: 10.26434/chemrxiv.8326202.v1
   for GFN-FF:
   * S. Spicher and S. Grimme, Angew. Chem. Int. Ed., 2020, 59, 15665-15673.
     DOI: 10.1002/anie.202004239
   
   for ALPB and GBSA implicit solvation:
   * S. Ehlert, M. Stahn, S. Spicher, S. Grimme, J. Chem. Theory Comput.,
     2021, 17, 4250-4261. DOI: 10.1021/acs.jctc.1c00471
   
   for DFT-D4:
   * E. Caldeweyher, C. Bannwarth and S. Grimme, J. Chem. Phys., 2017,
     147, 034112. DOI: 10.1063/1.4993215
   * E. Caldeweyher, S. Ehlert, A. Hansen, H. Neugebauer, S. Spicher,
     C. Bannwarth and S. Grimme, J. Chem. Phys., 2019, 150, 154122.
     DOI: 10.1063/1.5090222
   * E. Caldeweyher, J.-M. Mewes, S. Ehlert and S. Grimme, Phys. Chem. Chem. Phys.
     2020, 22, 8499-8512. DOI: 10.1039/D0CP00502A
   
   for sTDA-xTB:
   * S. Grimme and C. Bannwarth, J. Chem. Phys., 2016, 145, 054103.
     DOI: 10.1063/1.4959605
   
   in the mass-spec context:
   * V. Asgeirsson, C. Bauer and S. Grimme, Chem. Sci., 2017, 8, 4879.
     DOI: 10.1039/c7sc00601b
   * J. Koopman and S. Grimme, ACS Omega 2019, 4, 12, 15120-15133.
     DOI: 10.1021/acsomega.9b02011
   
   for metadynamics refer to:
   * S. Grimme, J. Chem. Theory Comput., 2019, 155, 2847-2862
     DOI: 10.1021/acs.jctc.9b00143
   
   for SPH calculations refer to:
   * S. Spicher and S. Grimme, J. Chem. Theory Comput., 2021, 17, 1701-1714
     DOI: 10.1021/acs.jctc.0c01306
   
   with help from (in alphabetical order)
   P. Atkinson, C. Bannwarth, F. Bohle, G. Brandenburg, E. Caldeweyher
   M. Checinski, S. Dohm, S. Ehlert, S. Ehrlich, I. Gerasimov, C. Hölzer
   A. Katbashev, J. Koopman, C. Lavigne, S. Lehtola, F. März, M. Müller,
   F. Musil, H. Neugebauer, J. Pisarek, C. Plett, P. Pracht, F. Pultar,
   J. Seibert, P. Shushkov, S. Spicher, M. Stahn, M. Steiner, T. Strunk,
   J. Stückrath, T. Rose, and J. Unsleber
   
 * started run on 2022/07/27 at 23:11:52.416     

           -------------------------------------------------
          |                Calculation Setup                |
           -------------------------------------------------

          program call               : xtb xtbopt.xyz --gfn 1 --vipea
          hostname                   : cx3-14-14.cx3.hpc.ic.ac.uk
          coordinate file            : xtbopt.xyz
          omp threads                :                     1

   ID    Z sym.   atoms
    1    6 C      1-5, 7-10, 12-16, 18-23, 25-28, 30-35, 60-64, 66-69, 71-75,
                  77-82, 84-87, 89-94, 119-151, 153-156, 158-162, 164-169,
                  171-174, 176-181, 205-209, 211-214, 216-220, 222-227,
                  229-232, 234-239, 263-267, 269-272, 274-278, 280-285,
                  287-290, 292-297, 321-325, 327-330, 332-336, 338-343,
                  345-348, 350-355, 379-383, 385-388, 390-394, 396-401,
                  403-406, 408-413, 437-441, 443-446, 448-452, 454-459,
                  461-464, 466-471
    2    7 N      6, 11, 17, 24, 29, 36, 65, 70, 76, 83, 88, 95, 152, 157,
                  163, 170, 175, 182, 210, 215, 221, 228, 233, 240, 268, 273,
                  279, 286, 291, 298, 326, 331, 337, 344, 349, 356, 384, 389,
                  395, 402, 407, 414, 442, 447, 453, 460, 465, 472
    3    1 H      37-59, 96-118, 183-204, 241-262, 299-320, 357-378, 415-436,
                  473-494

           -------------------------------------------------
          |                 I P E A - x T B                 |
           -------------------------------------------------

        Reference                      10.1039/c7sc00601b
      * Hamiltonian:
        H0-scaling (s, p, d)           2.150000    2.300000    2.000000
        zeta-weighting                 0.000000
      * Dispersion:
        s8                             2.400000
        a1                             0.630000
        a2                             5.000000
        s9                             0.000000
      * Repulsion:
        kExp                           1.500000
        rExp                           1.000000
      * Coulomb:
        alpha                          1.000000
        third order                    atomic
        anisotropic                    false
      * Halogen bond correction:
        rad-scale                      1.300000
        damping                        0.440000


          ...................................................
          :                      SETUP                      :
          :.................................................:
          :  # basis functions                1936          :
          :  # atomic orbitals                1936          :
          :  # shells                         1304          :
          :  # electrons                      1490          :
          :  # halogen bonds                     0          :
          :  max. iterations                   250          :
          :  Hamiltonian                  GFN1-xTB          :
          :  restarted?                      false          :
          :  GBSA solvation                  false          :
          :  PC potential                    false          :
          :  electronic temp.          300.0000000     K    :
          :  accuracy                    1.0000000          :
          :  -> integral cutoff          0.2500000E+02      :
          :  -> integral neglect         0.1000000E-07      :
          :  -> SCF convergence          0.1000000E-05 Eh   :
          :  -> wf. convergence          0.2000000E-04 e    :
          :  Broyden damping             0.4000000          :
          ...................................................

 iter      E             dE          RMSdq      gap      omega  full diag
   1   -942.4829530 -0.942483E+03  0.997E+00    0.43       0.0  T
   2   -943.8080513 -0.132510E+01  0.620E+00    1.11       1.0  T
   3   -928.9815796  0.148265E+02  0.466E+00    0.09       1.0  T
   4   -946.0787867 -0.170972E+02  0.109E+00    0.86       1.0  T
   5   -947.3724269 -0.129364E+01  0.294E-01    0.76       1.0  T
   6   -947.4563311 -0.839043E-01  0.117E-01    0.82       1.0  T
   7   -947.4684116 -0.120805E-01  0.397E-02    0.80       1.0  T
   8   -947.4689736 -0.561925E-03  0.322E-02    0.80       1.0  T
   9   -947.4693901 -0.416511E-03  0.207E-02    0.81       1.0  T
  10   -947.4696869 -0.296880E-03  0.678E-03    0.81       1.0  T
  11   -947.4697160 -0.290972E-04  0.249E-03    0.81       1.8  T
  12   -947.4697226 -0.651974E-05  0.816E-04    0.81       5.5  T
  13   -947.4697231 -0.550622E-06  0.357E-04    0.81      12.6  T
  14   -947.4697232 -0.101856E-06  0.134E-04    0.81      33.5  T
  15   -947.4697232 -0.121959E-07  0.622E-05    0.81      72.3  T

   *** convergence criteria satisfied after 15 iterations ***

         #    Occupation            Energy/Eh            Energy/eV
      -------------------------------------------------------------
         1        2.0000           -1.0349669             -28.1629
       ...           ...                  ...                  ...
       739        2.0000           -0.3525841              -9.5943
       740        2.0000           -0.3522304              -9.5847
       741        2.0000           -0.3516174              -9.5680
       742        2.0000           -0.3514194              -9.5626
       743        2.0000           -0.3513745              -9.5614
       744        2.0000           -0.3501648              -9.5285
       745        2.0000           -0.3480574              -9.4711 (HOMO)
       746        0.0000           -0.3183651              -8.6632 (LUMO)
       747                         -0.3139280              -8.5424
       748                         -0.3081314              -8.3847
       749                         -0.3020944              -8.2204
       750                         -0.3007377              -8.1835
       ...                                ...                  ...
      1936                        544.5960946           14819.2140
      -------------------------------------------------------------
                  HL-Gap            0.0296923 Eh            0.8080 eV
             Fermi-level           -0.3331109 Eh           -9.0644 eV

 SCC (total)                   0 d,  0 h,  0 min, 47.074 sec
 SCC setup                      ...        0 min,  0.037 sec (  0.079%)
 Dispersion                     ...        0 min,  0.038 sec (  0.080%)
 classical contributions        ...        0 min,  0.009 sec (  0.019%)
 integral evaluation            ...        0 min,  2.060 sec (  4.377%)
 iterations                     ...        0 min, 40.790 sec ( 86.651%)
 molecular gradient             ...        0 min,  3.690 sec (  7.839%)
 printout                       ...        0 min,  0.449 sec (  0.955%)

         :::::::::::::::::::::::::::::::::::::::::::::::::::::
         ::                     SUMMARY                     ::
         :::::::::::::::::::::::::::::::::::::::::::::::::::::
         :: total energy            -928.620351384156 Eh    ::
         :: gradient norm              0.123953056849 Eh/a0 ::
         :: HOMO-LUMO gap              0.807969369371 eV    ::
         ::.................................................::
         :: SCC energy              -947.469723227921 Eh    ::
         :: -> electrostatic           0.710854802861 Eh    ::
         :: repulsion energy          19.269196894132 Eh    ::
         :: dispersion energy         -0.419825050366 Eh    ::
         :: halogen bond corr.         0.000000000000 Eh    ::
         :: add. restraining           0.000000000000 Eh    ::
         :: total charge               0.000000000282 e     ::
         :::::::::::::::::::::::::::::::::::::::::::::::::::::

           ------------------------------------------------- 
          |        vertical delta SCC IP calculation        |
           ------------------------------------------------- 
   1   -947.1059306 -0.947106E+03  0.358E-02    0.81       0.0  T
   2   -947.0890777  0.168529E-01  0.823E-02    0.72       1.0  T
   3   -947.1071911 -0.181134E-01  0.292E-02    0.80       1.0  T
   4   -947.1072801 -0.890481E-04  0.300E-02    0.81       1.0  T
   5   -947.1055504  0.172971E-02  0.333E-02    0.80       1.0  T
   6   -947.1059471 -0.396677E-03  0.298E-02    0.80       1.0  T
   7   -947.1080513 -0.210421E-02  0.177E-02    0.80       1.0  T
   8   -947.1085969 -0.545593E-03  0.110E-02    0.80       1.0  T
   9   -947.1087943 -0.197403E-03  0.537E-03    0.80       1.0  T
  10   -947.1088236 -0.293608E-04  0.371E-03    0.80       1.2  T
  11   -947.1088619 -0.383011E-04  0.182E-03    0.80       2.5  T
  12   -947.1088702 -0.824713E-05  0.856E-04    0.80       5.3  T
  13   -947.1088720 -0.180553E-05  0.496E-04    0.80       9.1  T
  14   -947.1088725 -0.527563E-06  0.270E-04    0.80      16.7  T
  15   -947.1088727 -0.185984E-06  0.109E-04    0.80      41.2  T
  16   -947.1088727 -0.195344E-07  0.529E-05    0.80      85.0  T
     SCC iter.                  ...        0 min, 43.596 sec
     gradient                   ...        0 min,  3.682 sec
------------------------------------------------------------------------
empirical IP shift (eV):    4.8455
delta SCC IP (eV):    4.9737
------------------------------------------------------------------------
           ------------------------------------------------- 
          |        vertical delta SCC EA calculation        |
           ------------------------------------------------- 
   1   -947.7601007 -0.947760E+03  0.687E-02    0.13       0.0  T
   2   -947.7619167 -0.181603E-02  0.688E-02    0.04       1.0  T
   3   -947.7694796 -0.756287E-02  0.352E-02    0.09       1.0  T
   4   -947.7703299 -0.850286E-03  0.246E-02    0.07       1.0  T
   5   -947.7701499  0.180014E-03  0.173E-02    0.08       1.0  T
   6   -947.7671636  0.298629E-02  0.270E-02    0.09       1.0  T
   7   -947.7704313 -0.326770E-02  0.876E-03    0.08       1.0  T
   8   -947.7706829 -0.251655E-03  0.282E-03    0.08       1.6  T
   9   -947.7706928 -0.987364E-05  0.172E-03    0.08       2.6  T
  10   -947.7706964 -0.361053E-05  0.524E-04    0.08       8.6  T
  11   -947.7706967 -0.268102E-06  0.255E-04    0.08      17.6  T
  12   -947.7706967 -0.488933E-07  0.111E-04    0.08      40.7  T
  13   -947.7706967 -0.110447E-07  0.453E-05    0.08      99.3  T
     SCC iter.                  ...        0 min, 41.510 sec
     gradient                   ...        0 min,  5.515 sec
------------------------------------------------------------------------
empirical EA shift (eV):    4.8455
delta SCC EA (eV):    3.3444
------------------------------------------------------------------------
           -------------------------------------------------
          |                Property Printout                |
           -------------------------------------------------

    * Orbital Energies and Occupations

         #    Occupation            Energy/Eh            Energy/eV
      -------------------------------------------------------------
         1        2.0000           -1.0129595             -27.5640
       ...           ...                  ...                  ...
       734        2.0000           -0.3280503              -8.9267
       735        2.0000           -0.3262177              -8.8768
       736        2.0000           -0.3253336              -8.8528
       737        2.0000           -0.3252007              -8.8492
       738        2.0000           -0.3249231              -8.8416
       739        2.0000           -0.3249052              -8.8411
       740        2.0000           -0.3240732              -8.8185
       741        2.0000           -0.3240117              -8.8168
       742        2.0000           -0.3229386              -8.7876
       743        2.0000           -0.3222928              -8.7700
       744        2.0000           -0.3192881              -8.6883
       745        2.0000           -0.3148546              -8.5676
       746        0.7855           -0.2841817              -7.7330 (HOMO)
       747        0.1636           -0.2813982              -7.6572 (LUMO)
       748        0.0304           -0.2796585              -7.6099
       749        0.0199           -0.2792471              -7.5987
       750        0.0003           -0.2753157              -7.4917
       751        0.0001           -0.2744425              -7.4680
       752        0.0001           -0.2741486              -7.4600
       753        0.0000           -0.2689185              -7.3176
       754                         -0.2658125              -7.2331
       755                         -0.2655981              -7.2273
       756                         -0.2628425              -7.1523
       757                         -0.2619578              -7.1282
       ...                                ...                  ...
      1936                        544.6241882           14819.9785
      -------------------------------------------------------------
                  HL-Gap            0.0027834 Eh            0.0757 eV
             Fermi-level           -0.2912464 Eh           -7.9252 eV

  Mulliken/CM5 charges         n(s)   n(p)   n(d)
     1C    -0.02284 -0.06367   1.088  2.935  0.000
     2C     0.06169  0.12208   1.104  2.834  0.000
     3C    -0.03553 -0.08082   1.080  2.955  0.000
     4C    -0.03217 -0.07710   1.076  2.956  0.000
     5C     0.06360  0.12744   1.102  2.834  0.000
     6N    -0.15956 -0.51237   1.312  3.848  0.000
     7C     0.01015  0.01599   1.095  2.895  0.000
     8C     0.00345 -0.00335   1.078  2.919  0.000
     9C    -0.03789 -0.08990   1.070  2.968  0.000
    10C     0.03025 -0.01493   1.102  2.867  0.000
    11N    -0.23839 -0.59797   1.304  3.934  0.000
    12C     0.03712  0.04881   1.097  2.866  0.000
    13C    -0.05897 -0.10754   1.041  3.018  0.000
    14C     0.06057  0.12886   1.120  2.819  0.000
    15C    -0.03629 -0.08222   1.087  2.950  0.000
    16C    -0.03749 -0.08293   1.091  2.946  0.000
    17N    -0.28562 -0.47227   1.293  3.993  0.000
    18C     0.06416  0.13473   1.129  2.807  0.000
    19C     0.01834  0.02554   1.086  2.896  0.000
    20C     0.06648  0.13131   1.109  2.825  0.000
    21C    -0.03232 -0.07674   1.080  2.952  0.000
    22C    -0.03104 -0.07592   1.077  2.954  0.000
    23C     0.06320  0.12659   1.102  2.835  0.000
    24N    -0.15730 -0.50941   1.314  3.844  0.000
    25C     0.01004  0.01593   1.096  2.894  0.000
    26C     0.00287 -0.00391   1.077  2.920  0.000
    27C    -0.03644 -0.08858   1.072  2.965  0.000
    28C     0.03028 -0.01498   1.103  2.867  0.000
    29N    -0.23889 -0.59833   1.305  3.934  0.000
    30C     0.03674  0.04842   1.097  2.866  0.000
    31C    -0.05979 -0.10825   1.040  3.020  0.000
    32C     0.06093  0.13018   1.121  2.818  0.000
    33C    -0.03744 -0.08341   1.086  2.951  0.000
    34C    -0.04075 -0.08710   1.091  2.950  0.000
    35C     0.05858  0.12440   1.125  2.817  0.000
    36N    -0.28780 -0.47483   1.293  3.995  0.000
    37H     0.02702  0.08604   0.973  0.000  0.000
    38H     0.03788  0.09454   0.962  0.000  0.000
    39H     0.02882  0.08742   0.971  0.000  0.000
    40H     0.16326  0.37164   0.837  0.000  0.000
    41H     0.02229  0.08017   0.978  0.000  0.000
    42H     0.02719  0.08921   0.973  0.000  0.000
    43H     0.02067  0.08428   0.979  0.000  0.000
    44H     0.16914  0.36198   0.831  0.000  0.000
    45H     0.04258  0.10807   0.957  0.000  0.000
    46H     0.01467  0.07299   0.985  0.000  0.000
    47H     0.01990  0.07899   0.980  0.000  0.000
    48H     0.02360  0.08168   0.976  0.000  0.000
    49H     0.03370  0.09182   0.966  0.000  0.000
    50H     0.02942  0.08849   0.971  0.000  0.000
    51H     0.16178  0.37014   0.838  0.000  0.000
    52H     0.02206  0.07995   0.978  0.000  0.000
    53H     0.02784  0.08989   0.972  0.000  0.000
    54H     0.02048  0.08411   0.980  0.000  0.000
    55H     0.16904  0.36186   0.831  0.000  0.000
    56H     0.04240  0.10787   0.958  0.000  0.000
    57H     0.01519  0.07354   0.985  0.000  0.000
    58H     0.01918  0.07774   0.981  0.000  0.000
    59H     0.02769  0.08410   0.972  0.000  0.000
    60C    -0.02274 -0.06357   1.088  2.935  0.000
    61C     0.06172  0.12212   1.104  2.834  0.000
    62C    -0.03547 -0.08076   1.080  2.955  0.000
    63C    -0.03213 -0.07706   1.076  2.956  0.000
    64C     0.06366  0.12750   1.102  2.834  0.000
    65N    -0.15952 -0.51233   1.312  3.847  0.000
    66C     0.01016  0.01600   1.095  2.895  0.000
    67C     0.00343 -0.00336   1.078  2.919  0.000
    68C    -0.03798 -0.09000   1.069  2.969  0.000
    69C     0.03025 -0.01493   1.102  2.867  0.000
    70N    -0.23840 -0.59799   1.304  3.934  0.000
    71C     0.03717  0.04889   1.097  2.866  0.000
    72C    -0.05898 -0.10753   1.041  3.018  0.000
    73C     0.06064  0.12893   1.121  2.819  0.000
    74C    -0.03622 -0.08214   1.087  2.949  0.000
    75C    -0.03743 -0.08286   1.091  2.946  0.000
    76N    -0.28555 -0.47221   1.293  3.993  0.000
    77C     0.06421  0.13477   1.129  2.806  0.000
    78C     0.01843  0.02563   1.086  2.896  0.000
    79C     0.06650  0.13133   1.109  2.824  0.000
    80C    -0.03228 -0.07670   1.080  2.952  0.000
    81C    -0.03099 -0.07588   1.077  2.954  0.000
    82C     0.06325  0.12664   1.102  2.835  0.000
    83N    -0.15730 -0.50941   1.314  3.844  0.000
    84C     0.01006  0.01594   1.096  2.894  0.000
    85C     0.00287 -0.00391   1.077  2.920  0.000
    86C    -0.03636 -0.08849   1.072  2.965  0.000
    87C     0.03031 -0.01495   1.103  2.867  0.000
    88N    -0.23884 -0.59830   1.305  3.934  0.000
    89C     0.03675  0.04844   1.097  2.866  0.000
    90C    -0.05988 -0.10834   1.040  3.020  0.000
    91C     0.06099  0.13025   1.121  2.818  0.000
    92C    -0.03741 -0.08337   1.086  2.951  0.000
    93C    -0.04070 -0.08705   1.091  2.950  0.000
    94C     0.05862  0.12443   1.125  2.817  0.000
    95N    -0.28773 -0.47474   1.293  3.995  0.000
    96H     0.02712  0.08614   0.973  0.000  0.000
    97H     0.03796  0.09462   0.962  0.000  0.000
    98H     0.02890  0.08751   0.971  0.000  0.000
    99H     0.16328  0.37166   0.837  0.000  0.000
   100H     0.02220  0.08007   0.978  0.000  0.000
   101H     0.02721  0.08923   0.973  0.000  0.000
   102H     0.02059  0.08420   0.979  0.000  0.000
   103H     0.16919  0.36204   0.831  0.000  0.000
   104H     0.04270  0.10819   0.957  0.000  0.000
   105H     0.01483  0.07317   0.985  0.000  0.000
   106H     0.01993  0.07900   0.980  0.000  0.000
   107H     0.02365  0.08173   0.976  0.000  0.000
   108H     0.03381  0.09191   0.966  0.000  0.000
   109H     0.02951  0.08858   0.970  0.000  0.000
   110H     0.16181  0.37016   0.838  0.000  0.000
   111H     0.02217  0.08007   0.978  0.000  0.000
   112H     0.02788  0.08993   0.972  0.000  0.000
   113H     0.02058  0.08421   0.979  0.000  0.000
   114H     0.16911  0.36193   0.831  0.000  0.000
   115H     0.04237  0.10785   0.958  0.000  0.000
   116H     0.01507  0.07341   0.985  0.000  0.000
   117H     0.01921  0.07777   0.981  0.000  0.000
   118H     0.02776  0.08417   0.972  0.000  0.000
   119C    -0.01881 -0.01968   1.061  2.958  0.000
   120C    -0.02044 -0.02211   1.089  2.932  0.000
   121C    -0.02346 -0.02430   1.057  2.966  0.000
   122C    -0.01612 -0.01773   1.095  2.921  0.000
   123C    -0.02228 -0.02311   1.060  2.962  0.000
   124C    -0.02169 -0.02329   1.089  2.933  0.000
   125C    -0.02439 -0.02522   1.058  2.966  0.000
   126C    -0.01954 -0.02113   1.092  2.928  0.000
   127C    -0.02321 -0.02404   1.059  2.964  0.000
   128C    -0.02083 -0.02242   1.090  2.931  0.000
   129C    -0.02359 -0.02442   1.059  2.965  0.000
   130C    -0.02037 -0.02196   1.091  2.930  0.000
   131C    -0.02334 -0.02418   1.059  2.964  0.000
   132C    -0.02052 -0.02212   1.090  2.930  0.000
   133C    -0.02335 -0.02419   1.059  2.964  0.000
   134C    -0.02051 -0.02211   1.090  2.930  0.000
   135C    -0.02359 -0.02443   1.059  2.965  0.000
   136C    -0.02037 -0.02197   1.091  2.930  0.000
   137C    -0.02321 -0.02405   1.059  2.964  0.000
   138C    -0.02084 -0.02244   1.090  2.931  0.000
   139C    -0.02441 -0.02525   1.058  2.966  0.000
   140C    -0.01950 -0.02110   1.092  2.928  0.000
   141C    -0.02223 -0.02307   1.060  2.962  0.000
   142C    -0.02172 -0.02332   1.089  2.933  0.000
   143C    -0.02344 -0.02428   1.057  2.966  0.000
   144C    -0.01598 -0.01759   1.095  2.921  0.000
   145C    -0.01869 -0.01955   1.061  2.957  0.000
   146C    -0.02041 -0.02207   1.089  2.931  0.000
   147C     0.01242  0.01968   1.081  2.906  0.000
   148C     0.06533  0.13017   1.109  2.826  0.000
   149C    -0.03624 -0.08066   1.078  2.958  0.000
   150C    -0.03322 -0.07806   1.077  2.956  0.000
   151C     0.06075  0.12416   1.098  2.841  0.000
   152N    -0.15803 -0.51031   1.313  3.845  0.000
   153C     0.01237  0.01809   1.096  2.891  0.000
   154C     0.00501 -0.00189   1.078  2.917  0.000
   155C    -0.03735 -0.08940   1.067  2.971  0.000
   156C     0.03061 -0.01455   1.102  2.867  0.000
   157N    -0.23954 -0.59918   1.305  3.935  0.000
   158C     0.03689  0.04874   1.097  2.866  0.000
   159C    -0.05864 -0.10708   1.041  3.018  0.000
   160C     0.05802  0.12597   1.116  2.826  0.000
   161C    -0.03792 -0.08390   1.085  2.953  0.000
   162C    -0.03967 -0.08509   1.089  2.950  0.000
   163N    -0.28535 -0.47159   1.293  3.992  0.000
   164C     0.06318  0.13408   1.129  2.807  0.000
   165C     0.01574  0.02298   1.085  2.900  0.000
   166C     0.06570  0.13067   1.109  2.825  0.000
   167C    -0.03490 -0.07931   1.078  2.957  0.000
   168C    -0.03326 -0.07811   1.077  2.957  0.000
   169C     0.06096  0.12429   1.099  2.840  0.000
   170N    -0.15692 -0.50924   1.314  3.843  0.000
   171C     0.01182  0.01755   1.096  2.892  0.000
   172C     0.00489 -0.00201   1.077  2.918  0.000
   173C    -0.03703 -0.08909   1.067  2.970  0.000
   174C     0.03071 -0.01447   1.102  2.867  0.000
   175N    -0.23941 -0.59901   1.305  3.935  0.000
   176C     0.03678  0.04863   1.097  2.866  0.000
   177C    -0.05890 -0.10738   1.040  3.018  0.000
   178C     0.05853  0.12674   1.117  2.824  0.000
   179C    -0.03773 -0.08372   1.086  2.952  0.000
   180C    -0.04036 -0.08581   1.090  2.951  0.000
   181C     0.06280  0.13338   1.129  2.808  0.000
   182N    -0.28677 -0.47293   1.292  3.995  0.000
   183H     0.03006  0.08811   0.970  0.000  0.000
   184H     0.02637  0.08517   0.974  0.000  0.000
   185H     0.16149  0.36948   0.839  0.000  0.000
   186H     0.02328  0.08106   0.977  0.000  0.000
   187H     0.02696  0.08896   0.973  0.000  0.000
   188H     0.02039  0.08400   0.980  0.000  0.000
   189H     0.16833  0.36117   0.832  0.000  0.000
   190H     0.04132  0.10683   0.959  0.000  0.000
   191H     0.01476  0.07321   0.985  0.000  0.000
   192H     0.01718  0.07598   0.983  0.000  0.000
   193H     0.02145  0.07945   0.979  0.000  0.000
   194H     0.03229  0.09037   0.968  0.000  0.000
   195H     0.02693  0.08573   0.973  0.000  0.000
   196H     0.16123  0.36923   0.839  0.000  0.000
   197H     0.02375  0.08154   0.976  0.000  0.000
   198H     0.02665  0.08867   0.973  0.000  0.000
   199H     0.02109  0.08467   0.979  0.000  0.000
   200H     0.16836  0.36120   0.832  0.000  0.000
   201H     0.04089  0.10641   0.959  0.000  0.000
   202H     0.01413  0.07260   0.986  0.000  0.000
   203H     0.01693  0.07577   0.983  0.000  0.000
   204H     0.01998  0.07803   0.980  0.000  0.000
   205C     0.01318  0.02041   1.082  2.904  0.000
   206C     0.06547  0.13043   1.109  2.825  0.000
   207C    -0.03628 -0.08069   1.077  2.959  0.000
   208C    -0.03364 -0.07849   1.077  2.957  0.000
   209C     0.06001  0.12336   1.098  2.842  0.000
   210N    -0.15729 -0.50962   1.314  3.843  0.000
   211C     0.01278  0.01849   1.097  2.890  0.000
   212C     0.00517 -0.00173   1.078  2.917  0.000
   213C    -0.03709 -0.08915   1.067  2.971  0.000
   214C     0.03068 -0.01448   1.102  2.867  0.000
   215N    -0.23962 -0.59925   1.305  3.935  0.000
   216C     0.03678  0.04861   1.097  2.866  0.000
   217C    -0.05848 -0.10693   1.041  3.018  0.000
   218C     0.05747  0.12537   1.116  2.827  0.000
   219C    -0.03810 -0.08408   1.085  2.953  0.000
   220C    -0.04021 -0.08563   1.089  2.951  0.000
   221N    -0.28570 -0.47187   1.293  3.993  0.000
   222C     0.06304  0.13397   1.129  2.807  0.000
   223C     0.01446  0.02170   1.083  2.902  0.000
   224C     0.06553  0.13050   1.109  2.825  0.000
   225C    -0.03569 -0.08010   1.077  2.958  0.000
   226C    -0.03354 -0.07839   1.077  2.957  0.000
   227C     0.06023  0.12357   1.098  2.842  0.000
   228N    -0.15707 -0.50939   1.314  3.843  0.000
   229C     0.01259  0.01831   1.097  2.891  0.000
   230C     0.00511 -0.00179   1.077  2.917  0.000
   231C    -0.03700 -0.08907   1.067  2.970  0.000
   232C     0.03072 -0.01444   1.102  2.867  0.000
   233N    -0.23957 -0.59920   1.305  3.935  0.000
   234C     0.03672  0.04856   1.097  2.866  0.000
   235C    -0.05860 -0.10706   1.041  3.018  0.000
   236C     0.05744  0.12535   1.116  2.827  0.000
   237C    -0.03818 -0.08416   1.085  2.953  0.000
   238C    -0.04067 -0.08609   1.089  2.952  0.000
   239C     0.06289  0.13377   1.130  2.808  0.000
   240N    -0.28611 -0.47226   1.293  3.993  0.000
   241H     0.03070  0.08878   0.969  0.000  0.000
   242H     0.02595  0.08477   0.974  0.000  0.000
   243H     0.16110  0.36904   0.839  0.000  0.000
   244H     0.02340  0.08119   0.977  0.000  0.000
   245H     0.02661  0.08861   0.973  0.000  0.000
   246H     0.02034  0.08395   0.980  0.000  0.000
   247H     0.16796  0.36081   0.832  0.000  0.000
   248H     0.04091  0.10643   0.959  0.000  0.000
   249H     0.01457  0.07303   0.985  0.000  0.000
   250H     0.01657  0.07538   0.983  0.000  0.000
   251H     0.02067  0.07867   0.979  0.000  0.000
   252H     0.03143  0.08951   0.969  0.000  0.000
   253H     0.02625  0.08508   0.974  0.000  0.000
   254H     0.16105  0.36899   0.839  0.000  0.000
   255H     0.02354  0.08135   0.976  0.000  0.000
   256H     0.02639  0.08840   0.974  0.000  0.000
   257H     0.02072  0.08432   0.979  0.000  0.000
   258H     0.16798  0.36082   0.832  0.000  0.000
   259H     0.04073  0.10625   0.959  0.000  0.000
   260H     0.01433  0.07280   0.986  0.000  0.000
   261H     0.01628  0.07510   0.984  0.000  0.000
   262H     0.01995  0.07794   0.980  0.000  0.000
   263C     0.01412  0.02135   1.083  2.903  0.000
   264C     0.06552  0.13049   1.109  2.825  0.000
   265C    -0.03583 -0.08024   1.077  2.959  0.000
   266C    -0.03352 -0.07837   1.077  2.957  0.000
   267C     0.06024  0.12358   1.098  2.842  0.000
   268N    -0.15714 -0.50947   1.314  3.843  0.000
   269C     0.01271  0.01843   1.097  2.890  0.000
   270C     0.00514 -0.00176   1.077  2.917  0.000
   271C    -0.03706 -0.08911   1.067  2.971  0.000
   272C     0.03073 -0.01443   1.102  2.867  0.000
   273N    -0.23957 -0.59922   1.304  3.935  0.000
   274C     0.03681  0.04867   1.097  2.866  0.000
   275C    -0.05858 -0.10703   1.041  3.018  0.000
   276C     0.05759  0.12548   1.116  2.826  0.000
   277C    -0.03805 -0.08403   1.085  2.953  0.000
   278C    -0.04021 -0.08564   1.089  2.951  0.000
   279N    -0.28577 -0.47194   1.293  3.993  0.000
   280C     0.06305  0.13397   1.129  2.807  0.000
   281C     0.01432  0.02155   1.083  2.902  0.000
   282C     0.06555  0.13053   1.109  2.825  0.000
   283C    -0.03571 -0.08012   1.077  2.958  0.000
   284C    -0.03347 -0.07832   1.077  2.957  0.000
   285C     0.06028  0.12362   1.098  2.842  0.000
   286N    -0.15712 -0.50945   1.314  3.843  0.000
   287C     0.01270  0.01841   1.097  2.890  0.000
   288C     0.00513 -0.00176   1.077  2.917  0.000
   289C    -0.03698 -0.08904   1.067  2.970  0.000
   290C     0.03073 -0.01444   1.102  2.867  0.000
   291N    -0.23959 -0.59922   1.305  3.935  0.000
   292C     0.03677  0.04861   1.097  2.866  0.000
   293C    -0.05855 -0.10702   1.041  3.018  0.000
   294C     0.05755  0.12543   1.116  2.826  0.000
   295C    -0.03809 -0.08408   1.085  2.953  0.000
   296C    -0.04033 -0.08575   1.089  2.951  0.000
   297C     0.06300  0.13392   1.129  2.808  0.000
   298N    -0.28582 -0.47198   1.293  3.993  0.000
   299H     0.03117  0.08925   0.969  0.000  0.000
   300H     0.02616  0.08497   0.974  0.000  0.000
   301H     0.16113  0.36908   0.839  0.000  0.000
   302H     0.02348  0.08127   0.977  0.000  0.000
   303H     0.02654  0.08854   0.973  0.000  0.000
   304H     0.02048  0.08408   0.980  0.000  0.000
   305H     0.16802  0.36087   0.832  0.000  0.000
   306H     0.04087  0.10639   0.959  0.000  0.000
   307H     0.01450  0.07296   0.986  0.000  0.000
   308H     0.01656  0.07538   0.983  0.000  0.000
   309H     0.02056  0.07856   0.979  0.000  0.000
   310H     0.03134  0.08942   0.969  0.000  0.000
   311H     0.02624  0.08507   0.974  0.000  0.000
   312H     0.16112  0.36907   0.839  0.000  0.000
   313H     0.02353  0.08133   0.976  0.000  0.000
   314H     0.02650  0.08851   0.973  0.000  0.000
   315H     0.02060  0.08420   0.979  0.000  0.000
   316H     0.16799  0.36083   0.832  0.000  0.000
   317H     0.04082  0.10634   0.959  0.000  0.000
   318H     0.01445  0.07292   0.986  0.000  0.000
   319H     0.01647  0.07529   0.984  0.000  0.000
   320H     0.02039  0.07840   0.980  0.000  0.000
   321C     0.01430  0.02153   1.083  2.902  0.000
   322C     0.06556  0.13053   1.109  2.825  0.000
   323C    -0.03570 -0.08011   1.077  2.958  0.000
   324C    -0.03347 -0.07832   1.077  2.957  0.000
   325C     0.06028  0.12362   1.098  2.842  0.000
   326N    -0.15712 -0.50945   1.314  3.843  0.000
   327C     0.01270  0.01842   1.097  2.890  0.000
   328C     0.00513 -0.00177   1.077  2.917  0.000
   329C    -0.03703 -0.08909   1.067  2.970  0.000
   330C     0.03073 -0.01443   1.102  2.867  0.000
   331N    -0.23957 -0.59921   1.305  3.935  0.000
   332C     0.03679  0.04864   1.097  2.866  0.000
   333C    -0.05858 -0.10704   1.041  3.018  0.000
   334C     0.05755  0.12544   1.116  2.826  0.000
   335C    -0.03810 -0.08408   1.085  2.953  0.000
   336C    -0.04033 -0.08575   1.089  2.951  0.000
   337N    -0.28581 -0.47198   1.293  3.993  0.000
   338C     0.06300  0.13392   1.129  2.808  0.000
   339C     0.01411  0.02135   1.083  2.903  0.000
   340C     0.06550  0.13048   1.109  2.825  0.000
   341C    -0.03585 -0.08026   1.077  2.959  0.000
   342C    -0.03353 -0.07838   1.077  2.957  0.000
   343C     0.06023  0.12357   1.098  2.842  0.000
   344N    -0.15714 -0.50947   1.314  3.843  0.000
   345C     0.01270  0.01842   1.097  2.890  0.000
   346C     0.00515 -0.00175   1.077  2.917  0.000
   347C    -0.03701 -0.08907   1.067  2.970  0.000
   348C     0.03073 -0.01443   1.102  2.867  0.000
   349N    -0.23959 -0.59923   1.305  3.935  0.000
   350C     0.03680  0.04865   1.097  2.866  0.000
   351C    -0.05856 -0.10702   1.041  3.018  0.000
   352C     0.05758  0.12546   1.116  2.826  0.000
   353C    -0.03805 -0.08404   1.085  2.953  0.000
   354C    -0.04022 -0.08564   1.089  2.951  0.000
   355C     0.06305  0.13397   1.129  2.807  0.000
   356N    -0.28578 -0.47195   1.293  3.993  0.000
   357H     0.03134  0.08941   0.969  0.000  0.000
   358H     0.02625  0.08507   0.974  0.000  0.000
   359H     0.16112  0.36907   0.839  0.000  0.000
   360H     0.02351  0.08130   0.976  0.000  0.000
   361H     0.02649  0.08849   0.974  0.000  0.000
   362H     0.02057  0.08417   0.979  0.000  0.000
   363H     0.16801  0.36085   0.832  0.000  0.000
   364H     0.04082  0.10634   0.959  0.000  0.000
   365H     0.01445  0.07292   0.986  0.000  0.000
   366H     0.01647  0.07528   0.984  0.000  0.000
   367H     0.02038  0.07839   0.980  0.000  0.000
   368H     0.03115  0.08923   0.969  0.000  0.000
   369H     0.02614  0.08496   0.974  0.000  0.000
   370H     0.16113  0.36907   0.839  0.000  0.000
   371H     0.02349  0.08129   0.977  0.000  0.000
   372H     0.02655  0.08855   0.973  0.000  0.000
   373H     0.02050  0.08410   0.980  0.000  0.000
   374H     0.16801  0.36085   0.832  0.000  0.000
   375H     0.04087  0.10639   0.959  0.000  0.000
   376H     0.01449  0.07295   0.986  0.000  0.000
   377H     0.01655  0.07537   0.983  0.000  0.000
   378H     0.02055  0.07856   0.979  0.000  0.000
   379C     0.01447  0.02171   1.083  2.902  0.000
   380C     0.06553  0.13050   1.109  2.825  0.000
   381C    -0.03569 -0.08010   1.077  2.958  0.000
   382C    -0.03354 -0.07839   1.077  2.957  0.000
   383C     0.06023  0.12357   1.098  2.842  0.000
   384N    -0.15708 -0.50940   1.314  3.843  0.000
   385C     0.01260  0.01831   1.097  2.891  0.000
   386C     0.00511 -0.00179   1.077  2.917  0.000
   387C    -0.03706 -0.08912   1.067  2.970  0.000
   388C     0.03072 -0.01445   1.102  2.867  0.000
   389N    -0.23955 -0.59919   1.305  3.935  0.000
   390C     0.03673  0.04858   1.097  2.866  0.000
   391C    -0.05861 -0.10707   1.041  3.018  0.000
   392C     0.05744  0.12535   1.116  2.827  0.000
   393C    -0.03818 -0.08416   1.085  2.953  0.000
   394C    -0.04067 -0.08610   1.089  2.952  0.000
   395N    -0.28612 -0.47227   1.293  3.993  0.000
   396C     0.06290  0.13379   1.130  2.808  0.000
   397C     0.01314  0.02037   1.082  2.905  0.000
   398C     0.06544  0.13040   1.109  2.825  0.000
   399C    -0.03632 -0.08072   1.077  2.959  0.000
   400C    -0.03366 -0.07851   1.077  2.957  0.000
   401C     0.06000  0.12334   1.098  2.842  0.000
   402N    -0.15730 -0.50962   1.314  3.843  0.000
   403C     0.01277  0.01849   1.097  2.890  0.000
   404C     0.00518 -0.00172   1.078  2.917  0.000
   405C    -0.03705 -0.08911   1.067  2.970  0.000
   406C     0.03069 -0.01447   1.102  2.867  0.000
   407N    -0.23964 -0.59927   1.305  3.935  0.000
   408C     0.03678  0.04861   1.097  2.866  0.000
   409C    -0.05848 -0.10694   1.041  3.018  0.000
   410C     0.05746  0.12535   1.116  2.827  0.000
   411C    -0.03811 -0.08409   1.085  2.953  0.000
   412C    -0.04021 -0.08564   1.089  2.951  0.000
   413C     0.06304  0.13396   1.129  2.807  0.000
   414N    -0.28571 -0.47187   1.293  3.993  0.000
   415H     0.03144  0.08951   0.969  0.000  0.000
   416H     0.02627  0.08509   0.974  0.000  0.000
   417H     0.16105  0.36899   0.839  0.000  0.000
   418H     0.02353  0.08131   0.976  0.000  0.000
   419H     0.02637  0.08838   0.974  0.000  0.000
   420H     0.02069  0.08429   0.979  0.000  0.000
   421H     0.16799  0.36083   0.832  0.000  0.000
   422H     0.04073  0.10625   0.959  0.000  0.000
   423H     0.01434  0.07281   0.986  0.000  0.000
   424H     0.01628  0.07509   0.984  0.000  0.000
   425H     0.01994  0.07793   0.980  0.000  0.000
   426H     0.03067  0.08875   0.969  0.000  0.000
   427H     0.02592  0.08474   0.974  0.000  0.000
   428H     0.16110  0.36904   0.839  0.000  0.000
   429H     0.02341  0.08120   0.977  0.000  0.000
   430H     0.02662  0.08863   0.973  0.000  0.000
   431H     0.02034  0.08395   0.980  0.000  0.000
   432H     0.16797  0.36081   0.832  0.000  0.000
   433H     0.04092  0.10643   0.959  0.000  0.000
   434H     0.01455  0.07302   0.985  0.000  0.000
   435H     0.01657  0.07539   0.983  0.000  0.000
   436H     0.02066  0.07867   0.979  0.000  0.000
   437C     0.01580  0.02304   1.085  2.900  0.000
   438C     0.06572  0.13068   1.109  2.825  0.000
   439C    -0.03486 -0.07927   1.078  2.957  0.000
   440C    -0.03323 -0.07808   1.077  2.957  0.000
   441C     0.06100  0.12434   1.099  2.840  0.000
   442N    -0.15691 -0.50922   1.314  3.843  0.000
   443C     0.01180  0.01753   1.096  2.892  0.000
   444C     0.00487 -0.00203   1.077  2.918  0.000
   445C    -0.03708 -0.08914   1.067  2.970  0.000
   446C     0.03070 -0.01448   1.102  2.867  0.000
   447N    -0.23937 -0.59898   1.305  3.935  0.000
   448C     0.03680  0.04865   1.097  2.866  0.000
   449C    -0.05891 -0.10738   1.040  3.018  0.000
   450C     0.05857  0.12679   1.117  2.824  0.000
   451C    -0.03769 -0.08366   1.086  2.952  0.000
   452C    -0.04033 -0.08578   1.090  2.951  0.000
   453N    -0.28681 -0.47296   1.292  3.995  0.000
   454C     0.06275  0.13331   1.129  2.808  0.000
   455C     0.01242  0.01968   1.081  2.906  0.000
   456C     0.06536  0.13020   1.109  2.826  0.000
   457C    -0.03625 -0.08068   1.078  2.958  0.000
   458C    -0.03322 -0.07807   1.077  2.956  0.000
   459C     0.06076  0.12418   1.098  2.841  0.000
   460N    -0.15801 -0.51029   1.313  3.845  0.000
   461C     0.01237  0.01809   1.096  2.891  0.000
   462C     0.00501 -0.00188   1.078  2.917  0.000
   463C    -0.03736 -0.08941   1.067  2.971  0.000
   464C     0.03061 -0.01454   1.102  2.867  0.000
   465N    -0.23952 -0.59918   1.305  3.935  0.000
   466C     0.03691  0.04876   1.097  2.866  0.000
   467C    -0.05865 -0.10709   1.041  3.018  0.000
   468C     0.05802  0.12597   1.116  2.826  0.000
   469C    -0.03792 -0.08390   1.085  2.953  0.000
   470C    -0.03965 -0.08508   1.089  2.950  0.000
   471C     0.06319  0.13409   1.129  2.807  0.000
   472N    -0.28533 -0.47157   1.293  3.992  0.000
   473H     0.03233  0.09040   0.968  0.000  0.000
   474H     0.02697  0.08578   0.973  0.000  0.000
   475H     0.16123  0.36921   0.839  0.000  0.000
   476H     0.02372  0.08151   0.976  0.000  0.000
   477H     0.02662  0.08863   0.973  0.000  0.000
   478H     0.02110  0.08469   0.979  0.000  0.000
   479H     0.16838  0.36121   0.832  0.000  0.000
   480H     0.04095  0.10647   0.959  0.000  0.000
   481H     0.01419  0.07264   0.986  0.000  0.000
   482H     0.01698  0.07580   0.983  0.000  0.000
   483H     0.01998  0.07799   0.980  0.000  0.000
   484H     0.03010  0.08818   0.970  0.000  0.000
   485H     0.02638  0.08520   0.974  0.000  0.000
   486H     0.16150  0.36948   0.839  0.000  0.000
   487H     0.02324  0.08102   0.977  0.000  0.000
   488H     0.02695  0.08895   0.973  0.000  0.000
   489H     0.02040  0.08401   0.980  0.000  0.000
   490H     0.16837  0.36121   0.832  0.000  0.000
   491H     0.04136  0.10688   0.959  0.000  0.000
   492H     0.01478  0.07325   0.985  0.000  0.000
   493H     0.01718  0.07598   0.983  0.000  0.000
   494H     0.02148  0.07948   0.979  0.000  0.000

Wiberg/Mayer (AO) data.
largest (>0.10) Wiberg bond orders for each atom

 ---------------------------------------------------------------------------
     #   Z sym  total        # sym  WBO       # sym  WBO       # sym  WBO
 ---------------------------------------------------------------------------
     1   6 C    3.819 --    35 C    1.383     2 C    1.375    37 H    0.996
     2   6 C    3.926 --     1 C    1.375     3 C    1.239     6 N    1.229
     3   6 C    3.841 --     4 C    1.600     2 C    1.239    38 H    0.993
     4   6 C    3.824 --     3 C    1.600     5 C    1.250    39 H    1.000
     5   6 C    3.901 --     7 C    1.346     4 C    1.250     6 N    1.229
     6   7 N    3.250 --     5 C    1.229     2 C    1.229    40 H    0.960
     7   6 C    3.851 --    14 C    1.365     5 C    1.346     8 C    1.047
     8   6 C    3.875 --     9 C    1.797    13 C    1.118     7 C    1.047
     9   6 C    3.827 --     8 C    1.797    10 C    1.010    41 H    0.986
    10   6 C    3.936 --     9 C    1.010    43 H    0.987    42 H    0.979
                            11 N    0.967
    11   7 N    3.088 --    12 C    1.184    10 C    0.967    44 H    0.955
    12   6 C    3.942 --    13 C    1.706    11 N    1.184    45 H    0.979
    13   6 C    3.816 --    12 C    1.706     8 C    1.118    46 H    0.987
    14   6 C    3.930 --     7 C    1.365    17 N    1.361    15 C    1.161
    15   6 C    3.842 --    16 C    1.697    14 C    1.161    47 H    1.000
    16   6 C    3.855 --    15 C    1.697    18 C    1.163    48 H    0.999
    17   7 N    2.570 --    18 C    1.405    14 C    1.361
    18   6 C    3.947 --    17 N    1.405    19 C    1.302    16 C    1.163
    19   6 C    3.855 --    18 C    1.302    20 C    1.299   120 C    1.195
    20   6 C    3.907 --    19 C    1.299    21 C    1.262    24 N    1.246
    21   6 C    3.837 --    22 C    1.590    20 C    1.262    49 H    0.998
    22   6 C    3.822 --    21 C    1.590    23 C    1.257    50 H    0.999
    23   6 C    3.898 --    25 C    1.347    22 C    1.257    24 N    1.223
    24   7 N    3.259 --    20 C    1.246    23 C    1.223    51 H    0.959
    25   6 C    3.842 --    32 C    1.358    23 C    1.347    26 C    1.049
    26   6 C    3.875 --    27 C    1.798    31 C    1.116    25 C    1.049
    27   6 C    3.831 --    26 C    1.798    28 C    1.011    52 H    0.986
    28   6 C    3.936 --    27 C    1.011    54 H    0.987    53 H    0.979
                            29 N    0.966
    29   7 N    3.087 --    30 C    1.184    28 C    0.966    55 H    0.955
    30   6 C    3.942 --    31 C    1.707    29 N    1.184    56 H    0.979
    31   6 C    3.814 --    30 C    1.707    26 C    1.116    57 H    0.986
    32   6 C    3.946 --    36 N    1.380    25 C    1.358    33 C    1.155
    33   6 C    3.842 --    34 C    1.706    32 C    1.155    58 H    1.000
    34   6 C    3.863 --    33 C    1.706    35 C    1.148    59 H    0.993
    35   6 C    3.970 --     1 C    1.383    36 N    1.376    34 C    1.148
    36   7 N    2.560 --    32 C    1.380    35 C    1.376
    37   1 H    1.033 --     1 C    0.996
    38   1 H    1.016 --     3 C    0.993
    39   1 H    1.032 --     4 C    1.000
    40   1 H    1.083 --     6 N    0.960
    41   1 H    1.044 --     9 C    0.986
    42   1 H    1.014 --    10 C    0.979
    43   1 H    1.057 --    10 C    0.987
    44   1 H    1.038 --    11 N    0.955
    45   1 H    1.024 --    12 C    0.979
    46   1 H    1.057 --    13 C    0.987
    47   1 H    1.040 --    15 C    1.000
    48   1 H    1.030 --    16 C    0.999
    49   1 H    1.027 --    21 C    0.998
    50   1 H    1.036 --    22 C    0.999
    51   1 H    1.087 --    24 N    0.959
    52   1 H    1.047 --    27 C    0.986
    53   1 H    1.015 --    28 C    0.979
    54   1 H    1.057 --    28 C    0.987
    55   1 H    1.038 --    29 N    0.955
    56   1 H    1.025 --    30 C    0.979
    57   1 H    1.053 --    31 C    0.986
    58   1 H    1.038 --    33 C    1.000
    59   1 H    1.019 --    34 C    0.993
    60   6 C    3.819 --    94 C    1.383    61 C    1.375    96 H    0.996
    61   6 C    3.926 --    60 C    1.375    62 C    1.239    65 N    1.229
    62   6 C    3.841 --    63 C    1.600    61 C    1.239    97 H    0.993
    63   6 C    3.824 --    62 C    1.600    64 C    1.250    98 H    1.000
    64   6 C    3.901 --    66 C    1.346    63 C    1.250    65 N    1.229
    65   7 N    3.250 --    64 C    1.229    61 C    1.229    99 H    0.960
    66   6 C    3.851 --    73 C    1.365    64 C    1.346    67 C    1.047
    67   6 C    3.875 --    68 C    1.797    72 C    1.118    66 C    1.047
    68   6 C    3.827 --    67 C    1.797    69 C    1.010   100 H    0.986
    69   6 C    3.936 --    68 C    1.010   102 H    0.987   101 H    0.979
                            70 N    0.967
    70   7 N    3.088 --    71 C    1.184    69 C    0.967   103 H    0.955
    71   6 C    3.942 --    72 C    1.706    70 N    1.184   104 H    0.979
    72   6 C    3.816 --    71 C    1.706    67 C    1.118   105 H    0.987
    73   6 C    3.930 --    66 C    1.365    76 N    1.361    74 C    1.161
    74   6 C    3.842 --    75 C    1.697    73 C    1.161   106 H    1.000
    75   6 C    3.855 --    74 C    1.697    77 C    1.163   107 H    0.999
    76   7 N    2.569 --    77 C    1.405    73 C    1.361
    77   6 C    3.947 --    76 N    1.405    78 C    1.302    75 C    1.163
    78   6 C    3.855 --    77 C    1.302    79 C    1.299   146 C    1.194
    79   6 C    3.908 --    78 C    1.299    80 C    1.262    83 N    1.246
    80   6 C    3.837 --    81 C    1.590    79 C    1.262   108 H    0.998
    81   6 C    3.822 --    80 C    1.590    82 C    1.257   109 H    0.999
    82   6 C    3.898 --    84 C    1.347    81 C    1.257    83 N    1.223
    83   7 N    3.260 --    79 C    1.246    82 C    1.223   110 H    0.959
    84   6 C    3.842 --    91 C    1.358    82 C    1.347    85 C    1.049
    85   6 C    3.874 --    86 C    1.797    90 C    1.116    84 C    1.049
    86   6 C    3.831 --    85 C    1.797    87 C    1.011   111 H    0.986
    87   6 C    3.936 --    86 C    1.011   113 H    0.987   112 H    0.979
                            88 N    0.966
    88   7 N    3.087 --    89 C    1.184    87 C    0.966   114 H    0.955
    89   6 C    3.942 --    90 C    1.707    88 N    1.184   115 H    0.979
    90   6 C    3.814 --    89 C    1.707    85 C    1.116   116 H    0.986
    91   6 C    3.946 --    95 N    1.380    84 C    1.358    92 C    1.155
    92   6 C    3.842 --    93 C    1.706    91 C    1.155   117 H    1.000
    93   6 C    3.863 --    92 C    1.706    94 C    1.148   118 H    0.993
    94   6 C    3.970 --    60 C    1.383    95 N    1.376    93 C    1.148
    95   7 N    2.560 --    91 C    1.380    94 C    1.376
    96   1 H    1.033 --    60 C    0.996
    97   1 H    1.016 --    62 C    0.993
    98   1 H    1.032 --    63 C    1.000
    99   1 H    1.083 --    65 N    0.960
   100   1 H    1.044 --    68 C    0.986
   101   1 H    1.014 --    69 C    0.979
   102   1 H    1.057 --    69 C    0.987
   103   1 H    1.038 --    70 N    0.955
   104   1 H    1.024 --    71 C    0.979
   105   1 H    1.056 --    72 C    0.987
   106   1 H    1.040 --    74 C    1.000
   107   1 H    1.030 --    75 C    0.999
   108   1 H    1.027 --    80 C    0.998
   109   1 H    1.036 --    81 C    0.999
   110   1 H    1.087 --    83 N    0.959
   111   1 H    1.047 --    86 C    0.986
   112   1 H    1.015 --    87 C    0.979
   113   1 H    1.057 --    87 C    0.987
   114   1 H    1.038 --    88 N    0.955
   115   1 H    1.025 --    89 C    0.979
   116   1 H    1.054 --    90 C    0.986
   117   1 H    1.038 --    92 C    1.000
   118   1 H    1.019 --    93 C    0.993
   119   6 C    3.802 --   120 C    2.524   121 C    1.306
   120   6 C    3.793 --   119 C    2.524    19 C    1.195   122 C    0.180
   121   6 C    3.795 --   122 C    2.520   119 C    1.306
   122   6 C    3.797 --   121 C    2.520   147 C    1.199   120 C    0.180
   123   6 C    3.799 --   124 C    2.490   125 C    1.335
   124   6 C    3.800 --   123 C    2.490   165 C    1.228   126 C    0.180
   125   6 C    3.797 --   126 C    2.489   123 C    1.335
   126   6 C    3.801 --   125 C    2.489   205 C    1.229   124 C    0.180
   127   6 C    3.797 --   128 C    2.488   129 C    1.336
   128   6 C    3.800 --   127 C    2.488   223 C    1.230   130 C    0.180
   129   6 C    3.798 --   130 C    2.488   127 C    1.336
   130   6 C    3.800 --   129 C    2.488   263 C    1.230   128 C    0.180
   131   6 C    3.798 --   132 C    2.489   133 C    1.336
   132   6 C    3.800 --   131 C    2.489   281 C    1.230   134 C    0.180
   133   6 C    3.798 --   134 C    2.489   131 C    1.336
   134   6 C    3.800 --   133 C    2.489   321 C    1.230   132 C    0.180
   135   6 C    3.798 --   136 C    2.488   137 C    1.336
   136   6 C    3.800 --   135 C    2.488   339 C    1.230   138 C    0.180
   137   6 C    3.797 --   138 C    2.488   135 C    1.336
   138   6 C    3.800 --   137 C    2.488   379 C    1.230   136 C    0.180
   139   6 C    3.797 --   140 C    2.489   141 C    1.335
   140   6 C    3.801 --   139 C    2.489   397 C    1.229   142 C    0.180
   141   6 C    3.799 --   142 C    2.490   139 C    1.335
   142   6 C    3.800 --   141 C    2.490   437 C    1.228   140 C    0.180
   143   6 C    3.795 --   144 C    2.520   145 C    1.305
   144   6 C    3.797 --   143 C    2.520   455 C    1.199   146 C    0.180
   145   6 C    3.802 --   146 C    2.524   143 C    1.305
   146   6 C    3.793 --   145 C    2.524    78 C    1.194   144 C    0.180
   147   6 C    3.829 --   181 C    1.295   148 C    1.292   122 C    1.199
   148   6 C    3.910 --   147 C    1.292   149 C    1.266   152 N    1.248
   149   6 C    3.828 --   150 C    1.582   148 C    1.266   183 H    0.999
   150   6 C    3.827 --   149 C    1.582   151 C    1.261   184 H    1.000
   151   6 C    3.890 --   153 C    1.344   150 C    1.261   152 N    1.219
   152   7 N    3.249 --   148 C    1.248   151 C    1.219   185 H    0.961
   153   6 C    3.843 --   160 C    1.371   151 C    1.344   154 C    1.045
   154   6 C    3.873 --   155 C    1.798   159 C    1.120   153 C    1.045
   155   6 C    3.824 --   154 C    1.798   156 C    1.010   186 H    0.985
   156   6 C    3.936 --   155 C    1.010   188 H    0.987   187 H    0.977
                           157 N    0.968
   157   7 N    3.088 --   158 C    1.182   156 C    0.968   189 H    0.955
   158   6 C    3.942 --   159 C    1.704   157 N    1.182   190 H    0.979
   159   6 C    3.817 --   158 C    1.704   154 C    1.120   191 H    0.987
   160   6 C    3.923 --   153 C    1.371   163 N    1.352   161 C    1.165
   161   6 C    3.839 --   162 C    1.690   160 C    1.165   192 H    1.000
   162   6 C    3.847 --   161 C    1.690   164 C    1.168   193 H    1.000
   163   7 N    2.555 --   164 C    1.416   160 C    1.352
   164   6 C    3.942 --   163 N    1.416   165 C    1.283   162 C    1.168
   165   6 C    3.831 --   164 C    1.283   166 C    1.281   124 C    1.228
   166   6 C    3.905 --   165 C    1.281   167 C    1.272   170 N    1.251
   167   6 C    3.829 --   168 C    1.577   166 C    1.272   194 H    0.999
   168   6 C    3.822 --   167 C    1.577   169 C    1.264   195 H    1.000
   169   6 C    3.890 --   171 C    1.339   168 C    1.264   170 N    1.222
   170   7 N    3.254 --   166 C    1.251   169 C    1.222   196 H    0.961
   171   6 C    3.839 --   178 C    1.373   169 C    1.339   172 C    1.045
   172   6 C    3.873 --   173 C    1.798   177 C    1.119   171 C    1.045
   173   6 C    3.824 --   172 C    1.798   174 C    1.010   197 H    0.985
   174   6 C    3.935 --   173 C    1.010   199 H    0.987   198 H    0.977
                           175 N    0.967
   175   7 N    3.088 --   176 C    1.182   174 C    0.967   200 H    0.955
   176   6 C    3.942 --   177 C    1.704   175 N    1.182   201 H    0.980
   177   6 C    3.817 --   176 C    1.704   172 C    1.119   202 H    0.987
   178   6 C    3.927 --   171 C    1.373   182 N    1.354   179 C    1.162
   179   6 C    3.843 --   180 C    1.695   178 C    1.162   203 H    1.000
   180   6 C    3.849 --   179 C    1.695   181 C    1.165   204 H    1.000
   181   6 C    3.948 --   182 N    1.409   147 C    1.295   180 C    1.165
   182   7 N    2.550 --   181 C    1.409   178 C    1.354
   183   1 H    1.027 --   149 C    0.999
   184   1 H    1.037 --   150 C    1.000
   185   1 H    1.085 --   152 N    0.961
   186   1 H    1.043 --   155 C    0.985
   187   1 H    1.023 --   156 C    0.977
   188   1 H    1.054 --   156 C    0.987
   189   1 H    1.038 --   157 N    0.955
   190   1 H    1.026 --   158 C    0.979
   191   1 H    1.056 --   159 C    0.987
   192   1 H    1.042 --   161 C    1.000
   193   1 H    1.032 --   162 C    1.000
   194   1 H    1.027 --   167 C    0.999
   195   1 H    1.036 --   168 C    1.000
   196   1 H    1.085 --   170 N    0.961
   197   1 H    1.043 --   173 C    0.985
   198   1 H    1.023 --   174 C    0.977
   199   1 H    1.053 --   174 C    0.987
   200   1 H    1.038 --   175 N    0.955
   201   1 H    1.026 --   176 C    0.980
   202   1 H    1.056 --   177 C    0.987
   203   1 H    1.042 --   179 C    1.000
   204   1 H    1.031 --   180 C    1.000
   205   6 C    3.824 --   239 C    1.282   206 C    1.279   126 C    1.229
   206   6 C    3.906 --   205 C    1.279   207 C    1.273   210 N    1.253
   207   6 C    3.827 --   208 C    1.575   206 C    1.273   241 H    0.999
   208   6 C    3.823 --   207 C    1.575   209 C    1.266   242 H    1.000
   209   6 C    3.889 --   211 C    1.339   208 C    1.266   210 N    1.219
   210   7 N    3.250 --   206 C    1.253   209 C    1.219   243 H    0.961
   211   6 C    3.839 --   218 C    1.374   209 C    1.339   212 C    1.045
   212   6 C    3.873 --   213 C    1.798   217 C    1.120   211 C    1.045
   213   6 C    3.824 --   212 C    1.798   214 C    1.010   244 H    0.985
   214   6 C    3.935 --   213 C    1.010   246 H    0.987   245 H    0.977
                           215 N    0.968
   215   7 N    3.087 --   216 C    1.181   214 C    0.968   247 H    0.955
   216   6 C    3.942 --   217 C    1.705   215 N    1.181   248 H    0.980
   217   6 C    3.817 --   216 C    1.705   212 C    1.120   249 H    0.987
   218   6 C    3.924 --   211 C    1.374   221 N    1.349   219 C    1.165
   219   6 C    3.840 --   220 C    1.690   218 C    1.165   250 H    1.000
   220   6 C    3.847 --   219 C    1.690   222 C    1.168   251 H    1.000
   221   7 N    2.550 --   222 C    1.418   218 C    1.349
   222   6 C    3.943 --   221 N    1.418   223 C    1.281   220 C    1.168
   223   6 C    3.825 --   222 C    1.281   224 C    1.279   128 C    1.230
   224   6 C    3.906 --   223 C    1.279   225 C    1.273   228 N    1.253
   225   6 C    3.827 --   226 C    1.575   224 C    1.273   252 H    0.999
   226   6 C    3.823 --   225 C    1.575   227 C    1.266   253 H    1.000
   227   6 C    3.888 --   229 C    1.338   226 C    1.266   228 N    1.221
   228   7 N    3.251 --   224 C    1.253   227 C    1.221   254 H    0.961
   229   6 C    3.839 --   236 C    1.376   227 C    1.338   230 C    1.045
   230   6 C    3.873 --   231 C    1.798   235 C    1.119   229 C    1.045
   231   6 C    3.824 --   230 C    1.798   232 C    1.010   255 H    0.985
   232   6 C    3.935 --   231 C    1.010   257 H    0.987   256 H    0.977
                           233 N    0.967
   233   7 N    3.087 --   234 C    1.181   232 C    0.967   258 H    0.955
   234   6 C    3.942 --   235 C    1.705   233 N    1.181   259 H    0.980
   235   6 C    3.817 --   234 C    1.705   230 C    1.119   260 H    0.987
   236   6 C    3.924 --   229 C    1.376   240 N    1.348   237 C    1.164
   237   6 C    3.840 --   238 C    1.690   236 C    1.164   261 H    1.000
   238   6 C    3.846 --   237 C    1.690   239 C    1.168   262 H    1.000
   239   6 C    3.943 --   240 N    1.419   205 C    1.282   238 C    1.168
   240   7 N    2.549 --   239 C    1.419   236 C    1.348
   241   1 H    1.027 --   207 C    0.999
   242   1 H    1.037 --   208 C    1.000
   243   1 H    1.085 --   210 N    0.961
   244   1 H    1.043 --   213 C    0.985
   245   1 H    1.023 --   214 C    0.977
   246   1 H    1.054 --   214 C    0.987
   247   1 H    1.039 --   215 N    0.955
   248   1 H    1.026 --   216 C    0.980
   249   1 H    1.056 --   217 C    0.987
   250   1 H    1.042 --   219 C    1.000
   251   1 H    1.032 --   220 C    1.000
   252   1 H    1.027 --   225 C    0.999
   253   1 H    1.037 --   226 C    1.000
   254   1 H    1.085 --   228 N    0.961
   255   1 H    1.043 --   231 C    0.985
   256   1 H    1.023 --   232 C    0.977
   257   1 H    1.054 --   232 C    0.987
   258   1 H    1.039 --   233 N    0.955
   259   1 H    1.027 --   234 C    0.980
   260   1 H    1.056 --   235 C    0.987
   261   1 H    1.042 --   237 C    1.000
   262   1 H    1.032 --   238 C    1.000
   263   6 C    3.827 --   297 C    1.282   264 C    1.279   130 C    1.230
   264   6 C    3.906 --   263 C    1.279   265 C    1.273   268 N    1.253
   265   6 C    3.828 --   266 C    1.576   264 C    1.273   299 H    0.999
   266   6 C    3.823 --   265 C    1.576   267 C    1.266   300 H    1.000
   267   6 C    3.889 --   269 C    1.339   266 C    1.266   268 N    1.220
   268   7 N    3.251 --   264 C    1.253   267 C    1.220   301 H    0.961
   269   6 C    3.839 --   276 C    1.375   267 C    1.339   270 C    1.045
   270   6 C    3.873 --   271 C    1.798   275 C    1.120   269 C    1.045
   271   6 C    3.824 --   270 C    1.798   272 C    1.010   302 H    0.985
   272   6 C    3.935 --   271 C    1.010   304 H    0.987   303 H    0.977
                           273 N    0.967
   273   7 N    3.088 --   274 C    1.181   272 C    0.967   305 H    0.955
   274   6 C    3.942 --   275 C    1.704   273 N    1.181   306 H    0.980
   275   6 C    3.817 --   274 C    1.704   270 C    1.120   307 H    0.987
   276   6 C    3.924 --   269 C    1.375   279 N    1.349   277 C    1.165
   277   6 C    3.840 --   278 C    1.690   276 C    1.165   308 H    1.000
   278   6 C    3.847 --   277 C    1.690   280 C    1.168   309 H    1.000
   279   7 N    2.550 --   280 C    1.418   276 C    1.349
   280   6 C    3.943 --   279 N    1.418   281 C    1.282   278 C    1.168
   281   6 C    3.827 --   280 C    1.282   282 C    1.279   132 C    1.230
   282   6 C    3.906 --   281 C    1.279   283 C    1.273   286 N    1.253
   283   6 C    3.828 --   284 C    1.576   282 C    1.273   310 H    0.999
   284   6 C    3.823 --   283 C    1.576   285 C    1.266   311 H    1.000
   285   6 C    3.889 --   287 C    1.339   284 C    1.266   286 N    1.220
   286   7 N    3.251 --   282 C    1.253   285 C    1.220   312 H    0.961
   287   6 C    3.839 --   294 C    1.375   285 C    1.339   288 C    1.046
   288   6 C    3.873 --   289 C    1.798   293 C    1.120   287 C    1.046
   289   6 C    3.824 --   288 C    1.798   290 C    1.010   313 H    0.985
   290   6 C    3.935 --   289 C    1.010   315 H    0.987   314 H    0.977
                           291 N    0.967
   291   7 N    3.087 --   292 C    1.181   290 C    0.967   316 H    0.955
   292   6 C    3.942 --   293 C    1.705   291 N    1.181   317 H    0.980
   293   6 C    3.817 --   292 C    1.705   288 C    1.120   318 H    0.987
   294   6 C    3.924 --   287 C    1.375   298 N    1.349   295 C    1.165
   295   6 C    3.840 --   296 C    1.690   294 C    1.165   319 H    1.000
   296   6 C    3.847 --   295 C    1.690   297 C    1.168   320 H    1.000
   297   6 C    3.943 --   298 N    1.419   263 C    1.282   296 C    1.168
   298   7 N    2.550 --   297 C    1.419   294 C    1.349
   299   1 H    1.027 --   265 C    0.999
   300   1 H    1.037 --   266 C    1.000
   301   1 H    1.085 --   268 N    0.961
   302   1 H    1.043 --   271 C    0.985
   303   1 H    1.023 --   272 C    0.977
   304   1 H    1.054 --   272 C    0.987
   305   1 H    1.039 --   273 N    0.955
   306   1 H    1.026 --   274 C    0.980
   307   1 H    1.056 --   275 C    0.987
   308   1 H    1.042 --   277 C    1.000
   309   1 H    1.032 --   278 C    1.000
   310   1 H    1.027 --   283 C    0.999
   311   1 H    1.037 --   284 C    1.000
   312   1 H    1.085 --   286 N    0.961
   313   1 H    1.043 --   289 C    0.985
   314   1 H    1.023 --   290 C    0.977
   315   1 H    1.054 --   290 C    0.987
   316   1 H    1.039 --   291 N    0.955
   317   1 H    1.026 --   292 C    0.980
   318   1 H    1.056 --   293 C    0.987
   319   1 H    1.042 --   295 C    1.000
   320   1 H    1.032 --   296 C    1.000
   321   6 C    3.827 --   355 C    1.282   322 C    1.279   134 C    1.230
   322   6 C    3.906 --   321 C    1.279   323 C    1.273   326 N    1.253
   323   6 C    3.828 --   324 C    1.576   322 C    1.273   357 H    0.999
   324   6 C    3.823 --   323 C    1.576   325 C    1.266   358 H    1.000
   325   6 C    3.889 --   327 C    1.339   324 C    1.266   326 N    1.220
   326   7 N    3.251 --   322 C    1.253   325 C    1.220   359 H    0.961
   327   6 C    3.839 --   334 C    1.375   325 C    1.339   328 C    1.045
   328   6 C    3.873 --   329 C    1.798   333 C    1.120   327 C    1.045
   329   6 C    3.824 --   328 C    1.798   330 C    1.010   360 H    0.985
   330   6 C    3.935 --   329 C    1.010   362 H    0.987   361 H    0.977
                           331 N    0.967
   331   7 N    3.088 --   332 C    1.181   330 C    0.967   363 H    0.955
   332   6 C    3.942 --   333 C    1.705   331 N    1.181   364 H    0.980
   333   6 C    3.817 --   332 C    1.705   328 C    1.120   365 H    0.987
   334   6 C    3.924 --   327 C    1.375   337 N    1.349   335 C    1.165
   335   6 C    3.840 --   336 C    1.690   334 C    1.165   366 H    1.000
   336   6 C    3.847 --   335 C    1.690   338 C    1.168   367 H    1.000
   337   7 N    2.550 --   338 C    1.419   334 C    1.349
   338   6 C    3.943 --   337 N    1.419   339 C    1.282   336 C    1.168
   339   6 C    3.827 --   338 C    1.282   340 C    1.279   136 C    1.230
   340   6 C    3.906 --   339 C    1.279   341 C    1.273   344 N    1.253
   341   6 C    3.828 --   342 C    1.576   340 C    1.273   368 H    0.999
   342   6 C    3.823 --   341 C    1.576   343 C    1.266   369 H    1.000
   343   6 C    3.889 --   345 C    1.339   342 C    1.266   344 N    1.220
   344   7 N    3.251 --   340 C    1.253   343 C    1.220   370 H    0.961
   345   6 C    3.839 --   352 C    1.375   343 C    1.339   346 C    1.045
   346   6 C    3.873 --   347 C    1.798   351 C    1.120   345 C    1.045
   347   6 C    3.824 --   346 C    1.798   348 C    1.010   371 H    0.985
   348   6 C    3.935 --   347 C    1.010   373 H    0.987   372 H    0.977
                           349 N    0.967
   349   7 N    3.088 --   350 C    1.181   348 C    0.967   374 H    0.955
   350   6 C    3.942 --   351 C    1.705   349 N    1.181   375 H    0.980
   351   6 C    3.817 --   350 C    1.705   346 C    1.120   376 H    0.987
   352   6 C    3.924 --   345 C    1.375   356 N    1.349   353 C    1.165
   353   6 C    3.840 --   354 C    1.690   352 C    1.165   377 H    1.000
   354   6 C    3.847 --   353 C    1.690   355 C    1.168   378 H    1.000
   355   6 C    3.943 --   356 N    1.418   321 C    1.282   354 C    1.168
   356   7 N    2.550 --   355 C    1.418   352 C    1.349
   357   1 H    1.027 --   323 C    0.999
   358   1 H    1.037 --   324 C    1.000
   359   1 H    1.085 --   326 N    0.961
   360   1 H    1.043 --   329 C    0.985
   361   1 H    1.023 --   330 C    0.977
   362   1 H    1.054 --   330 C    0.987
   363   1 H    1.039 --   331 N    0.955
   364   1 H    1.026 --   332 C    0.980
   365   1 H    1.056 --   333 C    0.987
   366   1 H    1.042 --   335 C    1.000
   367   1 H    1.032 --   336 C    1.000
   368   1 H    1.027 --   341 C    0.999
   369   1 H    1.037 --   342 C    1.000
   370   1 H    1.085 --   344 N    0.961
   371   1 H    1.043 --   347 C    0.985
   372   1 H    1.023 --   348 C    0.977
   373   1 H    1.054 --   348 C    0.987
   374   1 H    1.039 --   349 N    0.955
   375   1 H    1.026 --   350 C    0.980
   376   1 H    1.056 --   351 C    0.987
   377   1 H    1.042 --   353 C    1.000
   378   1 H    1.032 --   354 C    1.000
   379   6 C    3.825 --   413 C    1.281   380 C    1.279   138 C    1.230
   380   6 C    3.906 --   379 C    1.279   381 C    1.273   384 N    1.253
   381   6 C    3.827 --   382 C    1.575   380 C    1.273   415 H    0.999
   382   6 C    3.823 --   381 C    1.575   383 C    1.266   416 H    1.000
   383   6 C    3.888 --   385 C    1.338   382 C    1.266   384 N    1.220
   384   7 N    3.251 --   380 C    1.253   383 C    1.220   417 H    0.961
   385   6 C    3.839 --   392 C    1.376   383 C    1.338   386 C    1.045
   386   6 C    3.873 --   387 C    1.798   391 C    1.119   385 C    1.045
   387   6 C    3.824 --   386 C    1.798   388 C    1.010   418 H    0.985
   388   6 C    3.935 --   387 C    1.010   420 H    0.987   419 H    0.977
                           389 N    0.967
   389   7 N    3.087 --   390 C    1.181   388 C    0.967   421 H    0.955
   390   6 C    3.942 --   391 C    1.705   389 N    1.181   422 H    0.980
   391   6 C    3.817 --   390 C    1.705   386 C    1.119   423 H    0.987
   392   6 C    3.924 --   385 C    1.376   395 N    1.348   393 C    1.164
   393   6 C    3.840 --   394 C    1.690   392 C    1.164   424 H    1.000
   394   6 C    3.846 --   393 C    1.690   396 C    1.168   425 H    1.000
   395   7 N    2.549 --   396 C    1.419   392 C    1.348
   396   6 C    3.943 --   395 N    1.419   397 C    1.282   394 C    1.168
   397   6 C    3.824 --   396 C    1.282   398 C    1.279   140 C    1.229
   398   6 C    3.906 --   397 C    1.279   399 C    1.273   402 N    1.253
   399   6 C    3.827 --   400 C    1.575   398 C    1.273   426 H    0.999
   400   6 C    3.823 --   399 C    1.575   401 C    1.266   427 H    1.000
   401   6 C    3.889 --   403 C    1.339   400 C    1.266   402 N    1.219
   402   7 N    3.250 --   398 C    1.253   401 C    1.219   428 H    0.961
   403   6 C    3.840 --   410 C    1.374   401 C    1.339   404 C    1.045
   404   6 C    3.873 --   405 C    1.798   409 C    1.120   403 C    1.045
   405   6 C    3.824 --   404 C    1.798   406 C    1.010   429 H    0.985
   406   6 C    3.935 --   405 C    1.010   431 H    0.987   430 H    0.977
                           407 N    0.968
   407   7 N    3.087 --   408 C    1.181   406 C    0.968   432 H    0.955
   408   6 C    3.942 --   409 C    1.705   407 N    1.181   433 H    0.980
   409   6 C    3.817 --   408 C    1.705   404 C    1.120   434 H    0.987
   410   6 C    3.923 --   403 C    1.374   414 N    1.349   411 C    1.165
   411   6 C    3.840 --   412 C    1.690   410 C    1.165   435 H    1.000
   412   6 C    3.847 --   411 C    1.690   413 C    1.168   436 H    1.000
   413   6 C    3.943 --   414 N    1.418   379 C    1.281   412 C    1.168
   414   7 N    2.550 --   413 C    1.418   410 C    1.349
   415   1 H    1.027 --   381 C    0.999
   416   1 H    1.037 --   382 C    1.000
   417   1 H    1.085 --   384 N    0.961
   418   1 H    1.043 --   387 C    0.985
   419   1 H    1.023 --   388 C    0.977
   420   1 H    1.054 --   388 C    0.987
   421   1 H    1.039 --   389 N    0.955
   422   1 H    1.027 --   390 C    0.980
   423   1 H    1.056 --   391 C    0.987
   424   1 H    1.042 --   393 C    1.000
   425   1 H    1.032 --   394 C    1.000
   426   1 H    1.027 --   399 C    0.999
   427   1 H    1.037 --   400 C    1.000
   428   1 H    1.085 --   402 N    0.961
   429   1 H    1.043 --   405 C    0.985
   430   1 H    1.023 --   406 C    0.977
   431   1 H    1.054 --   406 C    0.987
   432   1 H    1.039 --   407 N    0.955
   433   1 H    1.026 --   408 C    0.980
   434   1 H    1.056 --   409 C    0.987
   435   1 H    1.042 --   411 C    1.000
   436   1 H    1.032 --   412 C    1.000
   437   6 C    3.831 --   471 C    1.283   438 C    1.281   142 C    1.228
   438   6 C    3.905 --   437 C    1.281   439 C    1.272   442 N    1.251
   439   6 C    3.829 --   440 C    1.577   438 C    1.272   473 H    0.999
   440   6 C    3.822 --   439 C    1.577   441 C    1.264   474 H    1.000
   441   6 C    3.890 --   443 C    1.339   440 C    1.264   442 N    1.222
   442   7 N    3.254 --   438 C    1.251   441 C    1.222   475 H    0.961
   443   6 C    3.839 --   450 C    1.373   441 C    1.339   444 C    1.045
   444   6 C    3.873 --   445 C    1.798   449 C    1.120   443 C    1.045
   445   6 C    3.824 --   444 C    1.798   446 C    1.010   476 H    0.985
   446   6 C    3.935 --   445 C    1.010   478 H    0.987   477 H    0.977
                           447 N    0.967
   447   7 N    3.088 --   448 C    1.182   446 C    0.967   479 H    0.955
   448   6 C    3.942 --   449 C    1.704   447 N    1.182   480 H    0.980
   449   6 C    3.817 --   448 C    1.704   444 C    1.120   481 H    0.987
   450   6 C    3.927 --   443 C    1.373   453 N    1.354   451 C    1.161
   451   6 C    3.843 --   452 C    1.695   450 C    1.161   482 H    1.000
   452   6 C    3.849 --   451 C    1.695   454 C    1.165   483 H    1.000
   453   7 N    2.550 --   454 C    1.409   450 C    1.354
   454   6 C    3.948 --   453 N    1.409   455 C    1.296   452 C    1.165
   455   6 C    3.829 --   454 C    1.296   456 C    1.292   144 C    1.199
   456   6 C    3.910 --   455 C    1.292   457 C    1.266   460 N    1.248
   457   6 C    3.828 --   458 C    1.583   456 C    1.266   484 H    0.999
   458   6 C    3.827 --   457 C    1.583   459 C    1.261   485 H    1.000
   459   6 C    3.890 --   461 C    1.344   458 C    1.261   460 N    1.219
   460   7 N    3.249 --   456 C    1.248   459 C    1.219   486 H    0.961
   461   6 C    3.843 --   468 C    1.371   459 C    1.344   462 C    1.045
   462   6 C    3.873 --   463 C    1.798   467 C    1.120   461 C    1.045
   463   6 C    3.824 --   462 C    1.798   464 C    1.010   487 H    0.985
   464   6 C    3.936 --   463 C    1.010   489 H    0.987   488 H    0.977
                           465 N    0.968
   465   7 N    3.088 --   466 C    1.182   464 C    0.968   490 H    0.955
   466   6 C    3.942 --   467 C    1.704   465 N    1.182   491 H    0.979
   467   6 C    3.817 --   466 C    1.704   462 C    1.120   492 H    0.987
   468   6 C    3.923 --   461 C    1.371   472 N    1.352   469 C    1.165
   469   6 C    3.839 --   470 C    1.689   468 C    1.165   493 H    1.000
   470   6 C    3.847 --   469 C    1.689   471 C    1.168   494 H    1.000
   471   6 C    3.942 --   472 N    1.416   437 C    1.283   470 C    1.168
   472   7 N    2.555 --   471 C    1.416   468 C    1.352
   473   1 H    1.027 --   439 C    0.999
   474   1 H    1.036 --   440 C    1.000
   475   1 H    1.085 --   442 N    0.961
   476   1 H    1.043 --   445 C    0.985
   477   1 H    1.023 --   446 C    0.977
   478   1 H    1.053 --   446 C    0.987
   479   1 H    1.038 --   447 N    0.955
   480   1 H    1.026 --   448 C    0.980
   481   1 H    1.056 --   449 C    0.987
   482   1 H    1.042 --   451 C    1.000
   483   1 H    1.031 --   452 C    1.000
   484   1 H    1.026 --   457 C    0.999
   485   1 H    1.037 --   458 C    1.000
   486   1 H    1.085 --   460 N    0.961
   487   1 H    1.043 --   463 C    0.985
   488   1 H    1.023 --   464 C    0.977
   489   1 H    1.054 --   464 C    0.987
   490   1 H    1.038 --   465 N    0.955
   491   1 H    1.026 --   466 C    0.979
   492   1 H    1.056 --   467 C    0.987
   493   1 H    1.042 --   469 C    1.000
   494   1 H    1.032 --   470 C    1.000
 ---------------------------------------------------------------------------

Topologies differ in total number of bonds
Writing topology from bond orders to xtbtopo.mol

 dipole moment from electron density (au)
     X       Y       Z   
-279.3610   0.1001  -0.1745  total (Debye):  710.065


           -------------------------------------------------
          | TOTAL ENERGY             -928.921324894304 Eh   |
          | GRADIENT NORM               0.125148017199 Eh/α |
          | HOMO-LUMO GAP               0.075741419751 eV   |
           -------------------------------------------------
########################################################################
[WARNING] Runtime exception occurred
-1- restart_readRestart: Dimension missmatch in restart file.
########################################################################

------------------------------------------------------------------------
 * finished run on 2022/07/27 at 23:14:21.272     
------------------------------------------------------------------------
 total:
 * wall-time:     0 d,  0 h,  2 min, 28.856 sec
 *  cpu-time:     0 d,  0 h,  2 min, 27.883 sec
 * ratio c/w:     0.993 speedup
 SCF:
 * wall-time:     0 d,  0 h,  2 min, 26.695 sec
 *  cpu-time:     0 d,  0 h,  2 min, 25.753 sec
 * ratio c/w:     0.994 speedup

