200
 energy: -383.172284687936 gnorm: 2.148473264952 xtb: 6.5.1 (b24c23e)
C           24.62772100000000       -0.61961400000000        0.56709800000000
C           25.31826600000000       -1.25948900000000       -0.67722600000000
C           24.66917200000000       -1.78779600000000       -1.76711400000000
C           25.66579100000000       -2.26292300000000       -2.65669300000000
C           26.89095700000000       -2.02011300000000       -2.07636300000000
N           26.66826000000000       -1.36985200000000       -0.88664200000000
C           28.31420300000000       -2.43279400000000       -2.64595300000000
C           28.36916100000000       -3.31285400000000       -3.84579400000000
C           28.93568500000000       -2.80201400000000       -5.03010400000000
C           28.99666200000000       -3.59013500000000       -6.17139300000000
O           29.55204600000000       -3.13308400000000       -7.33307800000000
C           28.47603000000000       -4.87519400000000       -6.15399100000000
O           28.52327300000000       -5.64826400000000       -7.28478300000000
C           27.88922100000000       -5.38213800000000       -4.99673800000000
O           27.35288200000000       -6.63932900000000       -5.01215900000000
C           27.83609999999999       -4.61346900000000       -3.83770400000000
C           29.44427100000000       -1.94057400000000       -2.06188800000000
C           30.76476299999999       -2.39892200000000       -2.44208800000000
C           31.66292400000000       -1.74850300000000       -1.71268000000000
N           29.62704300000000       -1.01374800000000       -1.06945600000000
C           30.96450300000000       -0.82978100000000       -0.83720900000000
C           31.62719900000000        0.00729900000000        0.00537000000000
C           30.83447800000000        1.05181400000000        0.89871800000000
C           31.32521800000000        2.24771700000000        1.38542800000000
C           30.30890800000000        2.84414000000000        2.17399500000000
C           29.21716100000000        2.00378000000000        2.13187900000000
N           29.53116100000000        0.93847700000000        1.31878900000000
C           27.83201499999999        2.21474900000000        2.86967800000000
C           27.75450600000000        3.24532400000000        3.92914000000000
C           28.22790500000000        2.99275600000000        5.22723200000000
C           28.14047600000000        3.98980700000000        6.18650800000000
O           28.59073300000000        3.76465700000000        7.45682700000000
C           27.59585800000000        5.22694900000000        5.86316200000000
O           27.51689400000000        6.19819000000000        6.82778300000000
C           27.13936900000000        5.48652700000000        4.57535500000000
O           26.62426000000000        6.72753200000000        4.31926900000000
C           27.21397899999999        4.50285600000000        3.60250900000000
C           26.74068100000000        1.50655000000000        2.47287200000000
C           25.45378000000000        1.60702700000000        3.14038100000000
C           24.59124500000000        0.81512000000000        2.51057700000000
C           25.28955100000000        0.19573100000000        1.41010800000000
N           26.58294900000000        0.61341400000000        1.45182500000000
H           23.57702400000000       -0.82812400000000        0.73342300000000
H           23.59954800000000       -1.82491800000000       -1.90910400000000
H           25.50470100000000       -2.74164500000000       -3.61105800000000
H           27.39453300000000       -0.99968800000000       -0.28205200000000
H           29.31761100000000       -1.78188700000000       -5.01811100000000
H           29.86600300000000       -2.23584100000000       -7.14042800000000
H           29.00916399999999       -5.08612300000000       -7.91253600000000
H           27.59437100000000       -6.97402500000000       -5.89284700000000
H           27.37409700000000       -5.00504200000000       -2.93485300000000
H           30.99281800000000       -3.16431100000000       -3.16092100000000
H           32.72282200000000       -1.90339000000000       -1.77637600000000
H           32.31010000000000        2.65118300000000        1.19810200000000
H           30.37059100000000        3.77979100000000        2.71001100000000
H           28.87286900000000        0.21383400000000        1.03730900000000
H           28.65733700000000        2.02368400000000        5.46577600000000
H           28.42081599999999        4.60550200000000        7.92132400000000
H           27.10175600000000        6.95146100000000        6.35171700000000
H           26.39078000000000        6.74364700000000        3.37170200000000
H           26.85852900000000        4.66671100000000        2.58709100000000
H           25.22949600000000        2.20099800000000        4.00779100000000
H           23.55691700000000        0.66818800000000        2.76690700000000
C           65.22367100000000       -0.69281600000000        0.47269900000000
C           64.53312600000000        0.35302900000000        1.40220900000000
C           65.18222000000000        1.27707700000000        2.18521600000000
C           64.18560200000000        2.02036100000000        2.86685000000000
C           62.96043500000000        1.51875200000000        2.48720800000000
N           63.18313200000000        0.52837600000000        1.56123200000000
C           61.53718899999999        1.96766900000000        3.02869800000000
C           61.48223100000000        2.91063700000000        4.17975700000000
C           60.91570700000000        4.18483500000000        3.97984300000000
C           60.85473000000000        5.09398300000000        5.02728000000000
O           60.29934600000000        6.33287800000000        4.87382800000000
C           61.37536200000000        4.75720600000000        6.26754600000000
O           61.32811900000000        5.65993400000000        7.29779300000000
C           61.96217100000000        3.51018200000000        6.47042400000000
O           62.49851000000000        3.21213300000000        7.69187100000000
C           62.01529200000000        2.57900500000000        5.43740800000000
C           60.40712100000000        1.52453500000000        2.40657000000000
C           59.08662899999999        1.77865500000000        2.94514000000000
C           58.18846800000000        1.23413800000000        2.13360900000000
N           60.22434900000000        0.79408900000000        1.26185300000000
C           58.88688899999999        0.61495300000000        1.02585900000000
C           58.22419299999999        0.00729900000000        0.00537000000000
C           59.01691400000000       -0.59788400000000       -1.22866300000000
C           58.52617399999999       -0.77154200000000       -2.50808200000000
C           59.54248400000000       -1.38679800000000       -3.28204500000000
C           60.63423100000000       -1.55522000000000       -2.45765800000000
N           60.32023100000000       -1.03294500000000       -1.22347300000000
C           62.01937700000000       -2.21726800000000       -2.84566400000000
C           62.09688600000000       -2.98680400000000       -4.10755100000000
C           61.62348699999999       -4.30690400000000       -4.18610300000000
C           61.71091600000000       -4.98775600000000       -5.39057900000000
O           61.26065900000000       -6.27413100000000       -5.48877100000000
C           62.25553400000000       -4.36659600000000       -6.50827000000000
O           62.33449800000000       -5.05905000000000       -7.68907900000000
C           62.71202299999999       -3.05471300000000       -6.43906800000000
O           63.22713300000000       -2.49773500000000       -7.57724600000000
C           62.63741300000000       -2.35738800000000       -5.24417300000000
C           63.11071099999999       -2.00926600000000       -2.06097600000000
C           64.39761300000001       -2.63074400000000       -2.32446900000000
C           65.26014700000000       -2.21791900000000       -1.40070300000000
C           64.56184100000000       -1.30629900000000       -0.52684700000000
N           63.26844300000000       -1.24271800000000       -0.94176500000000
H           66.27436800000000       -0.90581400000000        0.63323700000000
H           66.25184400000001        1.40535400000000        2.25651900000000
H           64.34669100000001        2.82549700000000        3.56809400000000
H           62.45685899999999        0.03497600000000        1.05220700000000
H           60.53378100000000        4.42718600000000        2.98884900000000
H           59.98538899999999        6.36966700000000        3.95687300000000
H           60.84222800000000        6.40787100000000        6.90963400000000
H           62.25702100000000        3.98176700000000        8.23528200000000
H           62.47729500000000        1.60709600000000        5.59188300000000
H           58.85857400000000        2.28430700000000        3.86538800000000
H           57.12857000000000        1.25726900000000        2.29947700000000
H           57.54129199999999       -0.48966900000000       -2.85220900000000
H           59.48080100000000       -1.67300100000000       -4.32168100000000
H           60.97852300000000       -0.94073100000000       -0.45157000000000
H           61.19405600000000       -4.77919400000000       -3.30692900000000
H           61.43057599999999       -6.51466900000000       -6.41878100000000
H           62.74963600000000       -4.41044100000000       -8.30011500000000
H           63.46061199999999       -1.57599000000000       -7.35695100000000
H           62.99286300000000       -1.33314800000000       -5.15007400000000
H           64.62189600000001       -3.32297100000000       -3.11568700000000
H           66.29447500000001       -2.50275800000000       -1.32221100000000
C           37.69600100000000        0.00840100000000        0.01386000000000
C           36.48706099999999       -0.00505400000000        0.00541300000000
C           35.06553200000000        0.00376600000000       -0.00657000000000
C           33.85386300000000        0.01120400000000        0.00429300000000
C           39.11260499999999        0.00172600000000        0.01439300000000
C           40.33330100000000        0.01120400000000        0.00429300000000
C           53.36307900000000        0.00840100000000        0.01386000000000
C           52.15413999999999       -0.00505400000000        0.00541300000000
C           50.73261100000000        0.00376600000000       -0.00657000000000
C           49.52094100000000        0.01120400000000        0.00429300000000
C           54.77968400000000        0.00172600000000        0.01439300000000
C           56.00037900000000        0.01120400000000        0.00429300000000
C           41.36396000000000       -0.01700200000000       -0.01174400000000
C           42.14839299999999       -1.36367400000000        0.28174100000000
C           41.61385600000000       -2.53312500000000        0.78632600000000
C           42.65127300000000       -3.49862800000000        0.80891800000000
C           43.79165600000000       -2.88617200000000        0.33033500000000
N           43.49241100000000       -1.56907100000000        0.08030800000000
C           45.19306700000000       -3.57818800000000        0.08999400000000
C           45.20037500000000       -5.04184000000000       -0.13757100000000
C           45.52704300000000       -5.92294300000000        0.91069100000000
C           45.53528900000000       -7.30083300000000        0.68579600000000
O           45.86453500000000       -8.16204800000000        1.70150100000000
C           45.21355700000000       -7.79794300000000       -0.57764400000000
O           45.21412100000000       -9.14456100000000       -0.83199200000000
C           44.88808000000000       -6.91951100000000       -1.61823800000000
O           44.58618899999999       -7.45529000000000       -2.84979200000000
C           44.87733700000000       -5.54438500000000       -1.40875300000000
C           46.32879899999999       -2.83529500000000        0.02069000000000
C           47.62012400000000       -3.43030200000000       -0.25711200000000
C           48.52706599999999       -2.46197100000000       -0.29686400000000
N           46.53667300000000       -1.48978400000000        0.15218800000000
C           47.86299100000000       -1.20028200000000       -0.03441400000000
C           48.53234100000000       -0.01700200000000       -0.01174400000000
C           47.74974100000000        1.33009400000000        0.27990800000000
C           48.28346699999999        2.49389000000000        0.80099800000000
C           47.24867700000000        3.46259600000000        0.81724600000000
C           46.10946800000000        2.85666100000000        0.32107000000000
N           46.41034600000000        1.54376000000000        0.05230200000000
C           44.70312800000000        3.54632900000000        0.09416500000000
C           44.66096899999999        5.02577800000000        0.04004300000000
C           44.93741000000000        5.71872400000000       -1.14995100000000
C           44.87594200000000        7.10674700000000       -1.15683900000000
O           45.13370800000000        7.79650800000000       -2.31077900000000
C           44.54769500000000        7.80293700000000        0.00520200000000
O           44.48432699999999        9.17244800000000       -0.02484900000000
C           44.28242899999999        7.11963600000000        1.18742500000000
O           43.96394899999999        7.85062400000000        2.30274100000000
C           44.33774000000000        5.73280700000000        1.21434500000000
C           43.57087600000000        2.79862800000000       -0.00105500000000
C           42.27311100000000        3.39680400000000       -0.25039500000000
C           41.36590500000000        2.42775500000000       -0.28759900000000
C           42.03602200000000        1.16388900000000       -0.05359500000000
N           43.36842600000000        1.44951700000000        0.09580700000000
H           40.58555200000000       -2.68644800000000        1.08093700000000
H           42.56848799999999       -4.53079600000000        1.12038200000000
H           44.16377100000000       -0.85540400000000       -0.19120300000000
H           45.77618300000000       -5.50107200000000        1.88374400000000
H           46.12003400000000       -7.62195500000000        2.47244200000000
H           44.96876499999999       -9.19708500000000       -1.77834600000000
H           44.40627400000000       -6.69796200000000       -3.43989200000000
H           44.63097900000000       -4.84097300000000       -2.20248900000000
H           47.82276700000000       -4.47428100000000       -0.41777900000000
H           49.57304100000000       -2.61106400000000       -0.49409600000000
H           49.30836200000000        2.64151400000000        1.11334700000000
H           47.33314200000000        4.49023600000000        1.13933200000000
H           45.73900400000000        0.83380700000000       -0.23182000000000
H           45.18794900000000        5.16611700000000       -2.05311900000000
H           44.98996899999999        8.73062400000000       -2.06032400000000
H           44.22791300000000        9.39962100000000        0.89433900000000
H           43.81868899999999        7.20306100000000        3.01767400000000
H           44.12956500000000        5.16480100000000        2.11798700000000
H           42.06935700000000        4.44262800000000       -0.39937000000000
H           40.31559899999999        2.57745500000000       -0.45957000000000
200
 energy: -383.737616781453 gnorm: 0.480622634598 xtb: 6.5.1 (b24c23e)
C           24.63954856267337       -0.62890789061933        0.54911937394137
C           25.31434498510759       -1.25308133737089       -0.66529566947067
C           24.67089538922833       -1.79094903216708       -1.77065275861065
C           25.66253427846508       -2.26369562529189       -2.65532063854600
C           26.90506003200297       -2.02282436274897       -2.07958840467190
N           26.66886580326483       -1.37015783196462       -0.88672571061205
C           28.29467751539239       -2.42600733091149       -2.63784476378999
C           28.36541923882674       -3.30998297298519       -3.84282061209819
C           28.93555493803608       -2.80182330233556       -5.02549338149709
C           28.99627807827407       -3.58887292884785       -6.16836162660200
O           29.55202024374430       -3.13204894578791       -7.33149337901586
C           28.47524460516696       -4.87573762693966       -6.15312341112021
O           28.52420289956165       -5.64703699528650       -7.28411703526307
C           27.88798865453165       -5.38214474692770       -4.99420516845926
O           27.35562339401495       -6.63693195057771       -5.01359615222376
C           27.83563589087701       -4.61011704591094       -3.83700857755024
C           29.44749537596444       -1.93813785591513       -2.05840677185591
C           30.76595903715484       -2.40187245556826       -2.44553201808632
C           31.66819010229847       -1.74977886900744       -1.71327734003509
N           29.62336325215932       -1.01008232985214       -1.06598157490697
C           30.96929299877310       -0.83058713464496       -0.83601053882745
C           31.62936979211576        0.02167631175275        0.01637703972106
C           30.84428777336371        1.04177131910679        0.88969080531661
C           31.32483278691435        2.24909890060127        1.38904083278340
C           30.31219522819192        2.84238416292498        2.17273257524765
C           29.20438984478128        2.00320156567817        2.13642754023402
N           29.53255195349497        0.93707655557490        1.31876484649490
C           27.85071918314906        2.21065053112203        2.85786187746436
C           27.75799684096423        3.24418407655067        3.92648175354072
C           28.22778892589494        2.99207650469687        5.22333589698816
C           28.14120701759781        3.98783438748089        6.18707287076336
O           28.58923704464291        3.76714346281346        7.45493422883387
C           27.59593534368998        5.22705389497290        5.86333183459751
O           27.51566143279667        6.19969331189803        6.82533477153317
C           27.13953806593484        5.48473408254724        4.57463157763649
O           26.62422080840735        6.72655091467593        4.31703543164426
C           27.21462558814421        4.49878402005492        3.60205821290663
C           26.73825511259981        1.50316791295867        2.47135755804080
C           25.45257102431103        1.61020472572984        3.14449947814770
C           24.58753119266318        0.81596452456540        2.51308885217299
C           25.29318652659149        0.19651324358040        1.41281394507233
N           26.58822160926979        0.61225259938951        1.44779303338663
H           23.58140026182042       -0.82871396101985        0.72859184883459
H           23.60053388083402       -1.82560117998102       -1.91007264129839
H           25.50381838273171       -2.74138853476242       -3.61044909490895
H           27.39427363883101       -0.99992233636346       -0.28226591809734
H           29.31755575472873       -1.78310764014285       -5.01902739010613
H           29.86690029288439       -2.23571539805887       -7.14322536059949
H           29.00882059107425       -5.08802772695347       -7.91492024061396
H           27.59278838127764       -6.97642975672643       -5.89303977624455
H           27.37477771292962       -5.00495879191252       -2.93608648846050
H           30.99165119889267       -3.16621021561156       -3.16341887812673
H           32.72652058189945       -1.90192524481907       -1.77491453685857
H           32.30938492684949        2.65124176916369        1.19911789797372
H           30.37128900315951        3.77889687025986        2.70914377672256
H           28.87411895456212        0.21465732399499        1.03760891369375
H           28.65685922623761        2.02479810565019        5.46578883817593
H           28.42164294978973        4.60455845107912        7.92314666064978
H           27.10260787843708        6.95175861725709        6.35484027917513
H           26.39030096365518        6.74568870364008        3.37345213802307
H           26.85885326650615        4.66740099156225        2.58837845875544
H           25.23073017084737        2.20348098669004        4.01005914825912
H           23.55464776610561        0.66728520266727        2.76658062609303
C           65.21184296661816       -0.67771659861281        0.48617642136652
C           64.53704833172650        0.34306980257303        1.39303256008513
C           65.18049702062913        1.27971777948909        2.18915020921090
C           64.18885729223575        2.01884004238090        2.86725595155112
C           62.94633408270451        1.52120238933795        2.49063472891414
N           63.18252602507839        0.52838195628780        1.56155043268797
C           61.55671083342886        1.96150097780639        3.02010583529718
C           61.48597236383579        2.90847224770591        4.17623484007067
C           60.91583853234204        4.18041674685038        3.97851071390895
C           60.85511419265799        5.09136013219205        5.02530216606422
O           60.29937070861431        6.33160325734180        4.87243280590427
C           61.37614813793402        4.75622640454383        6.26785210121719
O           61.32718774725895        5.65959971949057        7.29644706670676
C           61.96340181106844        3.50772850956162        6.46979377334529
O           62.49576989866375        3.21411976516040        7.68991580356167
C           62.01575437791413        2.57916621347148        5.43398785670794
C           60.40389788750257        1.52176423974883        2.40334799773783
C           59.08543348251794        1.78125921732651        2.94885482626179
C           58.18320341366507        1.23440052004534        2.13499702123686
N           60.22801844836317        0.79163611121965        1.25742653627827
C           58.88209045655070        0.61362216734448        1.02633550648188
C           58.22190024873603        0.00017217089941       -0.01123052699728
C           59.00707660381762       -0.59166678084453       -1.21668231416910
C           58.52655558029105       -0.77469834391799       -2.51032269500975
C           59.53919434251224       -1.38601080414005       -3.28002952065275
C           60.64700096520892       -1.55976821320714       -2.45822963580870
N           60.31883378801702       -1.03326506886528       -1.22210188230280
C           62.00066988039733       -2.20684317706133       -2.83875674243322
C           62.09339476079180       -2.98451542203988       -4.10578590390105
C           61.62360189184979       -4.30330097757218       -4.18447389019565
C           61.71018057632176       -4.98880214441451       -5.38881117555276
O           61.26216497936354       -6.27166750528608       -5.49070454287973
C           62.25545562534489       -4.36673667078401       -6.50841983811146
O           62.33573605409522       -5.05630004656760       -7.68991677305827
C           62.71185232816923       -3.05445905999527       -6.43715389618880
O           63.22717574618927       -2.49581631679850       -7.57573563511998
C           62.63676862009058       -2.35796347762576       -5.24011644608544
C           63.11313764156492       -2.00864156373103       -2.05732279369014
C           64.39882090517514       -2.63394136559213       -2.32857230063240
C           65.26386099329915       -2.22014139222173       -1.40214600715543
C           64.55820681380372       -1.30872606652320       -0.52827950931604
N           63.26317064280546       -1.23910152957901       -0.93963616044871
H           66.26999166485145       -0.90128175424274        0.63501113523434
H           66.25085844446751        1.40612199681424        2.25742170306615
H           64.34757357934987        2.82497149873708        3.56769405397354
H           62.45711807576394        0.03512548636964        1.05248694633313
H           60.53383644640024        4.42776930617102        2.99025995087848
H           59.98449184893567        6.37240662122662        3.95744708281917
H           60.84257202888177        6.40970493349723        6.91206945870132
H           62.25860410471505        3.98135640398024        8.23765636800830
H           62.47661447678161        1.60831175811891        5.59210915651130
H           58.85974033257798        2.28625420171764        3.86784965758050
H           57.12486936297685        1.25621545939979        2.29769186383650
H           57.54200723675739       -0.49063766570588       -2.85251921750398
H           59.48010251195257       -1.67238284901094       -4.32059746619791
H           60.97727184166629       -0.94081617087493       -0.45243984954364
H           61.19453318635210       -4.77892942183030       -3.30801121283963
H           61.42974328859754       -6.51667125974940       -6.41832135813648
H           62.74878030965137       -4.41339239907195       -8.30118309895775
H           63.46108846807744       -1.57717593301488       -7.35936567895638
H           62.99253890814725       -1.33422187493933       -5.15106306207655
H           64.62066125974782       -3.32454882205802       -3.11865583121093
H           66.29674413050586       -2.50266639548363       -1.32125524588395
C           37.69518879678004        0.00870570525285        0.01364072877726
C           36.47118634030418       -0.00464984124519        0.00531575216786
C           35.06160844728040        0.00370911155785       -0.00613330295260
C           33.83163376544406        0.01191186050693        0.00418646548524
C           39.05176221336049       -0.00071519899189        0.01454948330686
C           40.22996920204688        0.00197381076986        0.00465186444123
C           53.38030450364082        0.00809127315070        0.01389103441450
C           52.15729276664200       -0.00479366337286        0.00549201794488
C           50.80831122357233        0.00496466962481       -0.00694122028967
C           49.64647872336578        0.02817184244901        0.00347246931261
C           54.78663335803312        0.00202281467902        0.01410258763846
C           56.01984476104765        0.01119429591591        0.00363683347659
C           41.48084352449309       -0.03424675645812       -0.00649462692789
C           42.16017625566373       -1.36128811264815        0.28278899502742
C           41.61579758097437       -2.53528233633613        0.78419575928032
C           42.64927192020770       -3.49797208435432        0.80710926337338
C           43.80441674094894       -2.89156841344189        0.32888957930388
N           43.49611557557442       -1.57240215457086        0.07867949959048
C           45.17567849181653       -3.56773656563932        0.09253144831987
C           45.19774961983783       -5.04003424589155       -0.13552457248819
C           45.52649627330864       -5.92058398824393        0.90785554146000
C           45.53577171232948       -7.29964430374690        0.68699675016791
O           45.86434155633621       -8.15841482792180        1.70034320922833
C           45.21350260949786       -7.79920675641819       -0.57801713169700
O           45.21340909265788       -9.14152677907950       -0.83421727730308
C           44.88844703556367       -6.91759188568124       -1.61678968919804
O           44.58662314703371       -7.45223070285492       -2.84806382673942
C           44.87756333849418       -5.54278959476195       -1.40552362850665
C           46.32980277474884       -2.83619978307649        0.02023615311747
C           47.62037258585733       -3.43656959515396       -0.25790227878457
C           48.52914887966023       -2.46145984652939       -0.29717960172458
N           46.52463931720519       -1.48952689951307        0.15249039271792
C           47.82206451576586       -1.22111137659912       -0.03663392536405
C           48.38854576170729       -0.00505023389799       -0.00608308354264
C           47.73350763677625        1.32886448295287        0.28147785522563
C           48.28096000693462        2.49578183303165        0.79855139896761
C           47.25022909957925        3.46167687975942        0.81558202935665
C           46.09643735196207        2.86265434586029        0.31968339157775
N           46.40545954201468        1.54785268488045        0.05118202210473
C           44.72045237244721        3.53575615488940        0.09727674703106
C           44.66398721405590        5.02374256280932        0.04095295612775
C           44.93736699643166        5.71610095114939       -1.14751590836460
C           44.87627780443236        7.10545070324057       -1.15839397572348
O           45.13229727937532        7.79737309899172       -2.30664049105694
C           44.54788590641377        7.80251199252089        0.00470934389953
O           44.48364125129923        9.17151970147768       -0.02226697305842
C           44.28253322923949        7.11737032371828        1.18670062275174
O           43.96416677958923        7.84803552835837        2.30270125306540
C           44.33824051303930        5.72985040866741        1.21167464595174
C           43.56980039599853        2.79907926101627       -0.00202393793263
C           42.27303868951370        3.40282778271234       -0.25094495938030
C           41.36394937686307        2.42761627679541       -0.28785648371639
C           42.07158751143993        1.18189937982610       -0.05625177613103
N           43.37896021989832        1.44842892006295        0.09610141649203
H           40.58671653479819       -2.68625795498190        1.08042653815373
H           42.56779485203528       -4.52958337472957        1.12018682776374