358
 energy: -586.312051257679 gnorm: 5.094732759489 xtb: 6.5.1 (b24c23e)
C           67.57156200000000       -0.00631800000000       -0.05871500000000
C           68.30005500000000       -1.26449600000000        0.50588900000000
C           67.69144600000000       -2.42901500000000        0.91560300000000
C           68.71323399999999       -3.28027800000000        1.41045000000000
C           69.91130300000000       -2.60288300000000        1.29259800000000
N           69.65269600000001       -1.39575300000000        0.69291000000000
C           71.33379200000000       -3.10499600000000        1.78213000000000
C           72.46362400000000       -2.42977000000000        1.43728800000000
C           73.76826199999998       -2.82600900000000        1.92647900000000
C           74.67062699999998       -1.97575000000000        1.45117600000000
N           72.65989999999998       -1.32350600000000        0.65282000000000
C           73.99145200000000       -0.99871500000000        0.62282900000000
C           74.65909700000000        0.00379100000000       -0.00826500000000
C           73.88144699999999        1.03666500000000       -0.92896000000000
C           74.42183799999999        1.77205200000000       -1.96592500000000
C           73.39704600000000        2.60568600000000       -2.47877500000000
C           72.25680100000000        2.34833000000000       -1.74810000000000
C           70.84750099999998        3.05404600000000       -1.93151300000000
C           70.82025500000000        4.39236200000000       -2.56439000000000
C           70.44757900000000        4.53754000000000       -3.90668800000000
C           70.43663500000000        5.79955000000000       -4.50362600000000
C           70.80139300000000        6.92399000000000       -3.76209300000000
C           71.17677600000000        6.78730600000000       -2.42489400000000
C           71.18705799999999        5.52487400000000       -1.82842000000000
C           69.72187400000000        2.43275300000000       -1.49229300000000
C           68.39999399999999        3.02150700000000       -1.61537200000000
C           67.51417800000000        2.16938900000000       -1.10794800000000
C           68.23580200000001        1.01461800000000       -0.63194500000000
N           69.55689300000000        1.22243100000000       -0.87799500000000
N           72.54746499999999        1.35436200000000       -0.84346800000000
C           71.37125700000000       -4.29682800000000        2.66298000000000
C           71.11890099999999       -4.16835900000000        4.03391700000000
C           71.14346500000001       -5.29127300000000        4.86315300000000
C           71.41952200000000       -6.54926200000000        4.32549100000000
C           71.67128400000000       -6.68557900000000        2.95958300000000
C           71.64630000000000       -5.56252200000000        2.13062900000000
H           66.49372700000001        0.04204900000000        0.03941200000000
H           66.63308200000000       -2.63576400000000        0.87853500000000
H           68.58604699999999       -4.26705300000000        1.82960300000000
H           70.35390999999998       -0.70636200000000        0.43313200000000
H           73.97933800000000       -3.65746800000000        2.57508200000000
H           75.72416200000001       -2.02605800000000        1.65653800000000
H           75.44375300000000        1.72612100000000       -2.31015600000000
H           73.48155800000001        3.31739400000000       -3.28617300000000
H           70.16334600000000        3.65369300000000       -4.47387200000000
H           70.14234999999998        5.89766400000000       -5.54352100000000
H           70.79260100000000        7.90555300000000       -4.22504900000000
H           71.46180899999999        7.65691300000000       -1.84146000000000
H           71.47808400000000        5.40757100000000       -0.78677700000000
H           68.17214600000000        3.98208700000000       -2.04109900000000
H           66.45067500000000        2.31371300000000       -1.05015200000000
H           71.86416800000001        0.89296100000000       -0.24852200000000
H           70.90658000000001       -3.18257600000000        4.44212500000000
H           70.94821899999999       -5.17698300000000        5.92455800000000
H           71.44018100000000       -7.42182900000000        4.97056600000000
H           71.88908399999998       -7.66009800000000        2.53462500000000
H           71.84424600000000       -5.65539200000000        1.06495600000000
C          142.74047100000001       -0.03751500000000       -0.03894400000000
C          142.01197900000000        1.01016800000000       -0.93568700000000
C          142.62058800000000        1.87780100000000       -1.81385700000000
C          141.59879900000001        2.68869200000000       -2.37240600000000
C          140.40073100000001        2.29294100000000       -1.81014800000000
N          140.65933699999999        1.23532400000000       -0.97454500000000
C          138.97824199999999        2.94997600000000       -2.05523100000000
C          137.84840999999997        2.34988300000000       -1.59183500000000
C          136.54377199999996        2.96141100000000       -1.74132000000000
C          135.64140599999996        2.16862300000000       -1.17533500000000
N          137.65213399999996        1.16822800000000       -0.92632600000000
C          136.32058100000000        1.00245500000000       -0.64542000000000
C          135.65293600000001        0.00379100000000       -0.00826500000000
C          136.43058700000000       -1.26972400000000        0.53272300000000
C          135.89019599999997       -2.52138600000000        0.75505700000000
C          136.91498799999999       -3.34103200000000        1.28997900000000
C          138.05523299999999       -2.57041800000000        1.36917400000000
C          139.46453299999996       -3.03754600000000        1.92905600000000
C          139.49177800000001       -4.18117800000000        2.86912300000000
C          139.86445399999999       -5.45699600000000        2.42738500000000
C          139.87539899999996       -6.53555400000000        3.31379200000000
C          139.51064099999999       -6.34500500000000        4.64718100000000
C          139.13525700000000       -5.07742500000000        5.09442200000000
C          139.12497600000000       -3.99910500000000        4.20743700000000
C          140.59016000000000       -2.37513100000000        1.55472100000000
C          141.91203999999999       -2.73776900000000        2.03459000000000
C          142.79785499999997       -1.91513900000000        1.48063600000000
C          142.07623200000000       -0.99172100000000        0.63958000000000
N          140.75514000000001       -1.30294000000000        0.72246800000000
N          137.76456899999999       -1.32803700000000        0.85651200000000
C          138.94077599999997        4.25531700000000       -2.75697300000000
C          139.19313299999999        5.44021300000000       -2.05555100000000
C          139.16856799999996        6.66946000000000       -2.71700500000000
C          138.89251200000001        6.72028200000000       -4.08413100000000
C          138.64075000000000        5.54328400000000       -4.79050300000000
C          138.66573299999999        4.31423200000000       -4.12880000000000
H          143.81830599999998        0.03057300000000        0.04668500000000
H          143.67895199999998        1.93254000000000       -2.01664500000000
H          141.72598699999998        3.48898300000000       -3.08581300000000
H          139.95812400000000        0.70610800000000       -0.46202600000000
H          136.33269600000000        3.90289000000000       -2.21632300000000
H          134.58787200000000        2.37580800000000       -1.13316100000000
H          134.86828100000000       -2.81306700000000        0.56657100000000
H          136.83047600000000       -4.37498800000000        1.58890200000000
H          140.14868799999999       -5.59259000000000        1.38599400000000
H          140.16968399999996       -7.51781700000000        2.95858900000000
H          139.51943299999999       -7.18268200000000        5.33717500000000
H          138.85022499999999       -4.92105700000000        6.12987500000000
H          138.83394999999999       -3.00707100000000        4.54603300000000
H          142.13988699999999       -3.53282100000000        2.72150200000000
H          143.86135899999999       -1.92448500000000        1.63582100000000
H          138.44786500000001       -0.59305700000000        0.69324800000000
H          139.40545299999999        5.38852900000000       -0.98984400000000
H          139.36381499999999        7.58049900000000       -2.16054300000000
H          138.87185299999999        7.67612000000000       -4.59781400000000
H          138.42294899999999        5.57501300000000       -5.85317400000000
H          138.46778699999999        3.39018800000000       -4.66771400000000
C           78.01691400000000        0.01652200000000       -0.00574000000000
C           76.76464400000000       -0.00265900000000       -0.01008800000000
C           79.33058299999999        0.01575600000000       -0.00380800000000
C           80.83371600000000       -0.00265900000000       -0.01008800000000
C           91.21684999999998        0.01652200000000       -0.00574000000000
C           89.96457999999998       -0.00265900000000       -0.01008800000000
C           92.53051799999999        0.01575600000000       -0.00380800000000
C           94.03365200000000       -0.00265900000000       -0.01008800000000
C          104.41678600000000        0.01652200000000       -0.00574000000000
C          103.16451600000001       -0.00265900000000       -0.01008800000000
C          105.73045399999999        0.01575600000000       -0.00380800000000
C          107.23358800000000       -0.00265900000000       -0.01008800000000
C          117.61672200000000        0.01652200000000       -0.00574000000000
C          116.36445100000000       -0.00265900000000       -0.01008800000000
C          118.93039000000000        0.01575600000000       -0.00380800000000
C          120.43352399999999       -0.00265900000000       -0.01008800000000
C          130.81665799999999        0.01652200000000       -0.00574000000000
C          129.56438700000001       -0.00265900000000       -0.01008800000000
C          132.13032600000000        0.01575600000000       -0.00380800000000
C          133.63345899999999       -0.00265900000000       -0.01008800000000
C           81.77915900000001       -0.00169200000000        0.00510700000000
C           82.57281100000000        1.10813100000000        0.81106700000000
C           82.06608500000000        1.93287300000000        1.79496000000000
C           83.10298400000001        2.82157200000000        2.17820000000000
C           84.21242500000000        2.50677000000000        1.42195600000000
N           83.90147399999999        1.41599600000000        0.64915600000000
C           85.60205100000000        3.26688300000000        1.43060000000000
C           86.73685900000000        2.61304100000000        1.06694700000000
C           88.02379000000001        3.27435700000000        1.00100900000000
C           88.93175199999999        2.38607000000000        0.61133000000000
N           86.94489000000000        1.31438700000000        0.69201900000000
C           88.26939900000001        1.11313500000000        0.40884200000000
C           88.93319699999999       -0.00169200000000        0.00510700000000
C           88.13956000000000       -1.35761500000000       -0.20177200000000
C           88.64632699999999       -2.63582600000000       -0.08181100000000
C           87.60942499999999       -3.53732300000000       -0.43389000000000
C           86.49994300000000       -2.78184600000000       -0.75037700000000
C           85.11029099999999       -3.32856800000000       -1.27845000000000
C           85.11941700000000       -4.60678800000000       -2.02827900000000
C           85.59747900000001       -4.64704200000000       -3.34316300000000
C           85.62248300000000       -5.85203400000000       -4.04818300000000
C           85.17169500000000       -7.02495600000000       -3.44115600000000
C           84.69675300000000       -6.99445200000000       -2.12947300000000
C           84.67269500000000       -5.78940400000000       -1.42487700000000
C           83.97549300000000       -2.60786900000000       -1.07753700000000
C           82.68855499999999       -3.03190500000000       -1.58927500000000
C           81.78059699999999       -2.12617200000000       -1.24207300000000
C           82.44295700000001       -1.07842700000000       -0.49135500000000
N           83.76746900000001       -1.42060800000000       -0.43141100000000
N           86.81087800000000       -1.46279800000000       -0.53326100000000
C           85.59280500000000        4.70315200000000        1.79560300000000
C           85.11454200000000        5.65586700000000        0.88858300000000
C           85.08922199999999        7.00853700000000        1.23402100000000
C           85.53989899999999        7.41631000000000        2.49022600000000
C           86.01507199999999        6.47278900000000        3.40181100000000
C           86.03944799999999        5.12037400000000        3.05602900000000
H           81.05765300000000        1.91468100000000        2.17934200000000
H           83.04237900000000        3.61521200000000        2.90767000000000
H           84.56257800000000        0.89338500000000        0.08182300000000
H           88.21842800000000        4.30943500000000        1.21811700000000
H           89.97619399999999        2.59686300000000        0.47161700000000
H           89.65478700000000       -2.89307200000000        0.20428100000000
H           87.67005600000000       -4.61456900000000       -0.47297600000000
H           85.94779300000000       -3.72781800000000       -3.80767800000000
H           85.99422599999998       -5.86764700000000       -5.06770800000000
H           85.19047700000000       -7.96113000000000       -3.98990400000000
H           84.34377100000000       -7.90214800000000       -1.65077900000000
H           84.30319399999999       -5.75338900000000       -0.40221800000000
H           82.49391199999999       -3.92074100000000       -2.16242000000000
H           80.73615500000000       -2.17789600000000       -1.48961300000000
H           86.14975300000000       -0.69230600000000       -0.56935700000000
H           84.76427500000000        5.32840700000000       -0.08791900000000
H           84.71729400000000        7.73613800000000        0.51979000000000
H           85.52083600000000        8.46792100000000        2.75790300000000
H           86.36794999999999        6.78208900000000        4.38031500000000
H           86.40908399999999        4.37605300000000        3.75817800000000
C           94.97909500000000       -0.00169200000000        0.00510700000000
C           95.77274699999998        1.10813100000000        0.81106700000000
C           95.26602099999998        1.93287300000000        1.79496000000000
C           96.30292000000000        2.82157200000000        2.17820000000000
C           97.41236099999999        2.50677000000000        1.42195600000000
N           97.10140899999999        1.41599600000000        0.64915600000000
C           98.80198700000000        3.26688300000000        1.43060000000000
C           99.93679500000000        2.61304100000000        1.06694700000000
C          101.22372600000000        3.27435700000000        1.00100900000000
C          102.13168799999998        2.38607000000000        0.61133000000000
N          100.14482599999999        1.31438700000000        0.69201900000000
C          101.46933400000000        1.11313500000000        0.40884200000000
C          102.13313199999999       -0.00169200000000        0.00510700000000
C          101.33949600000000       -1.35761500000000       -0.20177200000000
C          101.84626299999999       -2.63582600000000       -0.08181100000000
C          100.80936100000000       -3.53732300000000       -0.43389000000000
C           99.69987900000000       -2.78184600000000       -0.75037700000000
C           98.31022599999999       -3.32856800000000       -1.27845000000000
C           98.31935199999999       -4.60678800000000       -2.02827900000000
C           98.79741400000000       -4.64704200000000       -3.34316300000000
C           98.82241900000000       -5.85203400000000       -4.04818300000000
C           98.37163099999999       -7.02495600000000       -3.44115600000000
C           97.89668799999998       -6.99445200000000       -2.12947300000000
C           97.87263100000000       -5.78940400000000       -1.42487700000000
C           97.17542800000000       -2.60786900000000       -1.07753700000000
C           95.88849100000000       -3.03190500000000       -1.58927500000000
C           94.98053299999998       -2.12617200000000       -1.24207300000000
C           95.64289299999999       -1.07842700000000       -0.49135500000000
N           96.96740500000000       -1.42060800000000       -0.43141100000000
N          100.01081400000000       -1.46279800000000       -0.53326100000000
C           98.79274099999999        4.70315200000000        1.79560300000000
C           98.31447799999998        5.65586700000000        0.88858300000000
C           98.28915799999999        7.00853700000000        1.23402100000000
C           98.73983499999999        7.41631000000000        2.49022600000000
C           99.21500800000000        6.47278900000000        3.40181100000000
C           99.23938400000000        5.12037400000000        3.05602900000000
H           94.25758900000000        1.91468100000000        2.17934200000000
H           96.24231500000000        3.61521200000000        2.90767000000000
H           97.76251400000000        0.89338500000000        0.08182300000000
H          101.41836299999999        4.30943500000000        1.21811700000000
H          103.17613000000000        2.59686300000000        0.47161700000000
H          102.85472300000001       -2.89307200000000        0.20428100000000
H          100.86999199999998       -4.61456900000000       -0.47297600000000
H           99.14772900000000       -3.72781800000000       -3.80767800000000
H           99.19416200000001       -5.86764700000000       -5.06770800000000
H           98.39041200000000       -7.96113000000000       -3.98990400000000
H           97.54370699999998       -7.90214800000000       -1.65077900000000
H           97.50313000000000       -5.75338900000000       -0.40221800000000
H           95.69384800000000       -3.92074100000000       -2.16242000000000
H           93.93608999999998       -2.17789600000000       -1.48961300000000
H           99.34968900000000       -0.69230600000000       -0.56935700000000
H           97.96420999999998        5.32840700000000       -0.08791900000000
H           97.91723000000000        7.73613800000000        0.51979000000000
H           98.72077200000000        8.46792100000000        2.75790300000000
H           99.56788600000000        6.78208900000000        4.38031500000000
H           99.60902000000000        4.37605300000000        3.75817800000000
C          108.17903099999999       -0.00169200000000        0.00510700000000
C          108.97268299999999        1.10813100000000        0.81106700000000
C          108.46595600000001        1.93287300000000        1.79496000000000
C          109.50285499999998        2.82157200000000        2.17820000000000
C          110.61229699999998        2.50677000000000        1.42195600000000
N          110.30134500000000        1.41599600000000        0.64915600000000
C          112.00192299999999        3.26688300000000        1.43060000000000
C          113.13673099999998        2.61304100000000        1.06694700000000
C          114.42366199999999        3.27435700000000        1.00100900000000
C          115.33162400000001        2.38607000000000        0.61133000000000
N          113.34476200000000        1.31438700000000        0.69201900000000
C          114.66926999999998        1.11313500000000        0.40884200000000
C          115.33306800000000       -0.00169200000000        0.00510700000000
C          114.53943199999999       -1.35761500000000       -0.20177200000000
C          115.04619900000000       -2.63582600000000       -0.08181100000000
C          114.00929700000000       -3.53732300000000       -0.43389000000000
C          112.89981400000001       -2.78184600000000       -0.75037700000000
C          111.51016199999999       -3.32856800000000       -1.27845000000000
C          111.51928800000000       -4.60678800000000       -2.02827900000000
C          111.99735000000000       -4.64704200000000       -3.34316300000000
C          112.02235500000000       -5.85203400000000       -4.04818300000000
C          111.57156600000000       -7.02495600000000       -3.44115600000000
C          111.09662400000001       -6.99445200000000       -2.12947300000000
C          111.07256699999999       -5.78940400000000       -1.42487700000000
C          110.37536400000000       -2.60786900000000       -1.07753700000000
C          109.08842700000000       -3.03190500000000       -1.58927500000000
C          108.18046900000000       -2.12617200000000       -1.24207300000000
C          108.84282899999998       -1.07842700000000       -0.49135500000000
N          110.16734099999999       -1.42060800000000       -0.43141100000000
N          113.21075000000000       -1.46279800000000       -0.53326100000000
C          111.99267699999999        4.70315200000000        1.79560300000000
C          111.51441400000000        5.65586700000000        0.88858300000000
C          111.48909399999999        7.00853700000000        1.23402100000000
C          111.93977099999999        7.41631000000000        2.49022600000000
C          112.41494299999999        6.47278900000000        3.40181100000000
C          112.43931999999998        5.12037400000000        3.05602900000000
H          107.45752500000000        1.91468100000000        2.17934200000000
H          109.44224999999999        3.61521200000000        2.90767000000000
H          110.96244899999999        0.89338500000000        0.08182300000000
H          114.61829899999998        4.30943500000000        1.21811700000000
H          116.37606599999999        2.59686300000000        0.47161700000000
H          116.05465900000000       -2.89307200000000        0.20428100000000
H          114.06992800000000       -4.61456900000000       -0.47297600000000
H          112.34766500000001       -3.72781800000000       -3.80767800000000
H          112.39409700000000       -5.86764700000000       -5.06770800000000
H          111.59034800000001       -7.96113000000000       -3.98990400000000
H          110.74364299999999       -7.90214800000000       -1.65077900000000
H          110.70306500000000       -5.75338900000000       -0.40221800000000
H          108.89378399999998       -3.92074100000000       -2.16242000000000
H          107.13602599999999       -2.17789600000000       -1.48961300000000
H          112.54962399999999       -0.69230600000000       -0.56935700000000
H          111.16414600000000        5.32840700000000       -0.08791900000000
H          111.11716599999998        7.73613800000000        0.51979000000000
H          111.92070699999999        8.46792100000000        2.75790300000000
H          112.76782199999998        6.78208900000000        4.38031500000000
H          112.80895500000000        4.37605300000000        3.75817800000000
C          121.37896699999999       -0.00169200000000        0.00510700000000
C          122.17261800000000        1.10813100000000        0.81106700000000
C          121.66589200000000        1.93287300000000        1.79496000000000
C          122.70279099999999        2.82157200000000        2.17820000000000
C          123.81223300000001        2.50677000000000        1.42195600000000
N          123.50128100000001        1.41599600000000        0.64915600000000
C          125.20185899999998        3.26688300000000        1.43060000000000
C          126.33666700000001        2.61304100000000        1.06694700000000
C          127.62359799999999        3.27435700000000        1.00100900000000
C          128.53156000000001        2.38607000000000        0.61133000000000
N          126.54469799999998        1.31438700000000        0.69201900000000
C          127.86920599999999        1.11313500000000        0.40884200000000
C          128.53300400000001       -0.00169200000000        0.00510700000000
C          127.73936799999998       -1.35761500000000       -0.20177200000000
C          128.24613400000001       -2.63582600000000       -0.08181100000000
C          127.20923300000000       -3.53732300000000       -0.43389000000000
C          126.09974999999999       -2.78184600000000       -0.75037700000000
C          124.71009800000000       -3.32856800000000       -1.27845000000000
C          124.71922400000000       -4.60678800000000       -2.02827900000000
C          125.19728599999999       -4.64704200000000       -3.34316300000000
C          125.22229099999998       -5.85203400000000       -4.04818300000000
C          124.77150199999998       -7.02495600000000       -3.44115600000000
C          124.29656000000000       -6.99445200000000       -2.12947300000000
C          124.27250299999999       -5.78940400000000       -1.42487700000000
C          123.57529999999998       -2.60786900000000       -1.07753700000000
C          122.28836299999999       -3.03190500000000       -1.58927500000000
C          121.38040400000000       -2.12617200000000       -1.24207300000000
C          122.04276500000000       -1.07842700000000       -0.49135500000000
N          123.36727699999999       -1.42060800000000       -0.43141100000000
N          126.41068600000000       -1.46279800000000       -0.53326100000000
C          125.19261299999999        4.70315200000000        1.79560300000000
C          124.71434900000000        5.65586700000000        0.88858300000000
C          124.68903000000000        7.00853700000000        1.23402100000000
C          125.13970700000000        7.41631000000000        2.49022600000000
C          125.61487900000000        6.47278900000000        3.40181100000000
C          125.63925599999999        5.12037400000000        3.05602900000000
H          120.65746099999998        1.91468100000000        2.17934200000000
H          122.64218599999998        3.61521200000000        2.90767000000000
H          124.16238499999999        0.89338500000000        0.08182300000000
H          127.81823500000000        4.30943500000000        1.21811700000000
H          129.57600099999999        2.59686300000000        0.47161700000000
H          129.25459499999999       -2.89307200000000        0.20428100000000
H          127.26986400000000       -4.61456900000000       -0.47297600000000
H          125.54760099999999       -3.72781800000000       -3.80767800000000
H          125.59403300000000       -5.86764700000000       -5.06770800000000
H          124.79028400000000       -7.96113000000000       -3.98990400000000
H          123.94357800000000       -7.90214800000000       -1.65077900000000
H          123.90300100000000       -5.75338900000000       -0.40221800000000
H          122.09371899999998       -3.92074100000000       -2.16242000000000
H          120.33596199999999       -2.17789600000000       -1.48961300000000
H          125.74956000000000       -0.69230600000000       -0.56935700000000
H          124.36408200000000        5.32840700000000       -0.08791900000000
H          124.31710200000001        7.73613800000000        0.51979000000000
H          125.12064299999999        8.46792100000000        2.75790300000000
H          125.96775800000000        6.78208900000000        4.38031500000000
H          126.00889099999999        4.37605300000000        3.75817800000000
358
 energy: -588.416486826604 gnorm: 1.537649526305 xtb: 6.5.1 (b24c23e)
C           67.57649392203972       -0.01503530168395       -0.05472895471229
C           68.29744097025376       -1.25786693256406        0.50276798286217
C           67.69245930548426       -2.43125434692022        0.91711755896224
C           68.71107096426607       -3.27960991357134        1.41044031408008
C           69.91844319696472       -2.60451402205208        1.29433496289070
N           69.65277997334249       -1.39563038280990        0.69316087238637
C           71.32474963377489       -3.10139723465582        1.77879493679643
C           72.46582378490235       -2.42816240060242        1.43660277042383
C           73.76861451759689       -2.82765115367609        1.92773301403911
C           74.67276527830458       -1.97602322524207        1.45156123761218
N           72.65803484783152       -1.32167016485106        0.65179552206484
C           73.99275561730828       -0.99964731065133        0.62381388979382
C           74.66170363419145        0.00940213877104       -0.01453443404072
C           73.88604114917014        1.03131648815497       -0.92452555656316
C           74.42129017631869        1.77398405902861       -1.96679247183812
C           73.39907344506345        2.60520862447070       -2.47827090912286
C           72.25002121464327        2.35076215817277       -1.74831920250089
C           70.85614881488216        3.04947997302859       -1.93004187076295
C           70.82107938103059        4.39189549811530       -2.56467013102397
C           70.44752364244148        4.53795962237435       -3.90644260223276
C           70.43679427306778        5.79921544145601       -4.50270592527832
C           70.80140153470063        6.92336735957527       -3.76178338217949
C           71.17651149263047        6.78638987533094       -2.42518216446741
C           71.18711437871640        5.52497313181293       -1.82892916703512