358
 energy: -589.773156003586 gnorm: 0.000674513903 xtb: 6.5.1 (b24c23e)
C           68.13251906226182       -0.06971320836642        0.04125326267446
C           68.74613953431762       -1.15283939777997        0.65705831173136
C           68.09944713191324       -2.27076109660881        1.25513403292660
C           69.06523879809140       -3.10088245177753        1.75034786445972
C           70.33355592334449       -2.51234804742509        1.47887915388188
N           70.09003104673786       -1.34550185095800        0.81135033773783
C           71.59810967329183       -3.01778090050874        1.80013474958364
C           72.81173282334964       -2.41109665892866        1.46701663595882
C           74.11075177431424       -2.92888100769104        1.85854408726934
C           75.02902971215521       -2.07848339976810        1.35527217144181
N           72.96264268175779       -1.25842881569559        0.75909392488108
C           74.29008371297542       -1.03652703401924        0.66849424962182
C           74.92245882603865        0.04195049238183        0.01954751075038
C           74.28398143162434        1.11720365403656       -0.62464797905437
C           74.92448947905160        2.18809311294736       -1.30331027161333
C           73.95439743369342        3.01734794385551       -1.79370830670111
C           72.68987620120039        2.48206523454671       -1.42151556074414
C           71.42620569084735        2.99898438214012       -1.72480645200053
C           71.38959484659956        4.27237197319426       -2.48508531641323
C           70.79451722518469        4.32334444980314       -3.74653675857984
C           70.76478052371942        5.51171935168248       -4.46042868619224
C           71.32332475615129        6.66345788718650       -3.92287065527306
C           71.91443534075593        6.62173012257224       -2.66746537446955
C           71.95088938323714        5.43385556557032       -1.95262727520118
C           70.21175546872979        2.40302675324730       -1.36922313144461
C           68.90560540421373        2.98066768033828       -1.64600357307237
C           67.99405904539009        2.11861132148151       -1.15237711330347
C           68.74208248354954        1.02058129565740       -0.56566749816396
N           70.07387309148869        1.22978552947973       -0.70736268793848
N           72.94126981960892        1.33102919237782       -0.72249465645984
C           71.63323059320386       -4.29529734027192        2.55428236201782
C           71.05147953362579       -4.38597716160065        3.81962327944199
C           71.08803590495556       -5.57973115373331        4.52456567588660
C           71.70026787325067       -6.69731187376583        3.97379159555976
C           72.27821727146029       -6.61613160930838        2.71410448599890
C           72.24747418843278       -5.42309615461137        2.00796431362096
H           67.04722638059042       -0.08484231684226        0.03994241888468
H           67.03094820229566       -2.41222812999129        1.28986621402375
H           68.91857763523785       -4.04345742897314        2.25236233101154
H           70.81221427588738       -0.71722129562493        0.47532095706636
H           74.27550201294802       -3.81476787259797        2.45015803705828
H           76.10334522858433       -2.12336512365743        1.43598411500358
H           75.99234890702114        2.29692072201001       -1.40405342466717
H           74.09800925768226        3.91565791928571       -2.37167579159893
H           70.36960004264307        3.42165512071515       -4.17332385399527
H           70.30462177386127        5.53818609337130       -5.44198976021089
H           71.29781885933158        7.59222520970060       -4.48146596600726
H           72.34873720260663        7.51939087668632       -2.24138075818295
H           72.40079357070466        5.40695114528207       -0.96629544862850
H           68.73513956430875        3.92417935107909       -2.13912807027373
H           66.91794069823868        2.19446585540706       -1.16162665508990
H           72.22153945058473        0.72300019189657       -0.34579284159466
H           70.58587315339936       -3.51025861611786        4.25822320369376
H           70.63790919182027       -5.63668803191229        5.50951914731251
H           71.72721728262499       -7.63007926869014        4.52560663599901
H           72.75512440268119       -7.48701531129360        2.27820110987303
H           72.68800137439422       -5.36501420379582        1.01890196126998
C          142.17394307837884        0.06549458837063       -0.05099902430525
C          141.55585292133460        1.09396859491461       -0.75044652233845
C          142.19748366734714        2.12300219355175       -1.49545003764953
C          141.22838234455614        2.93676184349018       -2.01106941928235
C          139.96319904119454        2.43754736940455       -1.58837492311383
N          140.21151879972427        1.32020680380093       -0.84244158983589
C          138.69682261680651        2.96031796008892       -1.87293131550352
C          137.48710809039250        2.39730220447035       -1.45852147694300
C          136.18771568680557        2.99619078934398       -1.70630086097384
C          135.27305030062209        2.15878982157196       -1.17508737293472
N          137.34076593454643        1.23341082871958       -0.76820557469124
C          136.01489650662430        1.05560905998527       -0.59565243941572
C          135.38625361226113       -0.04112827662041        0.02639283987108
C          136.02957005640340       -1.12313187195183        0.65446672764023
C          135.39503075576815       -2.23473892046399        1.27003512692547
C          136.36838402591613       -3.03841142336969        1.79571266521584
C          137.62868773837454       -2.43766679523984        1.52248388937042
C          138.89367970104945       -2.91916267437653        1.87552831469788
C          138.93338153720961       -4.16507850758071        2.67948596173710
C          139.56657938441305       -5.30679618958332        2.18614169085806
C          139.59967685230328       -6.47088560623664        2.93897727362829
C          139.00642197344192       -6.50860043853050        4.19358976304243
C          138.37657103145810       -5.37650804201916        4.69248699863666
C          138.33673912108131       -4.21208281316947        3.94043106047196
C          140.10528259531930       -2.31398901318832        1.52579277620881
C          141.41269022361433       -2.79988276326258        1.93913880912253
C          142.32053824204181       -1.96567954382237        1.39348834345273
C          141.56874567278501       -0.96354066936455        0.65868071790678
N          140.23837901540040       -1.19846409183253        0.76966650661522
N          137.37224688978316       -1.28940641750590        0.82099442785589
C          138.65381813738725        4.20578489889255       -2.67794416264365
C          139.26297260433330        5.37259567606782       -2.21397436107724
C          139.22028104853345        6.53449267211442       -2.96997711642226
C          138.57428649474119        6.54483183498215       -4.19871286881527
C          137.96783935965587        5.38763421017754       -4.66836433436271
C          138.00467856799452        4.22512864926012       -3.91342745210158
H          143.25920217436388        0.07588527289333       -0.06487652279551
H          143.26498132903200        2.21384506930776       -1.61831490474349
H          141.37102508347004        3.80303896753833       -2.63652327861321
H          139.49206456693989        0.74265164707941       -0.42054421917588
H          136.02071615941489        3.93670686997027       -2.20581264472347
H          134.19961658682189        2.25911439842300       -1.15638269676440
H          134.32877987270624       -2.39164125772743        1.29886262308381
H          136.22998785354844       -3.97054241185773        2.31882091722557
H          140.01865585193357       -5.28337569234616        1.20084847211827
H          140.08994471011391       -7.35350002288602        2.54333173246814
H          139.03492617513285       -7.41885860348590        4.78173191718484
H          137.91472132889950       -5.39936282870856        5.67336915072175
H          137.85645401081834       -3.32480913459953        4.33801812575793
H          141.58653044820392       -3.65625329031990        2.57067642445006
H          143.39625386115415       -1.99408554477390        1.47032609659669
H          138.08862793017789       -0.65921387809673        0.47567618121299
H          139.75487868078474        5.37135278153208       -1.24751225314441
H          139.69237758771203        7.43659404095784       -2.59671687582534
H          138.54312846994290        7.45346342759894       -4.78921983534965
H          137.46408204732148        5.38967096289647       -5.62863742312044
H          137.54181254297580        3.31880863029728       -4.28766619485377
C           77.55245615763772        0.06913163870694       -0.00781618171946
C           76.33112477588045        0.05801208111733        0.00688885557582
C           78.90379224778782        0.07694945900030       -0.02099285533338
C           80.12532666142339        0.07705320642982       -0.03551372700798
C           91.01946650540182        0.01348178934868       -0.00963405977492
C           89.79672397568262        0.02750587553456       -0.01354428648098
C           92.36777347723203        0.00602901961990       -0.00444259882412
C           93.59063467210022       -0.00114418207512       -0.00462585513265
C          104.48132713026122        0.00148373414535        0.00676628790810
C          103.25843429128474        0.00690123890919        0.00501910864542
C          105.82945512596099       -0.00160986314972        0.00524757101927
C          107.05234967006031       -0.00543969302224       -0.00065803041470
C          117.94359829393176       -0.00578098668185       -0.00917555588335
C          116.72076670355003        0.00479970428824       -0.00289606366040
C          119.29186886052032       -0.01230290364093       -0.01307313394655
C          120.51463147150459       -0.02300889343321       -0.02140520145023
C          131.40577614702471       -0.09339743109381        0.00756475694839
C          130.18411564573870       -0.08815943297148       -0.00493309111502
C          132.75672348888330       -0.08542882269337        0.01804457850454
C          133.97822627530968       -0.06709854132951        0.02661516434587
C           81.53329617325862        0.07567043309404       -0.04335084065751
C           82.16210001329567        1.24350374529180        0.42670086714015
C           81.51593492054180        2.40333938827727        0.92783659975515
C           82.48304056628091        3.30231345443701        1.28583974229191
C           83.74904663061602        2.71987530432948        1.00493320703050
N           83.50416582080311        1.47390098196474        0.49278039999805
C           85.01007815917046        3.28633106694324        1.22734285707517
C           86.23380186941522        2.66397888118361        0.97774592632284
C           87.52180135991429        3.30555225297347        1.17174346440014
C           88.45760071036544        2.39753495880874        0.82522844236795
N           86.40875870023392        1.39826708515482        0.50588121650938
C           87.73974455453178        1.20801755291901        0.41171605436355
C           88.39244563264849        0.03584488209712       -0.02130700789724
C           87.76187749207698       -1.14062152047056       -0.47101389833894
C           88.40731988245923       -2.33292456377336       -0.88919135745812
C           87.44006983427646       -3.22843506626145       -1.25584507684369
C           86.17505139480696       -2.60460150344292       -1.07899621232996
C           84.91457043522067       -3.16238542076450       -1.32335498928020
C           84.90001072295311       -4.53948442346046       -1.87790694255646
C           85.47246331780927       -4.80574832247753       -3.12245405012074
C           85.45804204192605       -6.09226399266550       -3.64002066191783
C           84.87806411222068       -7.12784467825226       -2.92005765322242
C           84.30906068284017       -6.87131534563292       -1.68000892952542
C           84.31693903175227       -5.58525656204900       -1.16128215360651
C           83.69051857882371       -2.53324261060056       -1.08978157930739
C           82.40278215697910       -3.12924047497263       -1.39851991066642
C           81.46704693794965       -2.22850249035788       -1.03403908623760
C           82.18431903772331       -1.08027207159916       -0.51561145801949
N           83.51626573548090       -1.28833126157599       -0.56773530230499
N           86.42070893095608       -1.34712234706318       -0.59516274187846
C           85.02625021890681        4.66518465269026        1.77779302343425
C           84.47075445616065        5.72262108995941        1.05638932260698
C           84.48793489295257        7.00939546343425        1.57345334693534
C           85.05364746862341        7.25459770445877        2.81722584766832
C           85.60591721001867        6.20723954512742        3.54205049962107
C           85.59537306725295        4.92009768739711        3.02618273300061
H           80.44748478188794        2.52321333299399        1.00707082653794
H           82.33482505536031        4.27923234572412        1.71621292877715
H           84.22378322846133        0.81481938336683        0.21526525729147
H           87.66812510278369        4.31743384359619        1.51327244005535
H           89.53099842446925        2.50036928110829        0.83203017335666
H           89.47522765326869       -2.48007070617228       -0.89989543597409
H           87.58748170402419       -4.23607703356879       -1.60861827608524
H           85.91436985782289       -3.99568064330171       -3.69208546354441
H           85.90100610483154       -6.28646427557585       -4.61056628941370
H           84.86948721007379       -8.13347318845425       -3.32489292569735
H           83.85740495333177       -7.67737755414733       -1.11246058509648
H           83.88328451287246       -5.38883326999457       -0.18711299040350
H           82.25678415190498       -4.09935673939885       -1.84514357069603
H           80.39400102786969       -2.30457915196929       -1.10777238477223
H           85.70175291305920       -0.67171866468538       -0.35815486046014
H           84.04016680375489        5.53539804705522        0.07889629569197
H           84.05837815297900        7.82451170304090        1.00164431699598
H           85.06427148536594        8.26064209075918        3.22102424327269
H           86.04655057506731        6.39303993302305        4.51527990069768
H           86.01633222387358        4.10101866183442        3.59852976159234
C           94.99479140433697       -0.00114552875053       -0.00182610549630
C           95.61893707484170        1.15446154926304        0.50790012925383
C           94.96657220497026        2.29535652144005        1.04201389613826
C           95.92870712070079        3.19559687460166        1.41152260787996
C           97.19690079329185        2.63232681579624        1.10481734331196
N           96.95888283237848        1.39415144028996        0.57018662906513
C           98.45442654234212        3.21098021091969        1.31656830554238
C           99.68139732718461        2.60561113214776        1.04307371254213
C          100.96480862644661        3.25978511269700        1.22373941251094
C          101.90557508054567        2.36370669714084        0.85970324073789
N           99.86351852663235        1.34487818084131        0.56015906532260
C          101.19506839671345        1.16894300834233        0.44894291568701
C          101.85445123796721        0.00403359836439        0.00607070440117
C          101.23053903912393       -1.17572639755168       -0.44523256132276
C          101.88272735669142       -2.36268909561268       -0.86742953956299
C          100.92047561044123       -3.26188491915216       -1.23919365723549
C           99.65242576274746       -2.64500820626658       -1.06249553687588
C           98.39492925145815       -3.20437107986395       -1.32061493724315
C           98.38782985260070       -4.57554988961404       -1.88988286969083
C           98.96801369541058       -4.82683861392596       -3.13393411062588
C           98.95899504319166       -6.10754054383021       -3.66583094076224
C           98.37736137262563       -7.15222967738101       -2.96050059258785
C           97.80105766212380       -6.91065309460583       -1.72081558134161
C           97.80284105586335       -5.63027685097655       -1.18813048462619
C           97.16791814275868       -2.58095024106275       -1.09113826401090
C           95.88472844909643       -3.17261739865011       -1.42441552836022
C           94.94378803515508       -2.27917514181349       -1.05437447945832
C           95.65397878843972       -1.14112437791990       -0.50535419473552
N           96.98560790500724       -1.34496467753899       -0.54826978786545
N           99.89064779828048       -1.38900430325171       -0.57125513653547
C           98.46147958373952        4.58615450721205        1.87591226166171
C           97.87987854902482        5.63928925411427        1.16871478865519
C           97.88877931975665        6.92395167461186        1.69096620896040
C           98.47195973799151        7.17127085260593        2.92624023958870
C           99.04982989088418        6.12818634389510        3.63712326785316
C           99.04792780130532        4.84316061651227        3.11576408855258
H           93.89786502389381        2.40355893010696        1.13319663803690
H           95.77534597198128        4.16112846252124        1.86513955296001
H           97.68205454498545        0.74933955082805        0.26939260922851
H          101.10479806505973        4.27120423963555        1.56929049299547
H          102.97780230354890        2.47799453450333        0.85293118853283
H          102.95137836401145       -2.50434525913439       -0.87731035772922
H          101.07358183514434       -4.26731053683001       -1.59587485706981
H           99.41149478255822       -4.00962347270008       -3.69199347791852
H           99.40739448155513       -6.29003157209706       -4.63614760540613
H           98.37311284550084       -8.15329776737500       -3.37655764321930
H           97.34822825371057       -7.72394108311485       -1.16461581784218
H           97.36268540676106       -5.44529866010099       -0.21462745706423
H           95.74513555589748       -4.13473351921742       -1.89006617996992
H           93.87164088222937       -2.35515764818848       -1.14104926830975
H           99.16759344708693       -0.71863736836480       -0.33244038714419
H           97.43541813256488        5.45037158592236        0.19777597414649
H           97.43909428168472        7.73566100246201        1.12991169557164
H           98.47621301719819        8.17566553258528        3.33422880627694
H           99.50394804519878        6.31574045889059        4.60379590890876
H           99.48911807761704        4.02739198803446        3.67748584437634
C          108.45631843309259       -0.00326395004862       -0.00028764583287
C          109.08043922870789        1.15283138096075        0.50833504431334
C          108.42868106709793        2.29344544829222        1.04376761722929
C          109.39123965442423        3.19410766393236        1.41118330270734
C          110.65905098085229        2.63131633299039        1.10189737142916
N          110.42037257040619        1.39304414659127        0.56772700160967
C          111.91670468788394        3.21052136467340        1.31057954226320
C          113.14356563086065        2.60612889908386        1.03413199208387
C          114.42670734642472        3.26171268594075        1.21149254439220
C          115.36762679391754        2.36603067260212        0.84676135527127
N          113.32585545305172        1.34520788124859        0.55203592720409
C          114.65746593781053        1.17014105754121        0.43878293854648
C          115.31664694871698        0.00472362212902       -0.00278217657663
C          114.69228081750308       -1.17554507589671       -0.45215747676459
C          115.34422846631992       -2.36276622125600       -0.87393901166801
C          114.38177130565849       -3.26236911181745       -1.24415251902791
C          113.11382082237166       -2.64561192821054       -1.06653480567844
C          111.85611424207580       -3.20564765075791       -1.32252038041900
C          111.84844064362939       -4.57746099955094       -1.89008251237237
C          112.42897755941215       -4.83094588432531       -3.13352112440357
C          112.41896164673837       -6.11233260445801       -3.66376171073590
C          111.83580925191302       -7.15552555089005       -2.95747364639298
C          111.25916070136566       -6.91179525928639       -1.71836536021045
C          111.26213161545662       -5.63078110368815       -1.18725713016209
C          110.62928999881974       -2.58239736623924       -1.09201289225196
C          109.34587286158775       -3.17456756322055       -1.42352076857171
C          108.40513223647373       -2.28128446572677       -1.05262017684924
C          109.11568038374163       -1.14282177893577       -0.50485916074902
N          110.44722169851934       -1.34615894653689       -0.54941924496554
N          113.35226807157198       -1.38915864278870       -0.57665448786675
C          111.92452021651529        4.58541716326186        1.87085926758957
C          111.34497817846950        5.63983635253395        1.16397598245630
C          111.35529793984963        6.92405487116489        1.68731606278641
C          111.93743093086684        7.16942955105007        2.92346850144549
C          112.51290567213520        6.12490841332867        3.63418116921415
C          112.50995876480818        4.84040515189844        3.11156925007209
H          107.36010511620336        2.40112975382908        1.13722087400933
H          109.23854222802478        4.15969556836736        1.86491774094014
H          111.14311336517326        0.74840145710340        0.26554101059973
H          114.56616508288253        4.27373438751044        1.55552021855677
H          116.43973399822478        2.48122200733726        0.83750634245930
H          116.41288650641749       -2.50426709183485       -0.88502043222716
H          114.53477384023913       -4.26798089991959       -1.60033446477931
H          112.87341859946457       -4.01488614349363       -3.69251177805926
H          112.86771147726316       -6.29650411377295       -4.63359453998922
H          111.83059675179061       -8.15709822033824       -3.37232240348800
H          110.80510715989321       -7.72388382170953       -1.16140860778508
H          110.82181222570149       -5.44413886927330       -0.21414687099675
H          109.20587981918726       -4.13681548876620       -1.88876737773099
H          107.33290974592269       -2.35766328614146       -1.13797549308364
H          112.62939298837873       -0.71875922871041       -0.33735147737705
H          110.90104827852470        5.45228380855715        0.19253716824280
H          110.90757304412362        7.73696406213630        1.12642476154184
H          111.94275124600127        8.17347072375880        3.33227835500256
H          112.96605499534108        6.31091873083243        4.60160094452807
H          112.94964098347431        4.02350453721419        3.67283474342431
C          121.91879739658023       -0.02888401554488       -0.02755777100339
C          122.55177866558007        1.12785934817811        0.46759788808143
C          121.90946073562571        2.27662873508835        0.99740015273835
C          122.87864509363283        3.17791958753375        1.34450665255484
C          124.14157156082631        2.60781823891094        1.02730674570098
N          123.89305118818233        1.36400170982565        0.51067864400130
C          125.40316316164295        3.18607290162598        1.21093504374174
C          126.62460227181042        2.57121475788761        0.92966182909212
C          127.91210347971948        3.22704335851798        1.07368356185734
C          128.84601450826210        2.31613529889977        0.73001858339671
N          126.79647424597174        1.29680953805853        0.48365578136033
C          128.12758384399586        1.11014554188821        0.36832806945413
C          128.77689215230100       -0.07837541474430       -0.01839671489196
C          128.14483776411214       -1.26852142107966       -0.42426464631694
C          128.78622968015912       -2.47622627087849       -0.80306718838343
C          127.81717152305131       -3.37102328340076       -1.16696700825431
C          126.55520461819735       -2.73182619447485       -1.02731673875076
C          125.29416178930479       -3.27801599751590       -1.29676655844150
C          125.27601513231571       -4.65631110856665       -1.84779612143467
C          125.87979390461514       -4.93423075788465       -3.07493503696011
C          125.85793260928818       -6.22093262714283       -3.59178157116964
C          125.23945749820676       -7.24542911360964       -2.88817220304756
C          124.63999129376629       -6.97764715782161       -1.66493501136145
C          124.65504749175695       -5.69123432472585       -1.14728717660862
C          124.07264573455519       -2.63517576704685       -1.09219522601564
C          122.78558399380593       -3.21464688637895       -1.43261012699567
C          121.85147171239279       -2.30992812111611       -1.07293364737172
C          122.56980957959387       -1.17604521676733       -0.52570466463164
N          123.89950264435525       -1.39311521195822       -0.56034670805745
N          126.80343619796741       -1.46785044934835       -0.56350749190080
C          125.42420154692650        4.56685784423094        1.75502845624407
C          124.82476043538330        5.61475678937889        1.05499873121160
C          124.84577576625964        6.90304111199659        1.56802623221977
C          125.45932700176041        7.15946846272426        2.78661645818779
C          126.05591316452877        6.12184739219484        3.49002884893824
C          126.04159519703964        4.83330805583164        2.97796067342727
H          120.84228233832668        2.38884345913159        1.10104676483833
H          122.73364416427070        4.14879520626189        1.78935267124743
H          124.61029000873516        0.71277244935789        0.20953161832650
H          128.05878571337095        4.24928652272035        1.38262448591850
H          129.91839424261147        2.42641009909320        0.70799044946062
H          129.85288897404757       -2.63243142409740       -0.79305707904040
H          127.96117514260602       -4.38743102398404       -1.49527137923236
H          126.35159169612736       -4.13265360922653       -3.63248362622664
H          126.32480260628111       -6.42391052560039       -4.54925164654057
H          125.22450117192108       -8.25110810439615       -3.29274172165931
H          124.15832059836778       -7.77507718843448       -1.10999876901547
H          124.19680951756588       -5.48608434489628       -0.18624434435036
H          122.63880082838644       -4.17717354810406       -1.89514870593158
H          120.77919365362216       -2.37531501025010       -1.16647855893375
H          126.08674017768159       -0.78085035262316       -0.35467043741612
H          124.35685216666688        5.41914481982912        0.09648457899687
H          124.38156319324149        7.71058742158870        1.01281353629171
H          125.47275617592068        8.16662547889393        3.18749236672040
H          126.53415564020609        6.31638192114644        4.44359120987422
H          126.49700668680283        4.02164536111979        3.53427447909614
