      -----------------------------------------------------------      
     |                   =====================                   |     
     |                           x T B                           |     
     |                   =====================                   |     
     |                         S. Grimme                         |     
     |          Mulliken Center for Theoretical Chemistry        |     
     |                    University of Bonn                     |     
      -----------------------------------------------------------      

   * xtb version 6.5.1 (b24c23e) compiled by 'conda@728c89f4b128' on 2022-07-12

   xtb is free software: you can redistribute it and/or modify it under
   the terms of the GNU Lesser General Public License as published by
   the Free Software Foundation, either version 3 of the License, or
   (at your option) any later version.
   
   xtb is distributed in the hope that it will be useful,
   but WITHOUT ANY WARRANTY; without even the implied warranty of
   MERCHANTABILITY or FITNESS FOR A PARTICULAR PURPOSE.  See the
   GNU Lesser General Public License for more details.
   
   Cite this work as:
   * C. Bannwarth, E. Caldeweyher, S. Ehlert, A. Hansen, P. Pracht,
     J. Seibert, S. Spicher, S. Grimme, WIREs Comput. Mol. Sci., 2020, 11,
     e01493. DOI: 10.1002/wcms.1493
   
   for GFN2-xTB:
   * C. Bannwarth, S. Ehlert and S. Grimme., J. Chem. Theory Comput., 2019,
     15, 1652-1671. DOI: 10.1021/acs.jctc.8b01176
   for GFN1-xTB:
   * S. Grimme, C. Bannwarth, P. Shushkov, J. Chem. Theory Comput., 2017,
     13, 1989-2009. DOI: 10.1021/acs.jctc.7b00118
   for GFN0-xTB:
   * P. Pracht, E. Caldeweyher, S. Ehlert, S. Grimme, ChemRxiv, 2019, preprint.
     DOI: 10.26434/chemrxiv.8326202.v1
   for GFN-FF:
   * S. Spicher and S. Grimme, Angew. Chem. Int. Ed., 2020, 59, 15665-15673.
     DOI: 10.1002/anie.202004239
   
   for ALPB and GBSA implicit solvation:
   * S. Ehlert, M. Stahn, S. Spicher, S. Grimme, J. Chem. Theory Comput.,
     2021, 17, 4250-4261. DOI: 10.1021/acs.jctc.1c00471
   
   for DFT-D4:
   * E. Caldeweyher, C. Bannwarth and S. Grimme, J. Chem. Phys., 2017,
     147, 034112. DOI: 10.1063/1.4993215
   * E. Caldeweyher, S. Ehlert, A. Hansen, H. Neugebauer, S. Spicher,
     C. Bannwarth and S. Grimme, J. Chem. Phys., 2019, 150, 154122.
     DOI: 10.1063/1.5090222
   * E. Caldeweyher, J.-M. Mewes, S. Ehlert and S. Grimme, Phys. Chem. Chem. Phys.
     2020, 22, 8499-8512. DOI: 10.1039/D0CP00502A
   
   for sTDA-xTB:
   * S. Grimme and C. Bannwarth, J. Chem. Phys., 2016, 145, 054103.
     DOI: 10.1063/1.4959605
   
   in the mass-spec context:
   * V. Asgeirsson, C. Bauer and S. Grimme, Chem. Sci., 2017, 8, 4879.
     DOI: 10.1039/c7sc00601b
   * J. Koopman and S. Grimme, ACS Omega 2019, 4, 12, 15120-15133.
     DOI: 10.1021/acsomega.9b02011
   
   for metadynamics refer to:
   * S. Grimme, J. Chem. Theory Comput., 2019, 155, 2847-2862
     DOI: 10.1021/acs.jctc.9b00143
   
   for SPH calculations refer to:
   * S. Spicher and S. Grimme, J. Chem. Theory Comput., 2021, 17, 1701-1714
     DOI: 10.1021/acs.jctc.0c01306
   
   with help from (in alphabetical order)
   P. Atkinson, C. Bannwarth, F. Bohle, G. Brandenburg, E. Caldeweyher
   M. Checinski, S. Dohm, S. Ehlert, S. Ehrlich, I. Gerasimov, C. Hölzer
   A. Katbashev, J. Koopman, C. Lavigne, S. Lehtola, F. März, M. Müller,
   F. Musil, H. Neugebauer, J. Pisarek, C. Plett, P. Pracht, F. Pultar,
   J. Seibert, P. Shushkov, S. Spicher, M. Stahn, M. Steiner, T. Strunk,
   J. Stückrath, T. Rose, and J. Unsleber
   
 * started run on 2022/07/28 at 22:13:30.492     

           -------------------------------------------------
          |                Calculation Setup                |
           -------------------------------------------------

          program call               : xtb xtbopt.xyz --gfn 1 --vipea
          hostname                   : cx3-5-14.cx3.hpc.ic.ac.uk
          coordinate file            : xtbopt.xyz
          omp threads                :                     1

   ID    Z sym.   atoms
    1    6 C      1-5, 7-11, 13-17, 19-24, 26-30, 32-37, 60-64, 66-70, 72-76,
                  78-83, 85-89, 91-96, 119-165, 167-171, 173-177, 179-184,
                  186-190, 192-197, 219-223, 225-229, 231-235, 237-242,
                  244-248, 250-255, 277-281, 283-287, 289-293, 295-300,
                  302-306, 308-313, 335-339, 341-345, 347-351, 353-358,
                  360-364, 366-371, 393-397, 399-403, 405-409, 411-416,
                  418-422, 424-429, 451-455, 457-461, 463-467, 469-474,
                  476-480, 482-487
    2    7 N      6, 18, 25, 38, 65, 77, 84, 97, 166, 178, 185, 198, 224,
                  236, 243, 256, 282, 294, 301, 314, 340, 352, 359, 372, 398,
                  410, 417, 430, 456, 468, 475, 488
    3    8 O      12, 31, 71, 90, 172, 191, 230, 249, 288, 307, 346, 365,
                  404, 423, 462, 481
    4    1 H      39-59, 98-118, 199-218, 257-276, 315-334, 373-392, 431-450,
                  489-508

           -------------------------------------------------
          |                 I P E A - x T B                 |
           -------------------------------------------------

        Reference                      10.1039/c7sc00601b
      * Hamiltonian:
        H0-scaling (s, p, d)           2.150000    2.300000    2.000000
        zeta-weighting                 0.000000
      * Dispersion:
        s8                             2.400000
        a1                             0.630000
        a2                             5.000000
        s9                             0.000000
      * Repulsion:
        kExp                           1.500000
        rExp                           1.000000
      * Coulomb:
        alpha                          1.000000
        third order                    atomic
        anisotropic                    false
      * Halogen bond correction:
        rad-scale                      1.300000
        damping                        0.440000


          ...................................................
          :                      SETUP                      :
          :.................................................:
          :  # basis functions                2054          :
          :  # atomic orbitals                2054          :
          :  # shells                         1362          :
          :  # electrons                      1610          :
          :  # halogen bonds                     0          :
          :  max. iterations                   250          :
          :  Hamiltonian                  GFN1-xTB          :
          :  restarted?                      false          :
          :  GBSA solvation                  false          :
          :  PC potential                    false          :
          :  electronic temp.          300.0000000     K    :
          :  accuracy                    1.0000000          :
          :  -> integral cutoff          0.2500000E+02      :
          :  -> integral neglect         0.1000000E-07      :
          :  -> SCF convergence          0.1000000E-05 Eh   :
          :  -> wf. convergence          0.2000000E-04 e    :
          :  Broyden damping             0.4000000          :
          ...................................................

 iter      E             dE          RMSdq      gap      omega  full diag
   1  -1021.2994148 -0.102130E+04  0.102E+01    0.50       0.0  T
   2  -1022.8093114 -0.150990E+01  0.634E+00    1.11       1.0  T
   3  -1006.7532831  0.160560E+02  0.476E+00    0.15       1.0  T
   4  -1025.4566014 -0.187033E+02  0.109E+00    1.08       1.0  T
   5  -1026.8110295 -0.135443E+01  0.273E-01    0.88       1.0  T
   6  -1026.8909344 -0.799050E-01  0.103E-01    0.90       1.0  T
   7  -1026.8987793 -0.784486E-02  0.517E-02    0.89       1.0  T
   8  -1026.9004532 -0.167389E-02  0.339E-02    0.89       1.0  T
   9  -1026.9009820 -0.528843E-03  0.218E-02    0.89       1.0  T
  10  -1026.9013239 -0.341890E-03  0.615E-03    0.89       1.0  T
  11  -1026.9013414 -0.175478E-04  0.306E-03    0.89       1.5  T
  12  -1026.9013500 -0.855099E-05  0.113E-03    0.89       3.9  T
  13  -1026.9013512 -0.118045E-05  0.422E-04    0.89      10.5  T
  14  -1026.9013513 -0.145064E-06  0.188E-04    0.89      23.6  T
  15  -1026.9013513 -0.174825E-07  0.109E-04    0.89      40.8  T

   *** convergence criteria satisfied after 15 iterations ***

         #    Occupation            Energy/Eh            Energy/eV
      -------------------------------------------------------------
         1        2.0000           -1.0424081             -28.3654
       ...           ...                  ...                  ...
       799        2.0000           -0.3753312             -10.2133
       800        2.0000           -0.3717376             -10.1155
       801        2.0000           -0.3688890             -10.0380
       802        2.0000           -0.3670007              -9.9866
       803        2.0000           -0.3640532              -9.9064
       804        2.0000           -0.3605768              -9.8118
       805        2.0000           -0.3580962              -9.7443 (HOMO)
       806                         -0.3253221              -8.8525 (LUMO)
       807                         -0.3220002              -8.7621
       808                         -0.3176960              -8.6449
       809                         -0.3131554              -8.5214
       810                         -0.3093825              -8.4187
       ...                                ...                  ...
      2054                        527.4039180           14351.3911
      -------------------------------------------------------------
                  HL-Gap            0.0327741 Eh            0.8918 eV
             Fermi-level           -0.3416889 Eh           -9.2978 eV

 SCC (total)                   0 d,  0 h,  0 min, 53.633 sec
 SCC setup                      ...        0 min,  0.035 sec (  0.066%)
 Dispersion                     ...        0 min,  0.036 sec (  0.067%)
 classical contributions        ...        0 min,  0.008 sec (  0.016%)
 integral evaluation            ...        0 min,  2.118 sec (  3.949%)
 iterations                     ...        0 min, 47.013 sec ( 87.658%)
 molecular gradient             ...        0 min,  3.787 sec (  7.061%)
 printout                       ...        0 min,  0.635 sec (  1.183%)

         :::::::::::::::::::::::::::::::::::::::::::::::::::::
         ::                     SUMMARY                     ::
         :::::::::::::::::::::::::::::::::::::::::::::::::::::
         :: total energy           -1006.153793454975 Eh    ::
         :: gradient norm              0.129668950599 Eh/a0 ::
         :: HOMO-LUMO gap              0.891828458474 eV    ::
         ::.................................................::
         :: SCC energy             -1026.901351342159 Eh    ::
         :: -> electrostatic           0.718009057128 Eh    ::
         :: repulsion energy          21.180437896767 Eh    ::
         :: dispersion energy         -0.432880009583 Eh    ::
         :: halogen bond corr.         0.000000000000 Eh    ::
         :: add. restraining           0.000000000000 Eh    ::
         :: total charge               0.000000000016 e     ::
         :::::::::::::::::::::::::::::::::::::::::::::::::::::

           ------------------------------------------------- 
          |        vertical delta SCC IP calculation        |
           ------------------------------------------------- 
   1  -1026.5251970 -0.102653E+04  0.423E-02    0.89       0.0  T
   2  -1026.5199260  0.527106E-02  0.572E-02    0.83       1.0  T
   3  -1026.5284786 -0.855266E-02  0.241E-02    0.89       1.0  T
   4  -1026.5290329 -0.554307E-03  0.172E-02    0.88       1.0  T
   5  -1026.5282252  0.807719E-03  0.183E-02    0.88       1.0  T
   6  -1026.5291348 -0.909584E-03  0.106E-02    0.88       1.0  T
   7  -1026.5295238 -0.388964E-03  0.612E-03    0.88       1.0  T
   8  -1026.5295900 -0.662499E-04  0.254E-03    0.88       1.7  T
   9  -1026.5296021 -0.120737E-04  0.771E-04    0.88       5.8  T
  10  -1026.5296027 -0.559986E-06  0.395E-04    0.88      11.2  T
  11  -1026.5296028 -0.179664E-06  0.220E-04    0.88      20.1  T
  12  -1026.5296029 -0.679292E-07  0.955E-05    0.88      46.5  T
  13  -1026.5296029 -0.889486E-08  0.504E-05    0.88      88.0  T
     SCC iter.                  ...        0 min, 41.504 sec
     gradient                   ...        0 min,  3.767 sec
------------------------------------------------------------------------
empirical IP shift (eV):    4.8455
delta SCC IP (eV):    5.2703
------------------------------------------------------------------------
           ------------------------------------------------- 
          |        vertical delta SCC EA calculation        |
           ------------------------------------------------- 
   1  -1027.1994582 -0.102720E+04  0.730E-02    0.10       0.0  T
   2  -1027.2024476 -0.298937E-02  0.680E-02    0.02       1.0  T
   3  -1027.2092974 -0.684979E-02  0.389E-02    0.07       1.0  T
   4  -1027.2102119 -0.914528E-03  0.300E-02    0.05       1.0  T
   5  -1027.2088463  0.136566E-02  0.264E-02    0.07       1.0  T
   6  -1027.2087213  0.124976E-03  0.249E-02    0.07       1.0  T
   7  -1027.2114982 -0.277691E-02  0.844E-03    0.05       1.0  T
   8  -1027.2116018 -0.103571E-03  0.351E-03    0.05       1.3  T
   9  -1027.2116133 -0.115443E-04  0.190E-03    0.05       2.3  T
  10  -1027.2116173 -0.393851E-05  0.538E-04    0.05       8.3  T
  11  -1027.2116174 -0.180551E-06  0.324E-04    0.05      13.7  T
  12  -1027.2116176 -0.118751E-06  0.148E-04    0.05      30.1  T
  13  -1027.2116176 -0.213099E-07  0.647E-05    0.05      68.5  T
     SCC iter.                  ...        0 min, 40.604 sec
     gradient                   ...        0 min,  3.697 sec
------------------------------------------------------------------------
empirical EA shift (eV):    4.8455
delta SCC EA (eV):    3.5973
------------------------------------------------------------------------
           -------------------------------------------------
          |                Property Printout                |
           -------------------------------------------------

    * Orbital Energies and Occupations

         #    Occupation            Energy/Eh            Energy/eV
      -------------------------------------------------------------
         1        2.0000           -1.0208188             -27.7779
       ...           ...                  ...                  ...
       794        2.0000           -0.3595424              -9.7836
       795        2.0000           -0.3594574              -9.7813
       796        2.0000           -0.3593152              -9.7775
       797        2.0000           -0.3592356              -9.7753
       798        2.0000           -0.3500383              -9.5250
       799        2.0000           -0.3493024              -9.5050
       800        2.0000           -0.3474216              -9.4538
       801        2.0000           -0.3445682              -9.3762
       802        2.0000           -0.3406369              -9.2692
       803        2.0000           -0.3361411              -9.1469
       804        2.0000           -0.3316796              -9.0255
       805        2.0000           -0.3280331              -8.9262
       806        0.7172           -0.2952209              -8.0334 (HOMO)
       807        0.2673           -0.2933787              -7.9832 (LUMO)
       808        0.0142           -0.2903110              -7.8998
       809        0.0012           -0.2879484              -7.8355
       810        0.0001           -0.2853108              -7.7637
       811        0.0000           -0.2825067              -7.6874
       812        0.0000           -0.2817125              -7.6658
       813        0.0000           -0.2807740              -7.6402
       814                         -0.2771657              -7.5421
       815                         -0.2758048              -7.5050
       816                         -0.2751263              -7.4866
       817                         -0.2741099              -7.4589
       ...                                ...                  ...
      2054                        527.4264764           14352.0049
      -------------------------------------------------------------
                  HL-Gap            0.0018422 Eh            0.0501 eV
             Fermi-level           -0.3030100 Eh           -8.2453 eV

  Mulliken/CM5 charges         n(s)   n(p)   n(d)
     1C    -0.02157 -0.06240   1.089  2.933  0.000
     2C     0.06209  0.12248   1.105  2.833  0.000
     3C    -0.03470 -0.08001   1.081  2.953  0.000
     4C    -0.03238 -0.07737   1.077  2.956  0.000
     5C     0.06296  0.12686   1.102  2.835  0.000
     6N    -0.15905 -0.51196   1.312  3.847  0.000
     7C     0.00930  0.01504   1.093  2.898  0.000
     8C    -0.00345 -0.01205   1.072  2.931  0.000
     9C    -0.02295 -0.07617   1.078  2.945  0.000
    10C    -0.04114 -0.09316   1.067  2.974  0.000
    11C     0.08779  0.09981   1.125  2.788  0.000
    12O    -0.29631 -0.49589   1.631  4.665  0.000
    13C    -0.03497 -0.08566   1.081  2.954  0.000
    14C    -0.02350 -0.07660   1.077  2.947  0.000
    15C     0.05922  0.12726   1.119  2.822  0.000
    16C    -0.03761 -0.08364   1.085  2.952  0.000
    17C    -0.03822 -0.08366   1.091  2.948  0.000
    18N    -0.28512 -0.47185   1.293  3.992  0.000
    19C     0.06438  0.13519   1.129  2.806  0.000
    20C     0.01763  0.02483   1.085  2.898  0.000
    21C     0.06676  0.13170   1.109  2.824  0.000
    22C    -0.03299 -0.07742   1.080  2.953  0.000
    23C    -0.03211 -0.07711   1.076  2.956  0.000
    24C     0.06215  0.12545   1.100  2.838  0.000
    25N    -0.15689 -0.50910   1.314  3.843  0.000
    26C     0.00890  0.01470   1.093  2.898  0.000
    27C    -0.00345 -0.01203   1.072  2.931  0.000
    28C    -0.02298 -0.07609   1.077  2.946  0.000
    29C    -0.03456 -0.08525   1.081  2.953  0.000
    30C     0.08777  0.09980   1.125  2.788  0.000
    31O    -0.29618 -0.49576   1.631  4.665  0.000
    32C    -0.04162 -0.09364   1.067  2.974  0.000
    33C    -0.02351 -0.07673   1.078  2.945  0.000
    34C     0.06043  0.12978   1.121  2.818  0.000
    35C    -0.03796 -0.08397   1.087  2.951  0.000
    36C    -0.04000 -0.08637   1.092  2.948  0.000
    37C     0.05890  0.12459   1.125  2.816  0.000
    38N    -0.28734 -0.47440   1.293  3.994  0.000
    39H     0.02905  0.08807   0.971  0.000  0.000
    40H     0.03946  0.09613   0.961  0.000  0.000
    41H     0.03080  0.08951   0.969  0.000  0.000
    42H     0.16395  0.37232   0.836  0.000  0.000
    43H     0.02676  0.08476   0.973  0.000  0.000
    44H     0.03868  0.09693   0.961  0.000  0.000
    45H     0.22841  0.40069   0.772  0.000  0.000
    46H     0.03911  0.09814   0.961  0.000  0.000
    47H     0.02687  0.08484   0.973  0.000  0.000
    48H     0.02142  0.08018   0.979  0.000  0.000
    49H     0.02507  0.08313   0.975  0.000  0.000
    50H     0.03516  0.09327   0.965  0.000  0.000
    51H     0.03132  0.09012   0.969  0.000  0.000
    52H     0.16273  0.37108   0.837  0.000  0.000
    53H     0.02767  0.08567   0.972  0.000  0.000
    54H     0.03983  0.09887   0.960  0.000  0.000
    55H     0.22810  0.40038   0.772  0.000  0.000
    56H     0.03789  0.09615   0.962  0.000  0.000
    57H     0.02601  0.08398   0.974  0.000  0.000
    58H     0.02076  0.07941   0.979  0.000  0.000
    59H     0.02921  0.08563   0.971  0.000  0.000
    60C    -0.02104 -0.06188   1.089  2.932  0.000
    61C     0.06224  0.12263   1.105  2.833  0.000
    62C    -0.03436 -0.07967   1.082  2.953  0.000
    63C    -0.03216 -0.07714   1.077  2.955  0.000
    64C     0.06328  0.12717   1.102  2.834  0.000
    65N    -0.15884 -0.51173   1.312  3.847  0.000
    66C     0.00945  0.01519   1.093  2.898  0.000
    67C    -0.00352 -0.01211   1.072  2.932  0.000
    68C    -0.02300 -0.07623   1.078  2.945  0.000
    69C    -0.04109 -0.09311   1.067  2.974  0.000
    70C     0.08787  0.09989   1.125  2.788  0.000
    71O    -0.29619 -0.49577   1.631  4.665  0.000
    72C    -0.03490 -0.08558   1.081  2.954  0.000
    73C    -0.02352 -0.07661   1.077  2.947  0.000
    74C     0.05959  0.12766   1.119  2.821  0.000
    75C    -0.03738 -0.08341   1.086  2.952  0.000
    76C    -0.03789 -0.08333   1.091  2.947  0.000
    77N    -0.28499 -0.47168   1.293  3.992  0.000
    78C     0.06457  0.13536   1.129  2.806  0.000
    79C     0.01798  0.02518   1.085  2.897  0.000
    80C     0.06694  0.13186   1.109  2.824  0.000
    81C    -0.03256 -0.07699   1.080  2.952  0.000
    82C    -0.03180 -0.07680   1.076  2.956  0.000
    83C     0.06252  0.12582   1.100  2.837  0.000
    84N    -0.15685 -0.50904   1.314  3.843  0.000
    85C     0.00910  0.01490   1.093  2.898  0.000
    86C    -0.00350 -0.01208   1.072  2.932  0.000
    87C    -0.02304 -0.07615   1.077  2.946  0.000
    88C    -0.03451 -0.08520   1.081  2.953  0.000
    89C     0.08786  0.09988   1.125  2.788  0.000
    90O    -0.29606 -0.49564   1.631  4.665  0.000
    91C    -0.04153 -0.09355   1.067  2.974  0.000
    92C    -0.02350 -0.07671   1.078  2.945  0.000
    93C     0.06071  0.13006   1.122  2.818  0.000
    94C    -0.03780 -0.08381   1.087  2.951  0.000
    95C    -0.03975 -0.08613   1.092  2.948  0.000
    96C     0.05905  0.12474   1.125  2.816  0.000
    97N    -0.28702 -0.47408   1.293  3.994  0.000
    98H     0.02950  0.08853   0.970  0.000  0.000
    99H     0.03988  0.09655   0.960  0.000  0.000
   100H     0.03117  0.08988   0.969  0.000  0.000
   101H     0.16414  0.37250   0.836  0.000  0.000
   102H     0.02689  0.08486   0.973  0.000  0.000
   103H     0.03885  0.09710   0.961  0.000  0.000
   104H     0.22855  0.40083   0.771  0.000  0.000
   105H     0.03931  0.09834   0.961  0.000  0.000
   106H     0.02699  0.08495   0.973  0.000  0.000
   107H     0.02179  0.08057   0.978  0.000  0.000
   108H     0.02537  0.08346   0.975  0.000  0.000
   109H     0.03553  0.09364   0.964  0.000  0.000
   110H     0.03177  0.09057   0.968  0.000  0.000
   111H     0.16294  0.37127   0.837  0.000  0.000
   112H     0.02771  0.08569   0.972  0.000  0.000
   113H     0.03998  0.09901   0.960  0.000  0.000
   114H     0.22826  0.40054   0.772  0.000  0.000
   115H     0.03811  0.09636   0.962  0.000  0.000
   116H     0.02620  0.08416   0.974  0.000  0.000
   117H     0.02108  0.07973   0.979  0.000  0.000
   118H     0.02959  0.08601   0.970  0.000  0.000
   119C    -0.01470 -0.01480   1.077  2.937  0.000
   120C    -0.01748 -0.01759   1.075  2.943  0.000
   121C    -0.01933 -0.02010   1.062  2.958  0.000
   122C    -0.01768 -0.01931   1.092  2.926  0.000
   123C    -0.02180 -0.02256   1.060  2.962  0.000
   124C    -0.01489 -0.01651   1.095  2.920  0.000
   125C    -0.01644 -0.01654   1.076  2.940  0.000
   126C    -0.01733 -0.01743   1.075  2.942  0.000
   127C    -0.02072 -0.02147   1.061  2.960  0.000
   128C    -0.01744 -0.01905   1.092  2.925  0.000
   129C    -0.02148 -0.02224   1.060  2.961  0.000
   130C    -0.01647 -0.01809   1.093  2.923  0.000
   131C    -0.01674 -0.01684   1.076  2.941  0.000
   132C    -0.01673 -0.01683   1.076  2.941  0.000
   133C    -0.02104 -0.02179   1.061  2.960  0.000
   134C    -0.01682 -0.01843   1.093  2.924  0.000
   135C    -0.02097 -0.02173   1.061  2.960  0.000
   136C    -0.01674 -0.01836   1.093  2.924  0.000
   137C    -0.01659 -0.01669   1.076  2.941  0.000
   138C    -0.01664 -0.01675   1.076  2.941  0.000
   139C    -0.02088 -0.02164   1.061  2.960  0.000
   140C    -0.01668 -0.01829   1.093  2.924  0.000
   141C    -0.02096 -0.02172   1.061  2.960  0.000
   142C    -0.01664 -0.01826   1.093  2.924  0.000
   143C    -0.01678 -0.01689   1.076  2.941  0.000
   144C    -0.01674 -0.01684   1.076  2.941  0.000
   145C    -0.02101 -0.02176   1.061  2.960  0.000
   146C    -0.01674 -0.01835   1.093  2.924  0.000
   147C    -0.02106 -0.02182   1.061  2.960  0.000
   148C    -0.01687 -0.01849   1.093  2.924  0.000
   149C    -0.01750 -0.01760   1.075  2.942  0.000
   150C    -0.01623 -0.01634   1.076  2.940  0.000
   151C    -0.02165 -0.02241   1.060  2.961  0.000
   152C    -0.01629 -0.01791   1.093  2.923  0.000
   153C    -0.02051 -0.02126   1.061  2.959  0.000
   154C    -0.01760 -0.01922   1.092  2.926  0.000
   155C    -0.01727 -0.01738   1.075  2.943  0.000
   156C    -0.01414 -0.01424   1.078  2.937  0.000
   157C    -0.02171 -0.02247   1.060  2.962  0.000
   158C    -0.01440 -0.01602   1.096  2.919  0.000
   159C    -0.01885 -0.01962   1.062  2.957  0.000
   160C    -0.01749 -0.01914   1.092  2.926  0.000
   161C     0.01451  0.02173   1.082  2.904  0.000
   162C     0.06599  0.13090   1.109  2.825  0.000
   163C    -0.03541 -0.07985   1.079  2.957  0.000
   164C    -0.03315 -0.07809   1.076  2.958  0.000
   165C     0.06053  0.12391   1.098  2.842  0.000
   166N    -0.15658 -0.50892   1.313  3.843  0.000
   167C     0.01164  0.01729   1.094  2.894  0.000
   168C    -0.00275 -0.01143   1.072  2.930  0.000
   169C    -0.02285 -0.07609   1.078  2.945  0.000
   170C    -0.04134 -0.09336   1.067  2.974  0.000
   171C     0.08755  0.09958   1.124  2.788  0.000
   172O    -0.29675 -0.49634   1.631  4.666  0.000
   173C    -0.03484 -0.08553   1.081  2.954  0.000
   174C    -0.02295 -0.07606   1.077  2.946  0.000
   175C     0.05785  0.12577   1.117  2.825  0.000
   176C    -0.03829 -0.08430   1.086  2.953  0.000
   177C    -0.03948 -0.08493   1.090  2.949  0.000
   178N    -0.28484 -0.47102   1.293  3.992  0.000
   179C     0.06408  0.13499   1.129  2.806  0.000
   180C     0.01630  0.02351   1.084  2.900  0.000
   181C     0.06624  0.13122   1.109  2.825  0.000
   182C    -0.03461 -0.07905   1.079  2.956  0.000
   183C    -0.03302 -0.07799   1.075  2.958  0.000
   184C     0.06075  0.12406   1.098  2.841  0.000
   185N    -0.15609 -0.50845   1.314  3.842  0.000
   186C     0.01137  0.01702   1.094  2.895  0.000
   187C    -0.00279 -0.01147   1.072  2.930  0.000
   188C    -0.02282 -0.07595   1.077  2.946  0.000
   189C    -0.03471 -0.08540   1.081  2.954  0.000
   190C     0.08761  0.09964   1.124  2.788  0.000
   191O    -0.29663 -0.49622   1.631  4.666  0.000
   192C    -0.04141 -0.09343   1.067  2.974  0.000
   193C    -0.02291 -0.07614   1.078  2.945  0.000
   194C     0.05803  0.12607   1.117  2.825  0.000
   195C    -0.03820 -0.08421   1.086  2.952  0.000
   196C    -0.03986 -0.08531   1.090  2.950  0.000
   197C     0.06385  0.13463   1.129  2.807  0.000
   198N    -0.28549 -0.47169   1.292  3.993  0.000
   199H     0.03266  0.09074   0.967  0.000  0.000
   200H     0.02960  0.08845   0.970  0.000  0.000
   201H     0.16277  0.37073   0.837  0.000  0.000
   202H     0.02671  0.08463   0.973  0.000  0.000
   203H     0.03793  0.09619   0.962  0.000  0.000
   204H     0.22775  0.40003   0.772  0.000  0.000
   205H     0.03878  0.09782   0.961  0.000  0.000
   206H     0.02698  0.08490   0.973  0.000  0.000
   207H     0.02007  0.07887   0.980  0.000  0.000
   208H     0.02354  0.08159   0.976  0.000  0.000
   209H     0.03398  0.09209   0.966  0.000  0.000
   210H     0.03003  0.08889   0.970  0.000  0.000
   211H     0.16266  0.37061   0.837  0.000  0.000
   212H     0.02724  0.08517   0.973  0.000  0.000
   213H     0.03907  0.09810   0.961  0.000  0.000
   214H     0.22769  0.39996   0.772  0.000  0.000
   215H     0.03775  0.09601   0.962  0.000  0.000
   216H     0.02646  0.08441   0.974  0.000  0.000
   217H     0.01986  0.07867   0.980  0.000  0.000
   218H     0.02286  0.08093   0.977  0.000  0.000
   219C     0.01539  0.02260   1.083  2.902  0.000
   220C     0.06615  0.13111   1.109  2.825  0.000
   221C    -0.03511 -0.07954   1.079  2.957  0.000
   222C    -0.03316 -0.07810   1.076  2.958  0.000
   223C     0.06047  0.12381   1.098  2.842  0.000
   224N    -0.15620 -0.50856   1.314  3.843  0.000
   225C     0.01176  0.01741   1.094  2.894  0.000
   226C    -0.00270 -0.01138   1.072  2.930  0.000
   227C    -0.02286 -0.07609   1.078  2.945  0.000
   228C    -0.04138 -0.09340   1.067  2.974  0.000
   229C     0.08755  0.09958   1.124  2.788  0.000
   230O    -0.29677 -0.49636   1.631  4.666  0.000
   231C    -0.03475 -0.08544   1.081  2.954  0.000
   232C    -0.02283 -0.07594   1.077  2.946  0.000
   233C     0.05778  0.12570   1.117  2.826  0.000
   234C    -0.03829 -0.08429   1.086  2.953  0.000
   235C    -0.03964 -0.08508   1.090  2.949  0.000
   236N    -0.28499 -0.47117   1.293  3.992  0.000
   237C     0.06405  0.13496   1.129  2.806  0.000
   238C     0.01576  0.02297   1.083  2.901  0.000
   239C     0.06620  0.13117   1.109  2.825  0.000
   240C    -0.03487 -0.07930   1.079  2.956  0.000
   241C    -0.03305 -0.07801   1.076  2.958  0.000
   242C     0.06055  0.12387   1.098  2.842  0.000
   243N    -0.15616 -0.50852   1.314  3.842  0.000
   244C     0.01171  0.01735   1.094  2.894  0.000
   245C    -0.00272 -0.01139   1.072  2.930  0.000
   246C    -0.02279 -0.07591   1.077  2.946  0.000
   247C    -0.03472 -0.08541   1.081  2.954  0.000
   248C     0.08758  0.09961   1.124  2.788  0.000
   249O    -0.29671 -0.49631   1.631  4.666  0.000
   250C    -0.04141 -0.09343   1.067  2.974  0.000
   251C    -0.02285 -0.07609   1.078  2.945  0.000
   252C     0.05775  0.12568   1.117  2.826  0.000
   253C    -0.03836 -0.08437   1.086  2.953  0.000
   254C    -0.03985 -0.08530   1.090  2.950  0.000
   255C     0.06392  0.13480   1.129  2.807  0.000
   256N    -0.28509 -0.47126   1.293  3.992  0.000
   257H     0.03334  0.09145   0.967  0.000  0.000
   258H     0.02967  0.08853   0.970  0.000  0.000
   259H     0.16270  0.37064   0.837  0.000  0.000
   260H     0.02661  0.08452   0.973  0.000  0.000
   261H     0.03776  0.09602   0.962  0.000  0.000
   262H     0.22761  0.39988   0.772  0.000  0.000
   263H     0.03886  0.09790   0.961  0.000  0.000
   264H     0.02714  0.08506   0.973  0.000  0.000
   265H     0.01991  0.07871   0.980  0.000  0.000
   266H     0.02321  0.08127   0.977  0.000  0.000
   267H     0.03366  0.09176   0.966  0.000  0.000
   268H     0.02983  0.08869   0.970  0.000  0.000
   269H     0.16267  0.37061   0.837  0.000  0.000
   270H     0.02721  0.08515   0.973  0.000  0.000
   271H     0.03896  0.09800   0.961  0.000  0.000
   272H     0.22760  0.39988   0.772  0.000  0.000
   273H     0.03769  0.09595   0.962  0.000  0.000
   274H     0.02652  0.08445   0.973  0.000  0.000
   275H     0.01974  0.07854   0.980  0.000  0.000
   276H     0.02286  0.08090   0.977  0.000  0.000
   277C     0.01593  0.02314   1.083  2.901  0.000
   278C     0.06626  0.13123   1.109  2.825  0.000
   279C    -0.03473 -0.07916   1.079  2.956  0.000
   280C    -0.03297 -0.07792   1.076  2.957  0.000
   281C     0.06071  0.12403   1.098  2.842  0.000
   282N    -0.15617 -0.50851   1.314  3.842  0.000
   283C     0.01178  0.01742   1.094  2.894  0.000
   284C    -0.00274 -0.01141   1.072  2.930  0.000
   285C    -0.02287 -0.07608   1.078  2.945  0.000
   286C    -0.04135 -0.09337   1.067  2.974  0.000
   287C     0.08760  0.09963   1.124  2.788  0.000
   288O    -0.29669 -0.49628   1.631  4.666  0.000
   289C    -0.03472 -0.08541   1.081  2.954  0.000
   290C    -0.02283 -0.07596   1.077  2.946  0.000
   291C     0.05797  0.12591   1.117  2.825  0.000
   292C    -0.03820 -0.08420   1.086  2.952  0.000
   293C    -0.03956 -0.08500   1.090  2.949  0.000
   294N    -0.28486 -0.47113   1.293  3.992  0.000
   295C     0.06405  0.13495   1.129  2.807  0.000
   296C     0.01596  0.02318   1.083  2.901  0.000
   297C     0.06624  0.13121   1.109  2.825  0.000
   298C    -0.03476 -0.07919   1.079  2.956  0.000
   299C    -0.03295 -0.07791   1.076  2.957  0.000
   300C     0.06069  0.12403   1.098  2.841  0.000
   301N    -0.15604 -0.50843   1.314  3.842  0.000
   302C     0.01180  0.01745   1.094  2.894  0.000
   303C    -0.00274 -0.01141   1.072  2.930  0.000
   304C    -0.02278 -0.07588   1.077  2.946  0.000
   305C    -0.03468 -0.08536   1.081  2.953  0.000
   306C     0.08765  0.09969   1.124  2.788  0.000
   307O    -0.29662 -0.49622   1.631  4.666  0.000
   308C    -0.04136 -0.09338   1.067  2.974  0.000
   309C    -0.02282 -0.07609   1.078  2.945  0.000
   310C     0.05791  0.12581   1.117  2.825  0.000
   311C    -0.03823 -0.08425   1.086  2.953  0.000
   312C    -0.03957 -0.08502   1.090  2.949  0.000
   313C     0.06407  0.13499   1.129  2.806  0.000
   314N    -0.28491 -0.47104   1.293  3.992  0.000
   315H     0.03374  0.09184   0.966  0.000  0.000
   316H     0.02998  0.08883   0.970  0.000  0.000
   317H     0.16277  0.37071   0.837  0.000  0.000
   318H     0.02663  0.08456   0.973  0.000  0.000
   319H     0.03781  0.09606   0.962  0.000  0.000
   320H     0.22767  0.39994   0.772  0.000  0.000
   321H     0.03897  0.09801   0.961  0.000  0.000
   322H     0.02721  0.08511   0.973  0.000  0.000
   323H     0.02002  0.07881   0.980  0.000  0.000
   324H     0.02329  0.08133   0.977  0.000  0.000
   325H     0.03372  0.09183   0.966  0.000  0.000
   326H     0.02991  0.08876   0.970  0.000  0.000
   327H     0.16278  0.37074   0.837  0.000  0.000
   328H     0.02727  0.08523   0.973  0.000  0.000
   329H     0.03905  0.09808   0.961  0.000  0.000
   330H     0.22769  0.39997   0.772  0.000  0.000
   331H     0.03782  0.09608   0.962  0.000  0.000
   332H     0.02662  0.08453   0.973  0.000  0.000
   333H     0.01998  0.07879   0.980  0.000  0.000
   334H     0.02324  0.08131   0.977  0.000  0.000
   335C     0.01588  0.02309   1.083  2.901  0.000
   336C     0.06629  0.13126   1.109  2.825  0.000
   337C    -0.03473 -0.07917   1.079  2.956  0.000
   338C    -0.03294 -0.07790   1.076  2.957  0.000
   339C     0.06069  0.12401   1.098  2.842  0.000
   340N    -0.15616 -0.50852   1.314  3.842  0.000
   341C     0.01180  0.01745   1.094  2.894  0.000
   342C    -0.00273 -0.01141   1.072  2.930  0.000
   343C    -0.02286 -0.07608   1.078  2.945  0.000
   344C    -0.04137 -0.09339   1.067  2.974  0.000
   345C     0.08761  0.09964   1.124  2.788  0.000
   346O    -0.29668 -0.49627   1.631  4.666  0.000
   347C    -0.03471 -0.08540   1.081  2.954  0.000
   348C    -0.02281 -0.07594   1.077  2.946  0.000
   349C     0.05791  0.12584   1.117  2.825  0.000
   350C    -0.03824 -0.08424   1.086  2.952  0.000
   351C    -0.03962 -0.08507   1.090  2.949  0.000
   352N    -0.28486 -0.47111   1.293  3.992  0.000
   353C     0.06401  0.13492   1.129  2.807  0.000
   354C     0.01593  0.02314   1.083  2.901  0.000
   355C     0.06620  0.13117   1.109  2.825  0.000
   356C    -0.03482 -0.07926   1.079  2.956  0.000
   357C    -0.03300 -0.07796   1.076  2.957  0.000
   358C     0.06066  0.12399   1.098  2.842  0.000
   359N    -0.15605 -0.50843   1.314  3.842  0.000
   360C     0.01177  0.01742   1.094  2.894  0.000
   361C    -0.00275 -0.01142   1.072  2.930  0.000
   362C    -0.02277 -0.07588   1.077  2.946  0.000
   363C    -0.03469 -0.08538   1.081  2.954  0.000
   364C     0.08766  0.09970   1.124  2.788  0.000
   365O    -0.29662 -0.49622   1.631  4.666  0.000
   366C    -0.04136 -0.09338   1.067  2.974  0.000
   367C    -0.02280 -0.07607   1.078  2.945  0.000
   368C     0.05791  0.12581   1.117  2.825  0.000
   369C    -0.03820 -0.08422   1.086  2.952  0.000
   370C    -0.03957 -0.08501   1.090  2.949  0.000
   371C     0.06408  0.13501   1.129  2.806  0.000
   372N    -0.28494 -0.47110   1.293  3.992  0.000
   373H     0.03377  0.09188   0.966  0.000  0.000
   374H     0.03000  0.08885   0.970  0.000  0.000
   375H     0.16277  0.37071   0.837  0.000  0.000
   376H     0.02662  0.08455   0.973  0.000  0.000
   377H     0.03779  0.09604   0.962  0.000  0.000
   378H     0.22766  0.39993   0.772  0.000  0.000
   379H     0.03900  0.09804   0.961  0.000  0.000
   380H     0.02722  0.08513   0.973  0.000  0.000
   381H     0.01994  0.07873   0.980  0.000  0.000
   382H     0.02320  0.08125   0.977  0.000  0.000
   383H     0.03365  0.09176   0.966  0.000  0.000
   384H     0.02985  0.08870   0.970  0.000  0.000
   385H     0.16277  0.37073   0.837  0.000  0.000
   386H     0.02725  0.08521   0.973  0.000  0.000
   387H     0.03902  0.09805   0.961  0.000  0.000
   388H     0.22770  0.39998   0.772  0.000  0.000
   389H     0.03784  0.09609   0.962  0.000  0.000
   390H     0.02661  0.08453   0.973  0.000  0.000
   391H     0.02001  0.07882   0.980  0.000  0.000
   392H     0.02329  0.08135   0.977  0.000  0.000
   393C     0.01577  0.02298   1.083  2.901  0.000
   394C     0.06619  0.13117   1.109  2.825  0.000
   395C    -0.03490 -0.07933   1.079  2.956  0.000
   396C    -0.03309 -0.07804   1.075  2.958  0.000
   397C     0.06052  0.12385   1.098  2.842  0.000
   398N    -0.15614 -0.50851   1.314  3.842  0.000
   399C     0.01170  0.01735   1.094  2.894  0.000
   400C    -0.00271 -0.01138   1.072  2.930  0.000
   401C    -0.02290 -0.07614   1.078  2.945  0.000
   402C    -0.04144 -0.09346   1.067  2.974  0.000
   403C     0.08755  0.09958   1.124  2.788  0.000
   404O    -0.29675 -0.49635   1.631  4.666  0.000
   405C    -0.03471 -0.08540   1.081  2.954  0.000
   406C    -0.02279 -0.07589   1.077  2.946  0.000
   407C     0.05771  0.12563   1.117  2.826  0.000
   408C    -0.03838 -0.08439   1.086  2.953  0.000
   409C    -0.03990 -0.08535   1.090  2.950  0.000
   410N    -0.28515 -0.47132   1.293  3.992  0.000
   411C     0.06395  0.13486   1.129  2.807  0.000
   412C     0.01520  0.02241   1.083  2.902  0.000
   413C     0.06614  0.13111   1.109  2.825  0.000
   414C    -0.03520 -0.07963   1.079  2.957  0.000
   415C    -0.03317 -0.07813   1.075  2.958  0.000
   416C     0.06041  0.12373   1.098  2.842  0.000
   417N    -0.15624 -0.50860   1.314  3.843  0.000
   418C     0.01176  0.01740   1.094  2.894  0.000
   419C    -0.00271 -0.01138   1.072  2.930  0.000
   420C    -0.02281 -0.07594   1.077  2.946  0.000
   421C    -0.03477 -0.08546   1.081  2.954  0.000
   422C     0.08760  0.09963   1.124  2.788  0.000
   423O    -0.29670 -0.49629   1.631  4.666  0.000
   424C    -0.04136 -0.09338   1.067  2.974  0.000
   425C    -0.02278 -0.07602   1.078  2.945  0.000
   426C     0.05774  0.12566   1.117  2.826  0.000
   427C    -0.03829 -0.08431   1.086  2.953  0.000
   428C    -0.03968 -0.08513   1.090  2.950  0.000
   429C     0.06400  0.13492   1.129  2.807  0.000
   430N    -0.28496 -0.47119   1.293  3.992  0.000
   431H     0.03365  0.09176   0.966  0.000  0.000
   432H     0.02982  0.08867   0.970  0.000  0.000
   433H     0.16268  0.37063   0.837  0.000  0.000
   434H     0.02651  0.08441   0.973  0.000  0.000
   435H     0.03764  0.09589   0.962  0.000  0.000
   436H     0.22756  0.39984   0.772  0.000  0.000
   437H     0.03897  0.09800   0.961  0.000  0.000
   438H     0.02722  0.08515   0.973  0.000  0.000
   439H     0.01971  0.07851   0.980  0.000  0.000
   440H     0.02280  0.08086   0.977  0.000  0.000
   441H     0.03326  0.09137   0.967  0.000  0.000
   442H     0.02962  0.08848   0.970  0.000  0.000
   443H     0.16268  0.37063   0.837  0.000  0.000
   444H     0.02713  0.08506   0.973  0.000  0.000
   445H     0.03887  0.09790   0.961  0.000  0.000
   446H     0.22767  0.39994   0.772  0.000  0.000
   447H     0.03781  0.09606   0.962  0.000  0.000
   448H     0.02659  0.08454   0.973  0.000  0.000
   449H     0.01988  0.07868   0.980  0.000  0.000
   450H     0.02321  0.08126   0.977  0.000  0.000
   451C     0.01657  0.02378   1.084  2.900  0.000
   452C     0.06624  0.13121   1.109  2.825  0.000
   453C    -0.03449 -0.07892   1.079  2.956  0.000
   454C    -0.03302 -0.07798   1.075  2.958  0.000
   455C     0.06086  0.12419   1.098  2.841  0.000
   456N    -0.15602 -0.50839   1.314  3.842  0.000
   457C     0.01121  0.01687   1.094  2.895  0.000
   458C    -0.00282 -0.01149   1.072  2.930  0.000
   459C    -0.02300 -0.07625   1.078  2.945  0.000
   460C    -0.04148 -0.09350   1.067  2.974  0.000
   461C     0.08756  0.09959   1.124  2.788  0.000
   462O    -0.29667 -0.49626   1.631  4.666  0.000
   463C    -0.03469 -0.08537   1.081  2.953  0.000
   464C    -0.02283 -0.07593   1.077  2.946  0.000
   465C     0.05817  0.12624   1.117  2.825  0.000
   466C    -0.03820 -0.08422   1.086  2.952  0.000
   467C    -0.03982 -0.08528   1.090  2.950  0.000
   468N    -0.28562 -0.47178   1.292  3.993  0.000
   469C     0.06383  0.13457   1.129  2.807  0.000
   470C     0.01439  0.02161   1.082  2.904  0.000
   471C     0.06610  0.13100   1.109  2.825  0.000
   472C    -0.03524 -0.07968   1.079  2.957  0.000
   473C    -0.03296 -0.07792   1.076  2.957  0.000
   474C     0.06069  0.12406   1.098  2.841  0.000
   475N    -0.15665 -0.50898   1.313  3.843  0.000
   476C     0.01167  0.01732   1.094  2.894  0.000
   477C    -0.00280 -0.01148   1.072  2.931  0.000
   478C    -0.02296 -0.07609   1.077  2.946  0.000
   479C    -0.03481 -0.08550   1.081  2.954  0.000
   480C     0.08767  0.09970   1.124  2.788  0.000
   481O    -0.29659 -0.49618   1.631  4.666  0.000
   482C    -0.04126 -0.09328   1.067  2.974  0.000
   483C    -0.02279 -0.07602   1.078  2.945  0.000
   484C     0.05797  0.12591   1.117  2.825  0.000
   485C    -0.03824 -0.08425   1.086  2.953  0.000
   486C    -0.03940 -0.08484   1.090  2.949  0.000
   487C     0.06408  0.13498   1.129  2.807  0.000
   488N    -0.28468 -0.47095   1.293  3.992  0.000
   489H     0.03413  0.09223   0.966  0.000  0.000
   490H     0.03011  0.08895   0.970  0.000  0.000
   491H     0.16272  0.37069   0.837  0.000  0.000
   492H     0.02642  0.08434   0.974  0.000  0.000
   493H     0.03768  0.09594   0.962  0.000  0.000
   494H     0.22764  0.39992   0.772  0.000  0.000
   495H     0.03914  0.09818   0.961  0.000  0.000
   496H     0.02732  0.08526   0.973  0.000  0.000
   497H     0.01986  0.07866   0.980  0.000  0.000
   498H     0.02271  0.08077   0.977  0.000  0.000
   499H     0.03283  0.09093   0.967  0.000  0.000
   500H     0.02984  0.08870   0.970  0.000  0.000
   501H     0.16282  0.37078   0.837  0.000  0.000
   502H     0.02698  0.08490   0.973  0.000  0.000
   503H     0.03889  0.09792   0.961  0.000  0.000
   504H     0.22789  0.40017   0.772  0.000  0.000
   505H     0.03808  0.09634   0.962  0.000  0.000
   506H     0.02678  0.08472   0.973  0.000  0.000
   507H     0.02019  0.07899   0.980  0.000  0.000
   508H     0.02367  0.08173   0.976  0.000  0.000

Wiberg/Mayer (AO) data.
largest (>0.10) Wiberg bond orders for each atom

 ---------------------------------------------------------------------------
     #   Z sym  total        # sym  WBO       # sym  WBO       # sym  WBO
 ---------------------------------------------------------------------------
     1   6 C    3.817 --    37 C    1.385     2 C    1.373    39 H    0.996
     2   6 C    3.925 --     1 C    1.373     3 C    1.240     6 N    1.229
     3   6 C    3.839 --     4 C    1.599     2 C    1.240    40 H    0.992
     4   6 C    3.827 --     3 C    1.599     5 C    1.252    41 H    0.999
     5   6 C    3.901 --     7 C    1.342     4 C    1.252     6 N    1.230
     6   7 N    3.248 --     5 C    1.230     2 C    1.229    42 H    0.961
     7   6 C    3.846 --    15 C    1.367     5 C    1.342     8 C    1.053
     8   6 C    3.876 --     9 C    1.416    14 C    1.409     7 C    1.053
     9   6 C    3.867 --    10 C    1.449     8 C    1.416    43 H    0.989
    10   6 C    3.873 --     9 C    1.449    11 C    1.394    44 H    0.981
    11   6 C    3.970 --    10 C    1.394    13 C    1.385    12 O    1.127
    12   8 O    2.171 --    11 C    1.127    45 H    0.964
    13   6 C    3.905 --    14 C    1.457    11 C    1.385    46 H    0.983
    14   6 C    3.865 --    13 C    1.457     8 C    1.409    47 H    0.990
    15   6 C    3.927 --     7 C    1.367    18 N    1.356    16 C    1.162
    16   6 C    3.841 --    17 C    1.693    15 C    1.162    48 H    0.999
    17   6 C    3.853 --    16 C    1.693    19 C    1.165    49 H    0.999
    18   7 N    2.568 --    19 C    1.411    15 C    1.356
    19   6 C    3.944 --    18 N    1.411    20 C    1.290    17 C    1.165
    20   6 C    3.853 --    21 C    1.290    19 C    1.290   122 C    1.215
    21   6 C    3.905 --    20 C    1.290    22 C    1.265    25 N    1.249
    22   6 C    3.837 --    23 C    1.586    21 C    1.265    50 H    0.998
    23   6 C    3.821 --    22 C    1.586    24 C    1.257    51 H    0.998
    24   6 C    3.896 --    26 C    1.346    23 C    1.257    25 N    1.222
    25   7 N    3.259 --    21 C    1.249    24 C    1.222    52 H    0.959
    26   6 C    3.834 --    34 C    1.355    24 C    1.346    27 C    1.054
    27   6 C    3.876 --    33 C    1.416    28 C    1.408    26 C    1.054
    28   6 C    3.865 --    29 C    1.458    27 C    1.408    53 H    0.990
    29   6 C    3.905 --    28 C    1.458    30 C    1.384    54 H    0.982
    30   6 C    3.970 --    32 C    1.394    29 C    1.384    31 O    1.127
    31   8 O    2.172 --    30 C    1.127    55 H    0.964
    32   6 C    3.873 --    33 C    1.448    30 C    1.394    56 H    0.982
    33   6 C    3.868 --    32 C    1.448    27 C    1.416    57 H    0.989
    34   6 C    3.946 --    38 N    1.382    26 C    1.355    35 C    1.155
    35   6 C    3.845 --    36 C    1.706    34 C    1.155    58 H    1.000
    36   6 C    3.863 --    35 C    1.706    37 C    1.148    59 H    0.993
    37   6 C    3.968 --     1 C    1.385    38 N    1.374    36 C    1.148
    38   7 N    2.556 --    34 C    1.382    37 C    1.374
    39   1 H    1.032 --     1 C    0.996
    40   1 H    1.016 --     3 C    0.992
    41   1 H    1.032 --     4 C    0.999
    42   1 H    1.082 --     6 N    0.961
    43   1 H    1.049 --     9 C    0.989
    44   1 H    1.013 --    10 C    0.981
    45   1 H    1.004 --    12 O    0.964
    46   1 H    1.023 --    13 C    0.983
    47   1 H    1.046 --    14 C    0.990
    48   1 H    1.034 --    16 C    0.999
    49   1 H    1.032 --    17 C    0.999
    50   1 H    1.028 --    22 C    0.998
    51   1 H    1.032 --    23 C    0.998
    52   1 H    1.086 --    25 N    0.959
    53   1 H    1.046 --    28 C    0.990
    54   1 H    1.023 --    29 C    0.982
    55   1 H    1.004 --    31 O    0.964
    56   1 H    1.013 --    32 C    0.982
    57   1 H    1.048 --    33 C    0.989
    58   1 H    1.035 --    35 C    1.000
    59   1 H    1.019 --    36 C    0.993
    60   6 C    3.819 --    96 C    1.385    61 C    1.374    98 H    0.996
    61   6 C    3.925 --    60 C    1.374    62 C    1.240    65 N    1.229
    62   6 C    3.842 --    63 C    1.600    61 C    1.240    99 H    0.992
    63   6 C    3.827 --    62 C    1.600    64 C    1.251   100 H    0.999
    64   6 C    3.902 --    66 C    1.342    63 C    1.251    65 N    1.231
    65   7 N    3.249 --    64 C    1.231    61 C    1.229   101 H    0.961
    66   6 C    3.846 --    74 C    1.367    64 C    1.342    67 C    1.052
    67   6 C    3.876 --    68 C    1.417    73 C    1.409    66 C    1.052
    68   6 C    3.869 --    69 C    1.449    67 C    1.417   102 H    0.989
    69   6 C    3.873 --    68 C    1.449    70 C    1.394   103 H    0.981
    70   6 C    3.970 --    69 C    1.394    72 C    1.385    71 O    1.127
    71   8 O    2.171 --    70 C    1.127   104 H    0.964
    72   6 C    3.905 --    73 C    1.457    70 C    1.385   105 H    0.982
    73   6 C    3.865 --    72 C    1.457    67 C    1.409   106 H    0.990
    74   6 C    3.928 --    66 C    1.367    77 N    1.357    75 C    1.161
    75   6 C    3.841 --    76 C    1.694    74 C    1.161   107 H    0.999
    76   6 C    3.854 --    75 C    1.694    78 C    1.165   108 H    0.999
    77   7 N    2.569 --    78 C    1.410    74 C    1.357
    78   6 C    3.945 --    77 N    1.410    79 C    1.292    76 C    1.165
    79   6 C    3.855 --    80 C    1.292    78 C    1.292   160 C    1.211
    80   6 C    3.906 --    79 C    1.292    81 C    1.263    84 N    1.249
    81   6 C    3.838 --    82 C    1.588    80 C    1.263   109 H    0.998
    82   6 C    3.822 --    81 C    1.588    83 C    1.256   110 H    0.998
    83   6 C    3.897 --    85 C    1.348    82 C    1.256    84 N    1.222
    84   7 N    3.259 --    80 C    1.249    83 C    1.222   111 H    0.959
    85   6 C    3.835 --    93 C    1.354    83 C    1.348    86 C    1.053
    86   6 C    3.876 --    92 C    1.416    87 C    1.408    85 C    1.053
    87   6 C    3.865 --    88 C    1.457    86 C    1.408   112 H    0.990
    88   6 C    3.905 --    87 C    1.457    89 C    1.384   113 H    0.982
    89   6 C    3.970 --    91 C    1.394    88 C    1.384    90 O    1.127
    90   8 O    2.172 --    89 C    1.127   114 H    0.964
    91   6 C    3.873 --    92 C    1.448    89 C    1.394   115 H    0.981
    92   6 C    3.868 --    91 C    1.448    86 C    1.416   116 H    0.989
    93   6 C    3.946 --    97 N    1.383    85 C    1.354    94 C    1.155
    94   6 C    3.845 --    95 C    1.706    93 C    1.155   117 H    1.000
    95   6 C    3.864 --    94 C    1.706    96 C    1.147   118 H    0.993
    96   6 C    3.968 --    60 C    1.385    97 N    1.374    95 C    1.147
    97   7 N    2.558 --    93 C    1.383    96 C    1.374
    98   1 H    1.032 --    60 C    0.996
    99   1 H    1.016 --    62 C    0.992
   100   1 H    1.032 --    63 C    0.999
   101   1 H    1.082 --    65 N    0.961
   102   1 H    1.049 --    68 C    0.989
   103   1 H    1.012 --    69 C    0.981
   104   1 H    1.004 --    71 O    0.964
   105   1 H    1.023 --    72 C    0.982
   106   1 H    1.045 --    73 C    0.990
   107   1 H    1.034 --    75 C    0.999
   108   1 H    1.032 --    76 C    0.999
   109   1 H    1.028 --    81 C    0.998
   110   1 H    1.032 --    82 C    0.998
   111   1 H    1.086 --    84 N    0.959
   112   1 H    1.046 --    87 C    0.990
   113   1 H    1.023 --    88 C    0.982
   114   1 H    1.004 --    90 O    0.964
   115   1 H    1.013 --    91 C    0.981
   116   1 H    1.048 --    92 C    0.989
   117   1 H    1.035 --    94 C    1.000
   118   1 H    1.019 --    95 C    0.993
   119   6 C    3.836 --   120 C    2.381   123 C    1.352   122 C    0.171
   120   6 C    3.833 --   119 C    2.381   121 C    1.350   124 C    0.171
   121   6 C    3.810 --   122 C    2.479   120 C    1.350
   122   6 C    3.767 --   121 C    2.479    20 C    1.215   119 C    0.171
   123   6 C    3.805 --   124 C    2.475   119 C    1.352
   124   6 C    3.770 --   123 C    2.475   161 C    1.220   120 C    0.171
   125   6 C    3.834 --   126 C    2.368   129 C    1.362   128 C    0.170
   126   6 C    3.834 --   125 C    2.368   127 C    1.362   130 C    0.170
   127   6 C    3.804 --   128 C    2.464   126 C    1.362
   128   6 C    3.767 --   127 C    2.464   180 C    1.229   125 C    0.170
   129   6 C    3.804 --   130 C    2.464   125 C    1.362
   130   6 C    3.768 --   129 C    2.464   219 C    1.229   126 C    0.170
   131   6 C    3.834 --   132 C    2.368   135 C    1.362   134 C    0.170
   132   6 C    3.834 --   131 C    2.368   133 C    1.362   136 C    0.170
   133   6 C    3.804 --   134 C    2.464   132 C    1.362
   134   6 C    3.768 --   133 C    2.464   238 C    1.229   131 C    0.170
   135   6 C    3.804 --   136 C    2.464   131 C    1.362
   136   6 C    3.768 --   135 C    2.464   277 C    1.229   132 C    0.170
   137   6 C    3.834 --   138 C    2.369   141 C    1.362   140 C    0.171
   138   6 C    3.834 --   137 C    2.369   139 C    1.362   142 C    0.171
   139   6 C    3.804 --   140 C    2.465   138 C    1.362
   140   6 C    3.768 --   139 C    2.465   296 C    1.228   137 C    0.171
   141   6 C    3.804 --   142 C    2.465   137 C    1.362
   142   6 C    3.768 --   141 C    2.465   335 C    1.228   138 C    0.171
   143   6 C    3.834 --   144 C    2.368   147 C    1.362   146 C    0.170
   144   6 C    3.834 --   143 C    2.368   145 C    1.362   148 C    0.170
   145   6 C    3.804 --   146 C    2.464   144 C    1.362
   146   6 C    3.768 --   145 C    2.464   354 C    1.229   143 C    0.170
   147   6 C    3.804 --   148 C    2.464   143 C    1.362
   148   6 C    3.768 --   147 C    2.464   393 C    1.229   144 C    0.170
   149   6 C    3.834 --   150 C    2.368   153 C    1.362   152 C    0.170
   150   6 C    3.834 --   149 C    2.368   151 C    1.362   154 C    0.170
   151   6 C    3.803 --   152 C    2.464   150 C    1.362
   152   6 C    3.768 --   151 C    2.464   412 C    1.229   149 C    0.170
   153   6 C    3.804 --   154 C    2.464   149 C    1.362
   154   6 C    3.767 --   153 C    2.464   451 C    1.229   150 C    0.170
   155   6 C    3.832 --   156 C    2.386   159 C    1.346   158 C    0.171
   156   6 C    3.836 --   155 C    2.386   157 C    1.348   160 C    0.172
   157   6 C    3.805 --   158 C    2.479   156 C    1.348
   158   6 C    3.770 --   157 C    2.479   470 C    1.216   155 C    0.171
   159   6 C    3.811 --   160 C    2.484   155 C    1.346
   160   6 C    3.767 --   159 C    2.484    79 C    1.211   156 C    0.172
   161   6 C    3.831 --   197 C    1.285   162 C    1.283   124 C    1.220
   162   6 C    3.906 --   161 C    1.283   163 C    1.270   166 N    1.251
   163   6 C    3.829 --   164 C    1.579   162 C    1.270   199 H    0.998
   164   6 C    3.823 --   163 C    1.579   165 C    1.264   200 H    0.999
   165   6 C    3.888 --   167 C    1.338   164 C    1.264   166 N    1.220
   166   7 N    3.250 --   162 C    1.251   165 C    1.220   201 H    0.961
   167   6 C    3.837 --   175 C    1.372   165 C    1.338   168 C    1.050
   168   6 C    3.876 --   169 C    1.418   174 C    1.410   167 C    1.050
   169   6 C    3.868 --   170 C    1.448   168 C    1.418   202 H    0.989
   170   6 C    3.873 --   169 C    1.448   171 C    1.394   203 H    0.982
   171   6 C    3.970 --   170 C    1.394   173 C    1.385   172 O    1.126
   172   8 O    2.170 --   171 C    1.126   204 H    0.964
   173   6 C    3.904 --   174 C    1.456   171 C    1.385   205 H    0.983
   174   6 C    3.866 --   173 C    1.456   168 C    1.410   206 H    0.990
   175   6 C    3.924 --   167 C    1.372   178 N    1.351   176 C    1.163
   176   6 C    3.840 --   177 C    1.691   175 C    1.163   207 H    1.000
   177   6 C    3.850 --   176 C    1.691   179 C    1.168   208 H    0.999
   178   7 N    2.553 --   179 C    1.417   175 C    1.351
   179   6 C    3.943 --   178 N    1.417   180 C    1.282   177 C    1.168
   180   6 C    3.831 --   179 C    1.282   181 C    1.280   128 C    1.229
   181   6 C    3.904 --   180 C    1.280   182 C    1.272   185 N    1.252
   182   6 C    3.830 --   183 C    1.577   181 C    1.272   209 H    0.998
   183   6 C    3.821 --   182 C    1.577   184 C    1.265   210 H    0.999
   184   6 C    3.888 --   186 C    1.336   183 C    1.265   185 N    1.221
   185   7 N    3.252 --   181 C    1.252   184 C    1.221   211 H    0.961
   186   6 C    3.835 --   194 C    1.373   184 C    1.336   187 C    1.051
   187   6 C    3.876 --   193 C    1.418   188 C    1.410   186 C    1.051
   188   6 C    3.865 --   189 C    1.457   187 C    1.410   212 H    0.990
   189   6 C    3.904 --   188 C    1.457   190 C    1.385   213 H    0.983
   190   6 C    3.970 --   192 C    1.394   189 C    1.385   191 O    1.126
   191   8 O    2.171 --   190 C    1.126   214 H    0.964
   192   6 C    3.873 --   193 C    1.448   190 C    1.394   215 H    0.982
   193   6 C    3.868 --   192 C    1.448   187 C    1.418   216 H    0.989
   194   6 C    3.926 --   186 C    1.373   198 N    1.352   195 C    1.162
   195   6 C    3.841 --   196 C    1.692   194 C    1.162   217 H    1.000
   196   6 C    3.850 --   195 C    1.692   197 C    1.167   218 H    0.999
   197   6 C    3.945 --   198 N    1.414   161 C    1.285   196 C    1.167
   198   7 N    2.550 --   197 C    1.414   194 C    1.352
   199   1 H    1.029 --   163 C    0.998
   200   1 H    1.031 --   164 C    0.999
   201   1 H    1.084 --   166 N    0.961
   202   1 H    1.048 --   169 C    0.989
   203   1 H    1.013 --   170 C    0.982
   204   1 H    1.005 --   172 O    0.964
   205   1 H    1.023 --   173 C    0.983
   206   1 H    1.046 --   174 C    0.990
   207   1 H    1.036 --   176 C    1.000
   208   1 H    1.032 --   177 C    0.999
   209   1 H    1.028 --   182 C    0.998
   210   1 H    1.032 --   183 C    0.999
   211   1 H    1.084 --   185 N    0.961
   212   1 H    1.046 --   188 C    0.990
   213   1 H    1.023 --   189 C    0.983
   214   1 H    1.005 --   191 O    0.964
   215   1 H    1.013 --   192 C    0.982
   216   1 H    1.048 --   193 C    0.989
   217   1 H    1.036 --   195 C    1.000
   218   1 H    1.032 --   196 C    0.999
   219   6 C    3.830 --   255 C    1.281   220 C    1.279   130 C    1.229
   220   6 C    3.904 --   219 C    1.279   221 C    1.272   224 N    1.252
   221   6 C    3.830 --   222 C    1.577   220 C    1.272   257 H    0.998
   222   6 C    3.822 --   221 C    1.577   223 C    1.265   258 H    0.999
   223   6 C    3.888 --   225 C    1.337   222 C    1.265   224 N    1.221
   224   7 N    3.251 --   220 C    1.252   223 C    1.221   259 H    0.961
   225   6 C    3.835 --   233 C    1.374   223 C    1.337   226 C    1.050
   226   6 C    3.876 --   227 C    1.418   232 C    1.410   225 C    1.050
   227   6 C    3.868 --   228 C    1.448   226 C    1.418   260 H    0.989
   228   6 C    3.873 --   227 C    1.448   229 C    1.394   261 H    0.982
   229   6 C    3.970 --   228 C    1.394   231 C    1.385   230 O    1.126
   230   8 O    2.170 --   229 C    1.126   262 H    0.964
   231   6 C    3.904 --   232 C    1.456   229 C    1.385   263 H    0.983
   232   6 C    3.866 --   231 C    1.456   226 C    1.410   264 H    0.990
   233   6 C    3.925 --   225 C    1.374   236 N    1.350   234 C    1.163
   234   6 C    3.841 --   235 C    1.691   233 C    1.163   265 H    1.000
   235   6 C    3.850 --   234 C    1.691   237 C    1.168   266 H    0.999
   236   7 N    2.551 --   237 C    1.417   233 C    1.350
   237   6 C    3.944 --   236 N    1.417   238 C    1.281   235 C    1.168
   238   6 C    3.831 --   237 C    1.281   239 C    1.279   134 C    1.229
   239   6 C    3.905 --   238 C    1.279   240 C    1.272   243 N    1.252
   240   6 C    3.830 --   241 C    1.577   239 C    1.272   267 H    0.998
   241   6 C    3.820 --   240 C    1.577   242 C    1.265   268 H    0.999
   242   6 C    3.888 --   244 C    1.337   241 C    1.265   243 N    1.221
   243   7 N    3.251 --   239 C    1.252   242 C    1.221   269 H    0.961
   244   6 C    3.835 --   252 C    1.373   242 C    1.337   245 C    1.051
   245   6 C    3.876 --   251 C    1.418   246 C    1.410   244 C    1.051
   246   6 C    3.865 --   247 C    1.457   245 C    1.410   270 H    0.990
   247   6 C    3.904 --   246 C    1.457   248 C    1.385   271 H    0.983
   248   6 C    3.970 --   250 C    1.394   247 C    1.385   249 O    1.126
   249   8 O    2.170 --   248 C    1.126   272 H    0.964
   250   6 C    3.873 --   251 C    1.448   248 C    1.394   273 H    0.982
   251   6 C    3.868 --   250 C    1.448   245 C    1.418   274 H    0.989
   252   6 C    3.925 --   244 C    1.373   256 N    1.350   253 C    1.163
   253   6 C    3.841 --   254 C    1.691   252 C    1.163   275 H    1.000
   254   6 C    3.850 --   253 C    1.691   255 C    1.168   276 H    0.999
   255   6 C    3.944 --   256 N    1.417   219 C    1.281   254 C    1.168
   256   7 N    2.551 --   255 C    1.417   252 C    1.350
   257   1 H    1.028 --   221 C    0.998
   258   1 H    1.031 --   222 C    0.999
   259   1 H    1.084 --   224 N    0.961
   260   1 H    1.048 --   227 C    0.989
   261   1 H    1.013 --   228 C    0.982
   262   1 H    1.005 --   230 O    0.964
   263   1 H    1.023 --   231 C    0.983
   264   1 H    1.046 --   232 C    0.990
   265   1 H    1.036 --   234 C    1.000
   266   1 H    1.033 --   235 C    0.999
   267   1 H    1.028 --   240 C    0.998
   268   1 H    1.031 --   241 C    0.999
   269   1 H    1.084 --   243 N    0.961
   270   1 H    1.046 --   246 C    0.990
   271   1 H    1.023 --   247 C    0.983
   272   1 H    1.005 --   249 O    0.964
   273   1 H    1.013 --   250 C    0.982
   274   1 H    1.048 --   251 C    0.989
   275   1 H    1.035 --   253 C    1.000
   276   1 H    1.033 --   254 C    0.999
   277   6 C    3.832 --   313 C    1.281   278 C    1.280   136 C    1.229
   278   6 C    3.905 --   277 C    1.280   279 C    1.271   282 N    1.252
   279   6 C    3.831 --   280 C    1.578   278 C    1.271   315 H    0.998
   280   6 C    3.822 --   279 C    1.578   281 C    1.265   316 H    0.999
   281   6 C    3.888 --   283 C    1.337   280 C    1.265   282 N    1.221
   282   7 N    3.251 --   278 C    1.252   281 C    1.221   317 H    0.961
   283   6 C    3.835 --   291 C    1.373   281 C    1.337   284 C    1.050
   284   6 C    3.876 --   285 C    1.418   290 C    1.411   283 C    1.050
   285   6 C    3.868 --   286 C    1.448   284 C    1.418   318 H    0.989
   286   6 C    3.873 --   285 C    1.448   287 C    1.394   319 H    0.981
   287   6 C    3.970 --   286 C    1.394   289 C    1.385   288 O    1.126
   288   8 O    2.171 --   287 C    1.126   320 H    0.964
   289   6 C    3.904 --   290 C    1.456   287 C    1.385   321 H    0.983
   290   6 C    3.865 --   289 C    1.456   284 C    1.411   322 H    0.990
   291   6 C    3.925 --   283 C    1.373   294 N    1.351   292 C    1.163
   292   6 C    3.841 --   293 C    1.691   291 C    1.163   323 H    1.000
   293   6 C    3.851 --   292 C    1.691   295 C    1.168   324 H    0.999
   294   7 N    2.552 --   295 C    1.416   291 C    1.351
   295   6 C    3.944 --   294 N    1.416   296 C    1.282   293 C    1.168
   296   6 C    3.832 --   295 C    1.282   297 C    1.280   140 C    1.228
   297   6 C    3.905 --   296 C    1.280   298 C    1.271   301 N    1.252
   298   6 C    3.830 --   299 C    1.577   297 C    1.271   325 H    0.998
   299   6 C    3.820 --   298 C    1.577   300 C    1.265   326 H    0.999
   300   6 C    3.888 --   302 C    1.336   299 C    1.265   301 N    1.221
   301   7 N    3.251 --   297 C    1.252   300 C    1.221   327 H    0.961
   302   6 C    3.836 --   310 C    1.373   300 C    1.336   303 C    1.051
   303   6 C    3.876 --   309 C    1.418   304 C    1.409   302 C    1.051
   304   6 C    3.866 --   305 C    1.457   303 C    1.409   328 H    0.990
   305   6 C    3.905 --   304 C    1.457   306 C    1.384   329 H    0.983
   306   6 C    3.970 --   308 C    1.394   305 C    1.384   307 O    1.126
   307   8 O    2.170 --   306 C    1.126   330 H    0.964
   308   6 C    3.873 --   309 C    1.448   306 C    1.394   331 H    0.982
   309   6 C    3.868 --   308 C    1.448   303 C    1.418   332 H    0.989
   310   6 C    3.925 --   302 C    1.373   314 N    1.350   311 C    1.163
   311   6 C    3.841 --   312 C    1.691   310 C    1.163   333 H    1.000
   312   6 C    3.851 --   311 C    1.691   313 C    1.167   334 H    0.999
   313   6 C    3.944 --   314 N    1.417   277 C    1.281   312 C    1.167
   314   7 N    2.553 --   313 C    1.417   310 C    1.350
   315   1 H    1.028 --   279 C    0.998
   316   1 H    1.032 --   280 C    0.999
   317   1 H    1.084 --   282 N    0.961
   318   1 H    1.048 --   285 C    0.989
   319   1 H    1.013 --   286 C    0.981
   320   1 H    1.005 --   288 O    0.964
   321   1 H    1.023 --   289 C    0.983
   322   1 H    1.046 --   290 C    0.990
   323   1 H    1.036 --   292 C    1.000
   324   1 H    1.032 --   293 C    0.999
   325   1 H    1.028 --   298 C    0.998
   326   1 H    1.031 --   299 C    0.999
   327   1 H    1.084 --   301 N    0.961
   328   1 H    1.046 --   304 C    0.990
   329   1 H    1.023 --   305 C    0.983
   330   1 H    1.005 --   307 O    0.964
   331   1 H    1.013 --   308 C    0.982
   332   1 H    1.048 --   309 C    0.989
   333   1 H    1.035 --   311 C    1.000
   334   1 H    1.033 --   312 C    0.999
   335   6 C    3.832 --   371 C    1.282   336 C    1.280   142 C    1.228
   336   6 C    3.905 --   335 C    1.280   337 C    1.271   340 N    1.252
   337   6 C    3.830 --   338 C    1.578   336 C    1.271   373 H    0.998
   338   6 C    3.822 --   337 C    1.578   339 C    1.265   374 H    0.999
   339   6 C    3.888 --   341 C    1.337   338 C    1.265   340 N    1.221
   340   7 N    3.251 --   336 C    1.252   339 C    1.221   375 H    0.961
   341   6 C    3.835 --   349 C    1.373   339 C    1.337   342 C    1.050
   342   6 C    3.876 --   343 C    1.418   348 C    1.410   341 C    1.050
   343   6 C    3.868 --   344 C    1.448   342 C    1.418   376 H    0.989
   344   6 C    3.873 --   343 C    1.448   345 C    1.394   377 H    0.981
   345   6 C    3.970 --   344 C    1.394   347 C    1.385   346 O    1.126
   346   8 O    2.170 --   345 C    1.126   378 H    0.964
   347   6 C    3.904 --   348 C    1.456   345 C    1.385   379 H    0.983
   348   6 C    3.865 --   347 C    1.456   342 C    1.410   380 H    0.990
   349   6 C    3.925 --   341 C    1.373   352 N    1.351   350 C    1.163
   350   6 C    3.841 --   351 C    1.691   349 C    1.163   381 H    1.000
   351   6 C    3.851 --   350 C    1.691   353 C    1.168   382 H    0.999
   352   7 N    2.552 --   353 C    1.417   349 C    1.351
   353   6 C    3.944 --   352 N    1.417   354 C    1.282   351 C    1.168
   354   6 C    3.832 --   353 C    1.282   355 C    1.279   146 C    1.229
   355   6 C    3.905 --   354 C    1.279   356 C    1.272   359 N    1.252
   356   6 C    3.830 --   357 C    1.577   355 C    1.272   383 H    0.998
   357   6 C    3.820 --   356 C    1.577   358 C    1.265   384 H    0.999
   358   6 C    3.888 --   360 C    1.336   357 C    1.265   359 N    1.221
   359   7 N    3.251 --   355 C    1.252   358 C    1.221   385 H    0.961
   360   6 C    3.835 --   368 C    1.373   358 C    1.336   361 C    1.051
   361   6 C    3.876 --   367 C    1.418   362 C    1.409   360 C    1.051
   362   6 C    3.865 --   363 C    1.457   361 C    1.409   386 H    0.990
   363   6 C    3.905 --   362 C    1.457   364 C    1.384   387 H    0.983
   364   6 C    3.970 --   366 C    1.394   363 C    1.384   365 O    1.126
   365   8 O    2.170 --   364 C    1.126   388 H    0.964
   366   6 C    3.873 --   367 C    1.448   364 C    1.394   389 H    0.982
   367   6 C    3.868 --   366 C    1.448   361 C    1.418   390 H    0.989
   368   6 C    3.925 --   360 C    1.373   372 N    1.350   369 C    1.163
   369   6 C    3.841 --   370 C    1.691   368 C    1.163   391 H    1.000
   370   6 C    3.851 --   369 C    1.691   371 C    1.167   392 H    0.999
   371   6 C    3.944 --   372 N    1.417   335 C    1.282   370 C    1.167
   372   7 N    2.552 --   371 C    1.417   368 C    1.350
   373   1 H    1.028 --   337 C    0.998
   374   1 H    1.031 --   338 C    0.999
   375   1 H    1.084 --   340 N    0.961
   376   1 H    1.048 --   343 C    0.989
   377   1 H    1.013 --   344 C    0.981
   378   1 H    1.005 --   346 O    0.964
   379   1 H    1.023 --   347 C    0.983
   380   1 H    1.046 --   348 C    0.990
   381   1 H    1.036 --   350 C    1.000
   382   1 H    1.033 --   351 C    0.999
   383   1 H    1.028 --   356 C    0.998
   384   1 H    1.031 --   357 C    0.999
   385   1 H    1.084 --   359 N    0.961
   386   1 H    1.046 --   362 C    0.990
   387   1 H    1.023 --   363 C    0.983
   388   1 H    1.005 --   365 O    0.964
   389   1 H    1.013 --   366 C    0.982
   390   1 H    1.048 --   367 C    0.989
   391   1 H    1.035 --   369 C    1.000
   392   1 H    1.032 --   370 C    0.999
   393   6 C    3.830 --   429 C    1.281   394 C    1.279   148 C    1.229
   394   6 C    3.904 --   393 C    1.279   395 C    1.272   398 N    1.252
   395   6 C    3.830 --   396 C    1.577   394 C    1.272   431 H    0.998
   396   6 C    3.820 --   395 C    1.577   397 C    1.265   432 H    0.999
   397   6 C    3.888 --   399 C    1.336   396 C    1.265   398 N    1.221
   398   7 N    3.251 --   394 C    1.252   397 C    1.221   433 H    0.961
   399   6 C    3.835 --   407 C    1.374   397 C    1.336   400 C    1.050
   400   6 C    3.876 --   401 C    1.418   406 C    1.410   399 C    1.050
   401   6 C    3.868 --   402 C    1.448   400 C    1.418   434 H    0.989
   402   6 C    3.873 --   401 C    1.448   403 C    1.395   435 H    0.982
   403   6 C    3.970 --   402 C    1.395   405 C    1.385   404 O    1.126
   404   8 O    2.170 --   403 C    1.126   436 H    0.964
   405   6 C    3.905 --   406 C    1.457   403 C    1.385   437 H    0.983
   406   6 C    3.866 --   405 C    1.457   400 C    1.410   438 H    0.990
   407   6 C    3.925 --   399 C    1.374   410 N    1.349   408 C    1.163
   408   6 C    3.841 --   409 C    1.691   407 C    1.163   439 H    1.000
   409   6 C    3.850 --   408 C    1.691   411 C    1.167   440 H    0.999
   410   7 N    2.551 --   411 C    1.418   407 C    1.349
   411   6 C    3.944 --   410 N    1.418   412 C    1.281   409 C    1.167
   412   6 C    3.830 --   411 C    1.281   413 C    1.279   152 C    1.229
   413   6 C    3.904 --   412 C    1.279   414 C    1.272   417 N    1.252
   414   6 C    3.829 --   415 C    1.577   413 C    1.272   441 H    0.998
   415   6 C    3.820 --   414 C    1.577   416 C    1.265   442 H    0.999
   416   6 C    3.888 --   418 C    1.337   415 C    1.265   417 N    1.221
   417   7 N    3.251 --   413 C    1.252   416 C    1.221   443 H    0.961
   418   6 C    3.835 --   426 C    1.373   416 C    1.337   419 C    1.051
   419   6 C    3.876 --   425 C    1.418   420 C    1.410   418 C    1.051
   420   6 C    3.865 --   421 C    1.457   419 C    1.410   444 H    0.990
   421   6 C    3.904 --   420 C    1.457   422 C    1.385   445 H    0.983
   422   6 C    3.970 --   424 C    1.394   421 C    1.385   423 O    1.126
   423   8 O    2.170 --   422 C    1.126   446 H    0.964
   424   6 C    3.873 --   425 C    1.448   422 C    1.394   447 H    0.982
   425   6 C    3.868 --   424 C    1.448   419 C    1.418   448 H    0.989
   426   6 C    3.925 --   418 C    1.373   430 N    1.350   427 C    1.163
   427   6 C    3.841 --   428 C    1.691   426 C    1.163   449 H    1.000
   428   6 C    3.850 --   427 C    1.691   429 C    1.168   450 H    0.999
   429   6 C    3.944 --   430 N    1.417   393 C    1.281   428 C    1.168
   430   7 N    2.551 --   429 C    1.417   426 C    1.350
   431   1 H    1.028 --   395 C    0.998
   432   1 H    1.031 --   396 C    0.999
   433   1 H    1.084 --   398 N    0.961
   434   1 H    1.048 --   401 C    0.989
   435   1 H    1.013 --   402 C    0.982
   436   1 H    1.005 --   404 O    0.964
   437   1 H    1.023 --   405 C    0.983
   438   1 H    1.046 --   406 C    0.990
   439   1 H    1.035 --   408 C    1.000
   440   1 H    1.033 --   409 C    0.999
   441   1 H    1.028 --   414 C    0.998
   442   1 H    1.031 --   415 C    0.999
   443   1 H    1.084 --   417 N    0.961
   444   1 H    1.046 --   420 C    0.990
   445   1 H    1.023 --   421 C    0.983
   446   1 H    1.005 --   423 O    0.964
   447   1 H    1.013 --   424 C    0.982
   448   1 H    1.048 --   425 C    0.989
   449   1 H    1.035 --   427 C    1.000
   450   1 H    1.033 --   428 C    0.999
   451   6 C    3.832 --   487 C    1.282   452 C    1.280   154 C    1.229
   452   6 C    3.904 --   451 C    1.280   453 C    1.271   456 N    1.251
   453   6 C    3.830 --   454 C    1.577   452 C    1.271   489 H    0.998
   454   6 C    3.819 --   453 C    1.577   455 C    1.265   490 H    0.999
   455   6 C    3.888 --   457 C    1.336   454 C    1.265   456 N    1.222
   456   7 N    3.252 --   452 C    1.251   455 C    1.222   491 H    0.961
   457   6 C    3.835 --   465 C    1.373   455 C    1.336   458 C    1.051
   458   6 C    3.876 --   459 C    1.418   464 C    1.410   457 C    1.051
   459   6 C    3.868 --   460 C    1.448   458 C    1.418   492 H    0.989
   460   6 C    3.873 --   459 C    1.448   461 C    1.394   493 H    0.982
   461   6 C    3.970 --   460 C    1.394   463 C    1.385   462 O    1.126
   462   8 O    2.170 --   461 C    1.126   494 H    0.964
   463   6 C    3.905 --   464 C    1.457   461 C    1.385   495 H    0.983
   464   6 C    3.866 --   463 C    1.457   458 C    1.410   496 H    0.990
   465   6 C    3.926 --   457 C    1.373   468 N    1.352   466 C    1.162
   466   6 C    3.842 --   467 C    1.693   465 C    1.162   497 H    1.000
   467   6 C    3.851 --   466 C    1.693   469 C    1.166   498 H    0.999
   468   7 N    2.551 --   469 C    1.413   465 C    1.352
   469   6 C    3.946 --   468 N    1.413   470 C    1.288   467 C    1.166
   470   6 C    3.832 --   469 C    1.288   471 C    1.285   158 C    1.216
   471   6 C    3.906 --   470 C    1.285   472 C    1.268   475 N    1.250
   472   6 C    3.829 --   473 C    1.580   471 C    1.268   499 H    0.998
   473   6 C    3.822 --   472 C    1.580   474 C    1.263   500 H    0.999
   474   6 C    3.888 --   476 C    1.339   473 C    1.263   475 N    1.220
   475   7 N    3.250 --   471 C    1.250   474 C    1.220   501 H    0.961
   476   6 C    3.837 --   484 C    1.371   474 C    1.339   477 C    1.051
   477   6 C    3.876 --   483 C    1.417   478 C    1.410   476 C    1.051
   478   6 C    3.865 --   479 C    1.456   477 C    1.410   502 H    0.990
   479   6 C    3.904 --   478 C    1.456   480 C    1.385   503 H    0.983
   480   6 C    3.970 --   482 C    1.394   479 C    1.385   481 O    1.127
   481   8 O    2.171 --   480 C    1.127   504 H    0.964
   482   6 C    3.873 --   483 C    1.448   480 C    1.394   505 H    0.981
   483   6 C    3.868 --   482 C    1.448   477 C    1.417   506 H    0.989
   484   6 C    3.924 --   476 C    1.371   488 N    1.352   485 C    1.163
   485   6 C    3.840 --   486 C    1.690   484 C    1.163   507 H    1.000
   486   6 C    3.850 --   485 C    1.690   487 C    1.168   508 H    0.999
   487   6 C    3.943 --   488 N    1.416   451 C    1.282   486 C    1.168
   488   7 N    2.554 --   487 C    1.416   484 C    1.352
   489   1 H    1.028 --   453 C    0.998
   490   1 H    1.031 --   454 C    0.999
   491   1 H    1.084 --   456 N    0.961
   492   1 H    1.048 --   459 C    0.989
   493   1 H    1.013 --   460 C    0.982
   494   1 H    1.005 --   462 O    0.964
   495   1 H    1.023 --   463 C    0.983
   496   1 H    1.046 --   464 C    0.990
   497   1 H    1.035 --   466 C    1.000
   498   1 H    1.033 --   467 C    0.999
   499   1 H    1.029 --   472 C    0.998
   500   1 H    1.033 --   473 C    0.999
   501   1 H    1.084 --   475 N    0.961
   502   1 H    1.046 --   478 C    0.990
   503   1 H    1.023 --   479 C    0.983
   504   1 H    1.005 --   481 O    0.964
   505   1 H    1.013 --   482 C    0.981
   506   1 H    1.048 --   483 C    0.989
   507   1 H    1.034 --   485 C    1.000
   508   1 H    1.032 --   486 C    0.999
 ---------------------------------------------------------------------------

Topologies differ in total number of bonds
Writing topology from bond orders to xtbtopo.mol

 dipole moment from electron density (au)
     X       Y       Z   
-290.2315  -0.8834  -1.8347  total (Debye):  737.713


           -------------------------------------------------
          | TOTAL ENERGY            -1006.464059689596 Eh   |
          | GRADIENT NORM               0.127964364328 Eh/α |
          | HOMO-LUMO GAP               0.050128775831 eV   |
           -------------------------------------------------
########################################################################
[WARNING] Runtime exception occurred
-1- restart_readRestart: Dimension missmatch in restart file.
########################################################################

------------------------------------------------------------------------
 * finished run on 2022/07/28 at 22:16:00.896     
------------------------------------------------------------------------
 total:
 * wall-time:     0 d,  0 h,  2 min, 30.404 sec
 *  cpu-time:     0 d,  0 h,  2 min, 29.492 sec
 * ratio c/w:     0.994 speedup
 SCF:
 * wall-time:     0 d,  0 h,  2 min, 28.813 sec
 *  cpu-time:     0 d,  0 h,  2 min, 27.936 sec
 * ratio c/w:     0.994 speedup

