      -----------------------------------------------------------      
     |                   =====================                   |     
     |                           x T B                           |     
     |                   =====================                   |     
     |                         S. Grimme                         |     
     |          Mulliken Center for Theoretical Chemistry        |     
     |                    University of Bonn                     |     
      -----------------------------------------------------------      

   * xtb version 6.5.1 (b24c23e) compiled by 'conda@728c89f4b128' on 2022-07-12

   xtb is free software: you can redistribute it and/or modify it under
   the terms of the GNU Lesser General Public License as published by
   the Free Software Foundation, either version 3 of the License, or
   (at your option) any later version.
   
   xtb is distributed in the hope that it will be useful,
   but WITHOUT ANY WARRANTY; without even the implied warranty of
   MERCHANTABILITY or FITNESS FOR A PARTICULAR PURPOSE.  See the
   GNU Lesser General Public License for more details.
   
   Cite this work as:
   * C. Bannwarth, E. Caldeweyher, S. Ehlert, A. Hansen, P. Pracht,
     J. Seibert, S. Spicher, S. Grimme, WIREs Comput. Mol. Sci., 2020, 11,
     e01493. DOI: 10.1002/wcms.1493
   
   for GFN2-xTB:
   * C. Bannwarth, S. Ehlert and S. Grimme., J. Chem. Theory Comput., 2019,
     15, 1652-1671. DOI: 10.1021/acs.jctc.8b01176
   for GFN1-xTB:
   * S. Grimme, C. Bannwarth, P. Shushkov, J. Chem. Theory Comput., 2017,
     13, 1989-2009. DOI: 10.1021/acs.jctc.7b00118
   for GFN0-xTB:
   * P. Pracht, E. Caldeweyher, S. Ehlert, S. Grimme, ChemRxiv, 2019, preprint.
     DOI: 10.26434/chemrxiv.8326202.v1
   for GFN-FF:
   * S. Spicher and S. Grimme, Angew. Chem. Int. Ed., 2020, 59, 15665-15673.
     DOI: 10.1002/anie.202004239
   
   for ALPB and GBSA implicit solvation:
   * S. Ehlert, M. Stahn, S. Spicher, S. Grimme, J. Chem. Theory Comput.,
     2021, 17, 4250-4261. DOI: 10.1021/acs.jctc.1c00471
   
   for DFT-D4:
   * E. Caldeweyher, C. Bannwarth and S. Grimme, J. Chem. Phys., 2017,
     147, 034112. DOI: 10.1063/1.4993215
   * E. Caldeweyher, S. Ehlert, A. Hansen, H. Neugebauer, S. Spicher,
     C. Bannwarth and S. Grimme, J. Chem. Phys., 2019, 150, 154122.
     DOI: 10.1063/1.5090222
   * E. Caldeweyher, J.-M. Mewes, S. Ehlert and S. Grimme, Phys. Chem. Chem. Phys.
     2020, 22, 8499-8512. DOI: 10.1039/D0CP00502A
   
   for sTDA-xTB:
   * S. Grimme and C. Bannwarth, J. Chem. Phys., 2016, 145, 054103.
     DOI: 10.1063/1.4959605
   
   in the mass-spec context:
   * V. Asgeirsson, C. Bauer and S. Grimme, Chem. Sci., 2017, 8, 4879.
     DOI: 10.1039/c7sc00601b
   * J. Koopman and S. Grimme, ACS Omega 2019, 4, 12, 15120-15133.
     DOI: 10.1021/acsomega.9b02011
   
   for metadynamics refer to:
   * S. Grimme, J. Chem. Theory Comput., 2019, 155, 2847-2862
     DOI: 10.1021/acs.jctc.9b00143
   
   for SPH calculations refer to:
   * S. Spicher and S. Grimme, J. Chem. Theory Comput., 2021, 17, 1701-1714
     DOI: 10.1021/acs.jctc.0c01306
   
   with help from (in alphabetical order)
   P. Atkinson, C. Bannwarth, F. Bohle, G. Brandenburg, E. Caldeweyher
   M. Checinski, S. Dohm, S. Ehlert, S. Ehrlich, I. Gerasimov, C. Hölzer
   A. Katbashev, J. Koopman, C. Lavigne, S. Lehtola, F. März, M. Müller,
   F. Musil, H. Neugebauer, J. Pisarek, C. Plett, P. Pracht, F. Pultar,
   J. Seibert, P. Shushkov, S. Spicher, M. Stahn, M. Steiner, T. Strunk,
   J. Stückrath, T. Rose, and J. Unsleber
   
 * started run on 2022/07/30 at 09:52:24.935     

           -------------------------------------------------
          |                Calculation Setup                |
           -------------------------------------------------

          program call               : xtb Zn_Ph2Me_C8_3.xyz --gfn 1 --opt -T 48
          hostname                   : cx3-15-15.cx3.hpc.ic.ac.uk
          coordinate file            : Zn_Ph2Me_C8_3.xyz
          omp threads                :                     1

   ID    Z sym.   atoms
    1   30 Zn     1, 69, 153
    2    6 C      2-6, 8-11, 13-31, 34-41, 70-74, 76-79, 81-99, 102-109,
                  137-152, 154-158, 160-163, 165-183, 186-193
    3    7 N      7, 12, 32, 33, 75, 80, 100, 101, 159, 164, 184, 185
    4    1 H      42-68, 110-136, 194-219

molecular fragmentation (1/2 indicates fragments):
111111111111111111111111111111111111111111111111111111111111111111112222
222222222222222222222222222222222222222222222222222222222222222222222222
222222222222222222222222222222222222222222222222222222222222222222222222
222
# atoms in fragment 1/2:    68   151
 fragment masses (1/2) :      581.01     1353.17
CMA distance (Bohr)    :  52.543
constraining FC (au)   :  0.0500
########################################################################
[WARNING] Please study the warnings concerning your input carefully
-1- prog_main_parseArguments: Unknown option '-T' provided
########################################################################

           -------------------------------------------------
          |                 G F N 1 - x T B                 |
           -------------------------------------------------

        Reference                      10.1021/acs.jctc.7b00118
      * Hamiltonian:
        H0-scaling (s, p, d)           1.850000    2.250000    2.000000
        zeta-weighting                 0.000000
      * Dispersion:
        s8                             2.400000
        a1                             0.630000
        a2                             5.000000
        s9                             0.000000
      * Repulsion:
        kExp                           1.500000
        rExp                           1.000000
      * Coulomb:
        alpha                          2.000000
        third order                    atomic
        anisotropic                    false
      * Halogen bond correction:
        rad-scale                      1.300000
        damping                        0.440000


          ...................................................
          :                      SETUP                      :
          :.................................................:
          :  # basis functions                 716          :
          :  # atomic orbitals                 716          :
          :  # shells                          438          :
          :  # electrons                       642          :
          :  # halogen bonds                     0          :
          :  max. iterations                   250          :
          :  Hamiltonian                  GFN1-xTB          :
          :  restarted?                      false          :
          :  GBSA solvation                  false          :
          :  PC potential                    false          :
          :  electronic temp.          300.0000000     K    :
          :  accuracy                    1.0000000          :
          :  -> integral cutoff          0.2500000E+02      :
          :  -> integral neglect         0.1000000E-07      :
          :  -> SCF convergence          0.1000000E-05 Eh   :
          :  -> wf. convergence          0.2000000E-04 e    :
          :  Broyden damping             0.4000000          :
          ...................................................

 iter      E             dE          RMSdq      gap      omega  full diag
   1   -350.4802323 -0.350480E+03  0.102E+01    0.18       0.0  T
   2   -349.8155173  0.664715E+00  0.630E+00    0.12       1.0  T
   3   -320.2577304  0.295578E+02  0.524E+00    0.06       1.0  T
   4   -210.0739337  0.110184E+03  0.695E+00    0.04       1.0  T
   5   -316.4750203 -0.106401E+03  0.384E+00    0.00       1.0  T
   6   -344.3586167 -0.278836E+02  0.234E+00    0.30       1.0  T
   7   -347.5102530 -0.315164E+01  0.188E+00    0.17       1.0  T
   8   -350.5067097 -0.299646E+01  0.104E+00    0.05       1.0  T
   9   -350.8178562 -0.311147E+00  0.797E-01    0.26       1.0  T
  10   -350.0370595  0.780797E+00  0.867E-01    0.18       1.0  T
  11   -350.7112590 -0.674199E+00  0.715E-01    0.21       1.0  T
  12   -350.4402602  0.270999E+00  0.719E-01    0.03       1.0  T
  13   -350.9395102 -0.499250E+00  0.273E-01    0.14       1.0  T
  14   -350.9623604 -0.228502E-01  0.154E-01    0.16       1.0  T
  15   -350.9685869 -0.622655E-02  0.125E-01    0.16       1.0  T
  16   -350.9715744 -0.298752E-02  0.985E-02    0.15       1.0  T
  17   -350.9740297 -0.245527E-02  0.848E-02    0.15       1.0  T
  18   -350.9760048 -0.197514E-02  0.693E-02    0.13       1.0  T
  19   -350.9765201 -0.515228E-03  0.651E-02    0.13       1.0  T
  20   -350.9775073 -0.987240E-03  0.534E-02    0.12       1.0  T
  21   -350.9792029 -0.169565E-02  0.224E-02    0.12       1.0  T
  22   -350.9793080 -0.105037E-03  0.155E-02    0.12       1.0  T
  23   -350.9793893 -0.813355E-04  0.167E-02    0.11       1.0  T
  24   -350.9794436 -0.543087E-04  0.121E-02    0.11       1.0  T
  25   -350.9784265  0.101708E-02  0.324E-02    0.10       1.0  T
  26   -350.9787216 -0.295024E-03  0.272E-02    0.11       1.0  T
  27   -350.9791226 -0.400990E-03  0.190E-02    0.11       1.0  T
  28   -350.9794780 -0.355466E-03  0.661E-03    0.11       1.0  T
  29   -350.9795105 -0.325169E-04  0.353E-03    0.11       1.9  T
  30   -350.9795153 -0.479388E-05  0.283E-03    0.11       2.4  T
  31   -350.9795205 -0.513383E-05  0.183E-03    0.11       3.7  T
  32   -350.9795231 -0.264270E-05  0.721E-04    0.11       9.4  T
  33   -350.9795233 -0.176540E-06  0.458E-04    0.11      14.7  T
  34   -350.9795234 -0.751098E-07  0.319E-04    0.11      21.2  T
  35   -350.9795232  0.140993E-06  0.464E-04    0.11      14.6  T
  36   -350.9795235 -0.239115E-06  0.941E-05    0.11      71.8  T
  37   -350.9795235 -0.831949E-08  0.213E-05    0.11     317.8  T

   *** convergence criteria satisfied after 37 iterations ***

         #    Occupation            Energy/Eh            Energy/eV
      -------------------------------------------------------------
         1        2.0000           -0.7657019             -20.8358
       ...           ...                  ...                  ...
       315        2.0000           -0.3918717             -10.6634
       316        2.0000           -0.3825009             -10.4084
       317        2.0000           -0.3804074             -10.3514
       318        2.0000           -0.3769269             -10.2567
       319        2.0000           -0.3703010             -10.0764
       320        2.0000           -0.3687724             -10.0348
       321        1.7344           -0.3584298              -9.7534 (HOMO)
       322        0.1730           -0.3544080              -9.6439 (LUMO)
       323        0.0926           -0.3537734              -9.6267
       324        0.0000           -0.3447253              -9.3805
       325                         -0.3259237              -8.8688
       326                         -0.3236725              -8.8076
       ...                                ...                  ...
       716                          2.5379220              69.0604
      -------------------------------------------------------------
                  HL-Gap            0.0040218 Eh            0.1094 eV
             Fermi-level           -0.3566473 Eh           -9.7049 eV

 SCC (total)                   0 d,  0 h,  0 min,  6.090 sec
 SCC setup                      ...        0 min,  0.013 sec (  0.212%)
 Dispersion                     ...        0 min,  0.008 sec (  0.131%)
 classical contributions        ...        0 min,  0.002 sec (  0.040%)
 integral evaluation            ...        0 min,  0.218 sec (  3.584%)
 iterations                     ...        0 min,  5.341 sec ( 87.702%)
 molecular gradient             ...        0 min,  0.478 sec (  7.849%)
 printout                       ...        0 min,  0.029 sec (  0.482%)

         :::::::::::::::::::::::::::::::::::::::::::::::::::::
         ::                     SUMMARY                     ::
         :::::::::::::::::::::::::::::::::::::::::::::::::::::
         :: total energy            -344.587759380904 Eh    ::
         :: gradient norm              1.513074743032 Eh/a0 ::
         :: HOMO-LUMO gap              0.109439653960 eV    ::
         ::.................................................::
         :: SCC energy              -350.979523473211 Eh    ::
         :: -> electrostatic           0.210186231912 Eh    ::
         :: repulsion energy           6.573742359175 Eh    ::
         :: dispersion energy         -0.181978266868 Eh    ::
         :: halogen bond corr.         0.000000000000 Eh    ::
         :: add. restraining           0.000000000000 Eh    ::
         :: total charge               0.000000000005 e     ::
         :::::::::::::::::::::::::::::::::::::::::::::::::::::

      ----------------------------------------------------------- 
     |                   =====================                   |
     |                        A N C O P T                        |
     |                   =====================                   |
     |               Approximate Normal Coordinate               |
     |                Rational Function Optimizer                |
      ----------------------------------------------------------- 

          ...................................................
          :                      SETUP                      :
          :.................................................:
          :   optimization level            normal          :
          :   max. optcycles                   657          :
          :   ANC micro-cycles                  20          :
          :   degrees of freedom               651          :
          :.................................................:
          :   RF solver                   davidson          :
          :   write xtbopt.log                true          :
          :   linear?                        false          :
          :   energy convergence         0.5000000E-05 Eh   :
          :   grad. convergence          0.1000000E-02 Eh/α :
          :   maximium RF displ.         1.0000000          :
          :   Hlow (freq-cutoff)         0.1000000E-01      :
          :   Hmax (freq-cutoff)         5.0000000          :
          :   S6 in model hess.         20.0000000          :
          ...................................................

generating ANC from model Hessian ...
Using Lindh-Hessian (1995)
 Shifting diagonal of input Hessian by    1.0025697402885730E-002
 Lowest  eigenvalues of input Hessian
    0.010000    0.010001    0.010012    0.010013    0.010017    0.010017
    0.010022    0.000000    0.000000    0.000000    0.000000    0.000000
    0.000000    0.010026    0.010029    0.010033    0.010047    0.010070
 Highest eigenvalues
    2.799174    2.870959    3.115497    3.179797    3.282691    3.669432


........................................................................
.............................. CYCLE    1 ..............................
........................................................................
   1   -350.9795235 -0.350980E+03  0.192E-05    0.11       0.0  T
   2   -350.9795234  0.560830E-07  0.221E-04    0.11      30.6  T
   3   -350.9795235 -0.550392E-07  0.350E-05    0.11     193.1  T
   4   -350.9795235 -0.128006E-08  0.973E-06    0.11     694.8  T
     SCC iter.                  ...        0 min,  0.590 sec
     gradient                   ...        0 min,  0.475 sec
 * total energy  :  -344.5877594 Eh     change       -0.2372076E-09 Eh
   gradient norm :     1.5130749 Eh/α   predicted     0.0000000E+00 (-100.00%)
   displ. norm   :     0.5101883 α      lambda       -0.7123215E+00
   maximum displ.:     0.2355446 α      in ANC's #649, #646, #650, ...

........................................................................
.............................. CYCLE    2 ..............................
........................................................................
   1   -350.9834456 -0.350983E+03  0.205E-01    0.29       0.0  T
   2   -350.4832799  0.500166E+00  0.675E-01    0.10       1.0  T
   3   -350.9499249 -0.466645E+00  0.251E-01    0.08       1.0  T
   4   -350.9738467 -0.239218E-01  0.170E-01    0.46       1.0  T
   5   -350.9814674 -0.762074E-02  0.162E-01    0.14       1.0  T
   6   -350.9856629 -0.419547E-02  0.114E-01    0.16       1.0  T
   7   -350.9842358  0.142713E-02  0.120E-01    0.11       1.0  T
   8   -350.9925203 -0.828452E-02  0.695E-02    0.21       1.0  T
   9   -350.9938563 -0.133607E-02  0.580E-02    0.19       1.0  T
  10   -350.9942058 -0.349464E-03  0.539E-02    0.19       1.0  T
  11   -350.9958828 -0.167703E-02  0.205E-02    0.20       1.0  T
  12   -350.9877124  0.817044E-02  0.828E-02    0.10       1.0  T
  13   -350.9957463 -0.803391E-02  0.178E-02    0.20       1.0  T
  14   -350.9959615 -0.215244E-03  0.671E-03    0.19       1.0  T
  15   -350.9959714 -0.988120E-05  0.567E-03    0.19       1.2  T
  16   -350.9960043 -0.328583E-04  0.103E-03    0.19       6.5  T
  17   -350.9959988  0.549949E-05  0.229E-03    0.19       3.0  T
  18   -350.9960027 -0.387269E-05  0.145E-03    0.19       4.6  T
  19   -350.9960050 -0.236264E-05  0.331E-04    0.19      20.4  T
  20   -350.9960051 -0.108048E-06  0.962E-05    0.19      70.3  T
  21   -350.9960051 -0.244961E-08  0.850E-05    0.19      79.5  T
     SCC iter.                  ...        0 min,  3.041 sec
     gradient                   ...        0 min,  0.478 sec
 * total energy  :  -345.0548885 Eh     change       -0.4671291E+00 Eh
   gradient norm :     0.5828572 Eh/α   predicted    -0.4488715E+00 (  -3.91%)
   displ. norm   :     0.5159111 α      lambda       -0.2327141E+00
   maximum displ.:     0.1207006 α      in ANC's #118, #650, #646, ...

........................................................................
.............................. CYCLE    3 ..............................
........................................................................
   1   -351.1467795 -0.351147E+03  0.129E-01    0.39       0.0  T
   2   -351.1463087  0.470795E-03  0.125E-01    0.32       1.0  T
   3   -351.1506389 -0.433017E-02  0.611E-02    0.35       1.0  T
   4   -351.1515483 -0.909364E-03  0.420E-02    0.35       1.0  T
   5   -351.1518879 -0.339697E-03  0.204E-02    0.33       1.0  T
   6   -351.1520191 -0.131109E-03  0.723E-03    0.36       1.0  T
   7   -351.1520550 -0.359413E-04  0.221E-03    0.34       3.1  T
   8   -351.1520570 -0.201900E-05  0.942E-04    0.35       7.2  T
   9   -351.1520574 -0.340299E-06  0.284E-04    0.35      23.8  T
  10   -351.1520574 -0.129071E-07  0.194E-04    0.34      34.9  T
  11   -351.1520574 -0.183762E-07  0.475E-05    0.34     142.2  T
     SCC iter.                  ...        0 min,  1.596 sec
     gradient                   ...        0 min,  0.476 sec
 * total energy  :  -345.2097194 Eh     change       -0.1548310E+00 Eh
   gradient norm :     0.2202880 Eh/α   predicted    -0.1473274E+00 (  -4.85%)
   displ. norm   :     0.7012424 α      lambda       -0.1035173E+00
   maximum displ.:     0.2981642 α      in ANC's #118, #190, #94, ...

........................................................................
.............................. CYCLE    4 ..............................
........................................................................
   1   -351.1748464 -0.351175E+03  0.927E-02    0.81       0.0  T
   2   -351.1758442 -0.997805E-03  0.666E-02    0.74       1.0  T
   3   -351.1772439 -0.139963E-02  0.278E-02    0.80       1.0  T
   4   -351.1773953 -0.151393E-03  0.178E-02    0.78       1.0  T
   5   -351.1774493 -0.540362E-04  0.923E-03    0.79       1.0  T
   6   -351.1774820 -0.327397E-04  0.361E-03    0.79       1.9  T
   7   -351.1774888 -0.673502E-05  0.795E-04    0.79       8.5  T
   8   -351.1774889 -0.946593E-07  0.531E-04    0.79      12.7  T
   9   -351.1774890 -0.157254E-06  0.168E-04    0.79      40.1  T
  10   -351.1774890 -0.568951E-08  0.793E-05    0.79      85.2  T
     SCC iter.                  ...        0 min,  1.456 sec
     gradient                   ...        0 min,  0.479 sec
 * total energy  :  -345.2910155 Eh     change       -0.8129610E-01 Eh
   gradient norm :     0.1316288 Eh/α   predicted    -0.7721057E-01 (  -5.03%)
   displ. norm   :     0.8360717 α      lambda       -0.8038243E-01
   maximum displ.:     0.3920021 α      in ANC's #118, #94, #191, ...

........................................................................
.............................. CYCLE    5 ..............................
........................................................................
   1   -351.1551632 -0.351155E+03  0.852E-02    1.08       0.0  T
   2   -351.1559110 -0.747847E-03  0.732E-02    1.08       1.0  T
   3   -351.1571348 -0.122373E-02  0.223E-02    1.08       1.0  T
   4   -351.1570842  0.505747E-04  0.182E-02    1.08       1.0  T
   5   -351.1571448 -0.605562E-04  0.803E-03    1.08       1.0  T
   6   -351.1571904 -0.456341E-04  0.250E-03    1.08       2.7  T
   7   -351.1571937 -0.332370E-05  0.725E-04    1.08       9.3  T
   8   -351.1571939 -0.194565E-06  0.392E-04    1.08      17.2  T
   9   -351.1571940 -0.956547E-07  0.177E-04    1.08      38.3  T
  10   -351.1571940 -0.132276E-07  0.622E-05    1.08     108.6  T
     SCC iter.                  ...        0 min,  1.456 sec
     gradient                   ...        0 min,  0.477 sec
 * total energy  :  -345.3623870 Eh     change       -0.7137145E-01 Eh
   gradient norm :     0.1078779 Eh/α   predicted    -0.6828554E-01 (  -4.32%)
   displ. norm   :     0.9236614 α      lambda       -0.7670083E-01
   maximum displ.:     0.4548310 α      in ANC's #118, #94, #190, ...

........................................................................
.............................. CYCLE    6 ..............................
........................................................................
   1   -351.1140083 -0.351114E+03  0.800E-02    1.11       0.0  T
   2   -351.1147620 -0.753727E-03  0.737E-02    1.11       1.0  T
   3   -351.1154893 -0.727335E-03  0.281E-02    1.11       1.0  T
   4   -351.1152998  0.189587E-03  0.240E-02    1.11       1.0  T
   5   -351.1154740 -0.174192E-03  0.685E-03    1.11       1.0  T
   6   -351.1155180 -0.440748E-04  0.189E-03    1.11       3.6  T
   7   -351.1155200 -0.200940E-05  0.767E-04    1.11       8.8  T
   8   -351.1155203 -0.307907E-06  0.384E-04    1.11      17.6  T
   9   -351.1155204 -0.806644E-07  0.156E-04    1.11      43.3  T
  10   -351.1155204 -0.862070E-08  0.627E-05    1.11     107.8  T
     SCC iter.                  ...        0 min,  1.453 sec
     gradient                   ...        0 min,  0.478 sec
 * total energy  :  -345.4352804 Eh     change       -0.7289342E-01 Eh
   gradient norm :     0.1097368 Eh/α   predicted    -0.7106928E-01 (  -2.50%)
   displ. norm   :     0.9182411 α      lambda       -0.7199042E-01
   maximum displ.:     0.4572108 α      in ANC's #118, #94, #31, ...

........................................................................
.............................. CYCLE    7 ..............................
........................................................................
   1   -351.0699611 -0.351070E+03  0.764E-02    1.09       0.0  T
   2   -351.0703549 -0.393721E-03  0.787E-02    1.09       1.0  T
   3   -351.0710499 -0.695030E-03  0.365E-02    1.09       1.0  T
   4   -351.0705557  0.494170E-03  0.313E-02    1.09       1.0  T
   5   -351.0710451 -0.489416E-03  0.584E-03    1.09       1.2  T
   6   -351.0710718 -0.266349E-04  0.118E-03    1.09       5.7  T
   7   -351.0710724 -0.581945E-06  0.428E-04    1.09      15.8  T
   8   -351.0710724 -0.712409E-07  0.219E-04    1.09      30.8  T
   9   -351.0710725 -0.306053E-07  0.865E-05    1.09      78.1  T
  10   -351.0710725 -0.362786E-08  0.249E-05    1.09     271.0  T
     SCC iter.                  ...        0 min,  1.455 sec
     gradient                   ...        0 min,  0.513 sec
 * total energy  :  -345.4923138 Eh     change       -0.5703343E-01 Eh
   gradient norm :     0.0899652 Eh/α   predicted    -0.6634517E-01 (  16.33%)
   displ. norm   :     0.7502960 α      lambda       -0.4027305E-01
   maximum displ.:     0.3525738 α      in ANC's #118, #94, #56, ...

........................................................................
.............................. CYCLE    8 ..............................
........................................................................
   1   -351.0859839 -0.351086E+03  0.378E-02    1.05       0.0  T
   2   -351.0860216 -0.376605E-04  0.394E-02    1.05       1.0  T
   3   -351.0863374 -0.315837E-03  0.165E-02    1.05       1.0  T
   4   -351.0861798  0.157579E-03  0.170E-02    1.05       1.0  T
   5   -351.0863447 -0.164812E-03  0.278E-03    1.05       2.4  T
   6   -351.0863477 -0.303325E-05  0.492E-04    1.05      13.7  T
   7   -351.0863478 -0.994482E-07  0.188E-04    1.05      36.0  T
   8   -351.0863478 -0.159290E-07  0.783E-05    1.05      86.3  T
     SCC iter.                  ...        0 min,  1.170 sec
     gradient                   ...        0 min,  0.482 sec
 * total energy  :  -345.5237479 Eh     change       -0.3143407E-01 Eh
   gradient norm :     0.0766753 Eh/α   predicted    -0.3147227E-01 (   0.12%)
   displ. norm   :     0.7514166 α      lambda       -0.3518176E-01
   maximum displ.:     0.3144832 α      in ANC's #94, #118, #31, ...

........................................................................
.............................. CYCLE    9 ..............................
........................................................................
   1   -351.1315619 -0.351132E+03  0.340E-02    1.07       0.0  T
   2   -351.1316749 -0.113057E-03  0.266E-02    1.07       1.0  T
   3   -351.1318680 -0.193091E-03  0.117E-02    1.07       1.0  T
   4   -351.1318352  0.327993E-04  0.109E-02    1.07       1.0  T
   5   -351.1318966 -0.613805E-04  0.335E-03    1.07       2.0  T
   6   -351.1318992 -0.256486E-05  0.899E-04    1.07       7.5  T
   7   -351.1318998 -0.573427E-06  0.275E-04    1.07      24.6  T
   8   -351.1318998 -0.554701E-07  0.987E-05    1.07      68.5  T
   9   -351.1318998 -0.330266E-08  0.462E-05    1.07     146.2  T
     SCC iter.                  ...        0 min,  1.315 sec
     gradient                   ...        0 min,  0.482 sec
 * total energy  :  -345.5482529 Eh     change       -0.2450499E-01 Eh
   gradient norm :     0.0781767 Eh/α   predicted    -0.2752317E-01 (  12.32%)
   displ. norm   :     0.7584241 α      lambda       -0.2304962E-01
   maximum displ.:     0.3093205 α      in ANC's #94, #31, #56, ...

........................................................................
.............................. CYCLE   10 ..............................
........................................................................
   1   -351.1762412 -0.351176E+03  0.243E-02    1.05       0.0  T
   2   -351.1762588 -0.176524E-04  0.219E-02    1.06       1.0  T
   3   -351.1763768 -0.117918E-03  0.801E-03    1.06       1.0  T
   4   -351.1763389  0.379138E-04  0.898E-03    1.05       1.0  T
   5   -351.1763854 -0.465944E-04  0.168E-03    1.06       4.0  T
   6   -351.1763860 -0.549375E-06  0.519E-04    1.06      13.0  T
   7   -351.1763861 -0.118431E-06  0.120E-04    1.06      56.4  T
   8   -351.1763861 -0.397745E-08  0.691E-05    1.06      97.8  T
     SCC iter.                  ...        0 min,  1.170 sec
     gradient                   ...        0 min,  0.482 sec
 * total energy  :  -345.5654456 Eh     change       -0.1719273E-01 Eh
   gradient norm :     0.0445811 Eh/α   predicted    -0.1815397E-01 (   5.59%)
   displ. norm   :     0.7862804 α      lambda       -0.1560583E-01
   maximum displ.:     0.3007534 α      in ANC's #31, #13, #94, ...

........................................................................
.............................. CYCLE   11 ..............................
........................................................................
   1   -351.2163635 -0.351216E+03  0.163E-02    1.04       0.0  T
   2   -351.2163822 -0.186719E-04  0.123E-02    1.04       1.0  T
   3   -351.2164067 -0.244707E-04  0.559E-03    1.04       1.2  T
   4   -351.2163954  0.113041E-04  0.521E-03    1.04       1.3  T
   5   -351.2164114 -0.160246E-04  0.996E-04    1.04       6.8  T
   6   -351.2164119 -0.544955E-06  0.395E-04    1.04      17.1  T
   7   -351.2164120 -0.807037E-07  0.846E-05    1.04      79.9  T
   8   -351.2164120 -0.317795E-08  0.510E-05    1.04     132.5  T
     SCC iter.                  ...        0 min,  1.170 sec
     gradient                   ...        0 min,  0.482 sec
 * total energy  :  -345.5757441 Eh     change       -0.1029849E-01 Eh
   gradient norm :     0.0451177 Eh/α   predicted    -0.1262697E-01 (  22.61%)
   displ. norm   :     0.7809831 α      lambda       -0.1639806E-01
   maximum displ.:     0.3081036 α      in ANC's #31, #13, #56, ...

........................................................................
.............................. CYCLE   12 ..............................
........................................................................
   1   -351.2634111 -0.351263E+03  0.170E-02    1.05       0.0  T
   2   -351.2634448 -0.336221E-04  0.123E-02    1.05       1.0  T
   3   -351.2634671 -0.223403E-04  0.582E-03    1.05       1.2  T
   4   -351.2634589  0.821023E-05  0.435E-03    1.05       1.6  T
   5   -351.2634690 -0.100872E-04  0.156E-03    1.05       4.3  T
   6   -351.2634703 -0.130201E-05  0.293E-04    1.05      23.1  T
   7   -351.2634703 -0.408837E-07  0.777E-05    1.05      86.9  T
   8   -351.2634703 -0.288605E-08  0.399E-05    1.05     169.4  T
     SCC iter.                  ...        0 min,  1.168 sec
     gradient                   ...        0 min,  0.485 sec
 * total energy  :  -345.5840735 Eh     change       -0.8329349E-02 Eh
   gradient norm :     0.0651469 Eh/α   predicted    -0.1319991E-01 (  58.47%)
   displ. norm   :     0.6288043 α      lambda       -0.9701794E-02
   maximum displ.:     0.2822547 α      in ANC's #31, #13, #56, ...

........................................................................
.............................. CYCLE   13 ..............................
........................................................................
   1   -351.2903644 -0.351290E+03  0.127E-02    1.04       0.0  T
   2   -351.2903801 -0.157199E-04  0.104E-02    1.04       1.0  T
   3   -351.2903983 -0.181312E-04  0.414E-03    1.04       1.6  T
   4   -351.2903907  0.761477E-05  0.435E-03    1.04       1.6  T
   5   -351.2903994 -0.874417E-05  0.139E-03    1.04       4.9  T
   6   -351.2904002 -0.781234E-06  0.319E-04    1.04      21.2  T
   7   -351.2904002 -0.598997E-07  0.138E-04    1.04      48.8  T
   8   -351.2904003 -0.169404E-07  0.342E-05    1.04     197.6  T
     SCC iter.                  ...        0 min,  1.174 sec
     gradient                   ...        0 min,  0.483 sec
 * total energy  :  -345.5911943 Eh     change       -0.7120884E-02 Eh
   gradient norm :     0.0303258 Eh/α   predicted    -0.6768920E-02 (  -4.94%)
   displ. norm   :     0.7711676 α      lambda       -0.9976084E-02
   maximum displ.:     0.3613361 α      in ANC's #31, #13, #52, ...

........................................................................
.............................. CYCLE   14 ..............................
........................................................................
   1   -351.3130702 -0.351313E+03  0.186E-02    1.03       0.0  T
   2   -351.3130994 -0.291692E-04  0.151E-02    1.03       1.0  T
   3   -351.3131497 -0.502839E-04  0.510E-03    1.03       1.3  T
   4   -351.3131399  0.978993E-05  0.537E-03    1.03       1.3  T
   5   -351.3131525 -0.126769E-04  0.155E-03    1.03       4.4  T
   6   -351.3131536 -0.107216E-05  0.400E-04    1.03      16.9  T
   7   -351.3131537 -0.812271E-07  0.147E-04    1.03      45.9  T
   8   -351.3131537 -0.159519E-07  0.560E-05    1.03     120.6  T
     SCC iter.                  ...        0 min,  1.171 sec
     gradient                   ...        0 min,  0.488 sec
 * total energy  :  -345.5957870 Eh     change       -0.4592632E-02 Eh
   gradient norm :     0.0653134 Eh/α   predicted    -0.7954434E-02 (  73.20%)
   displ. norm   :     0.6355686 α      lambda       -0.9137827E-02
   maximum displ.:     0.3010757 α      in ANC's #31, #13, #51, ...

........................................................................
.............................. CYCLE   15 ..............................
........................................................................
   1   -351.3385664 -0.351339E+03  0.957E-03    1.04       0.0  T
   2   -351.3385748 -0.842817E-05  0.719E-03    1.04       1.0  T
   3   -351.3385840 -0.914060E-05  0.293E-03    1.04       2.3  T
   4   -351.3385815  0.247201E-05  0.271E-03    1.04       2.5  T
   5   -351.3385849 -0.339754E-05  0.772E-04    1.04       8.8  T
   6   -351.3385852 -0.321184E-06  0.166E-04    1.04      40.8  T
   7   -351.3385852 -0.135039E-07  0.420E-05    1.04     160.9  T
     SCC iter.                  ...        0 min,  1.030 sec
     gradient                   ...        0 min,  0.486 sec
 * total energy  :  -345.6015341 Eh     change       -0.5747101E-02 Eh
   gradient norm :     0.0434865 Eh/α   predicted    -0.6414517E-02 (  11.61%)
   displ. norm   :     0.6335409 α      lambda       -0.9488103E-02
   maximum displ.:     0.2796634 α      in ANC's #31, #13, #36, ...

........................................................................
.............................. CYCLE   16 ..............................
........................................................................
   1   -351.3630774 -0.351363E+03  0.262E-02    1.02       0.0  T
   2   -351.3631391 -0.616935E-04  0.267E-02    1.02       1.0  T
   3   -351.3632596 -0.120578E-03  0.103E-02    1.02       1.0  T
   4   -351.3632144  0.452819E-04  0.100E-02    1.02       1.0  T
   5   -351.3632611 -0.467736E-04  0.235E-03    1.02       2.9  T
   6   -351.3632630 -0.191326E-05  0.566E-04    1.02      11.9  T
   7   -351.3632632 -0.187794E-06  0.238E-04    1.02      28.4  T
   8   -351.3632633 -0.551954E-07  0.449E-05    1.02     150.5  T
   9   -351.3632633 -0.854811E-09  0.178E-05    1.02     378.7  T
     SCC iter.                  ...        0 min,  1.315 sec
     gradient                   ...        0 min,  0.486 sec
 * total energy  :  -345.6040140 Eh     change       -0.2479891E-02 Eh
   gradient norm :     0.0650656 Eh/α   predicted    -0.6648183E-02 ( 168.08%)
   displ. norm   :     0.5512484 α      lambda       -0.7776932E-02
   maximum displ.:     0.2854977 α      in ANC's #31, #13, #16, ...

........................................................................
.............................. CYCLE   17 ..............................
........................................................................
   1   -351.3799952 -0.351380E+03  0.133E-02    1.02       0.0  T
   2   -351.3800074 -0.122013E-04  0.130E-02    1.03       1.0  T
   3   -351.3800408 -0.333479E-04  0.488E-03    1.02       1.4  T
   4   -351.3800300  0.107583E-04  0.483E-03    1.02       1.4  T
   5   -351.3800413 -0.113331E-04  0.106E-03    1.02       6.4  T
   6   -351.3800418 -0.467178E-06  0.222E-04    1.02      30.4  T
   7   -351.3800418 -0.175619E-07  0.736E-05    1.02      91.8  T
   8   -351.3800418 -0.458647E-08  0.297E-05    1.02     227.5  T
     SCC iter.                  ...        0 min,  1.168 sec
     gradient                   ...        0 min,  0.484 sec
 * total energy  :  -345.6095913 Eh     change       -0.5577347E-02 Eh
   gradient norm :     0.0265850 Eh/α   predicted    -0.5070071E-02 (  -9.10%)
   displ. norm   :     0.7038332 α      lambda       -0.7171926E-02
   maximum displ.:     0.3559219 α      in ANC's #31, #13, #25, ...

........................................................................
.............................. CYCLE   18 ..............................
........................................................................
   1   -351.3915090 -0.351392E+03  0.200E-02    1.03       0.0  T
   2   -351.3915457 -0.366960E-04  0.212E-02    1.03       1.0  T
   3   -351.3916315 -0.857493E-04  0.811E-03    1.03       1.0  T
   4   -351.3916071  0.244116E-04  0.721E-03    1.03       1.0  T
   5   -351.3916316 -0.244989E-04  0.207E-03    1.03       3.3  T
   6   -351.3916334 -0.180798E-05  0.394E-04    1.03      17.2  T
   7   -351.3916334 -0.681247E-07  0.174E-04    1.03      38.9  T
   8   -351.3916335 -0.289613E-07  0.384E-05    1.03     175.8  T
     SCC iter.                  ...        0 min,  1.172 sec
     gradient                   ...        0 min,  0.482 sec
 * total energy  :  -345.6093867 Eh     change        0.2045633E-03 Eh
   gradient norm :     0.0737720 Eh/α   predicted    -0.5362386E-02 (*******%)
   displ. norm   :     0.4272410 α      lambda       -0.9909285E-02
   maximum displ.:     0.1899659 α      in ANC's #13, #31, #76, ...

........................................................................
.............................. CYCLE   19 ..............................
........................................................................
   1   -351.4122921 -0.351412E+03  0.129E-02    1.02       0.0  T
   2   -351.4123091 -0.170685E-04  0.129E-02    1.02       1.0  T
   3   -351.4123362 -0.270611E-04  0.533E-03    1.02       1.3  T
   4   -351.4123275  0.871380E-05  0.432E-03    1.02       1.6  T
   5   -351.4123359 -0.843135E-05  0.127E-03    1.02       5.3  T
   6   -351.4123368 -0.896966E-06  0.227E-04    1.02      29.7  T
   7   -351.4123368 -0.208527E-07  0.897E-05    1.02      75.3  T
   8   -351.4123368 -0.792045E-08  0.243E-05    1.02     277.6  T
     SCC iter.                  ...        0 min,  1.169 sec
     gradient                   ...        0 min,  0.491 sec
 * total energy  :  -345.6155581 Eh     change       -0.6171400E-02 Eh
   gradient norm :     0.0171244 Eh/α   predicted    -0.5859037E-02 (  -5.06%)
   displ. norm   :     0.7393093 α      lambda       -0.4706021E-02
   maximum displ.:     0.3873494 α      in ANC's #13, #31, #25, ...

........................................................................
.............................. CYCLE   20 ..............................
........................................................................
   1   -351.4290716 -0.351429E+03  0.574E-03    1.02       0.0  T
   2   -351.4290743 -0.272303E-05  0.521E-03    1.02       1.3  T
   3   -351.4290803 -0.597220E-05  0.217E-03    1.02       3.1  T
   4   -351.4290791  0.114996E-05  0.154E-03    1.02       4.4  T
   5   -351.4290803 -0.115370E-05  0.526E-04    1.02      12.9  T
   6   -351.4290804 -0.182315E-06  0.117E-04    1.02      57.7  T
   7   -351.4290804 -0.696377E-08  0.354E-05    1.02     191.1  T
     SCC iter.                  ...        0 min,  1.026 sec
     gradient                   ...        0 min,  0.488 sec
 * total energy  :  -345.6178895 Eh     change       -0.2331310E-02 Eh
   gradient norm :     0.0219293 Eh/α   predicted    -0.3639120E-02 (  56.10%)
   displ. norm   :     0.6943776 α      lambda       -0.5659655E-02
   maximum displ.:     0.3749510 α      in ANC's #13, #31, #16, ...
 * RMSD in coord.:     0.6562975 α      energy gain  -0.1030130E+01 Eh

generating ANC from model Hessian ...
Using Lindh-Hessian (1995)
 Shifting diagonal of input Hessian by    1.0011453420847001E-002
 Lowest  eigenvalues of input Hessian
    0.010000    0.010001    0.010003    0.010006    0.010007    0.010010
    0.000000    0.000000    0.000000    0.000000    0.000000    0.000000
    0.010015    0.010018    0.010027    0.010044    0.010102    0.010112
 Highest eigenvalues
    2.395852    2.403267    2.711870    2.713265    2.924638    2.925986


........................................................................
.............................. CYCLE   21 ..............................
........................................................................
   1   -351.4501204 -0.351450E+03  0.544E-03    1.02       0.0  T
   2   -351.4501228 -0.239705E-05  0.398E-03    1.02       1.7  T
   3   -351.4501254 -0.260708E-05  0.195E-03    1.02       3.5  T
   4   -351.4501244  0.104504E-05  0.143E-03    1.02       4.7  T
   5   -351.4501258 -0.138795E-05  0.364E-04    1.02      18.6  T
   6   -351.4501258 -0.772224E-07  0.101E-04    1.02      67.0  T
   7   -351.4501259 -0.746326E-08  0.316E-05    1.02     213.8  T
     SCC iter.                  ...        0 min,  1.020 sec
     gradient                   ...        0 min,  0.488 sec
 * total energy  :  -345.6219429 Eh     change       -0.4053414E-02 Eh
   gradient norm :     0.0129386 Eh/α   predicted     0.0000000E+00 (-100.00%)
   displ. norm   :     0.3483913 α      lambda       -0.1710922E-02
   maximum displ.:     0.2618140 α      in ANC's #35, #15, #36, ...

........................................................................
.............................. CYCLE   22 ..............................
........................................................................
   1   -351.4577165 -0.351458E+03  0.201E-03    1.02       0.0  T
   2   -351.4577169 -0.354919E-06  0.150E-03    1.02       4.5  T
   3   -351.4577175 -0.600570E-06  0.661E-04    1.02      10.2  T
   4   -351.4577174  0.686915E-07  0.524E-04    1.02      12.9  T
   5   -351.4577175 -0.115125E-06  0.187E-04    1.02      36.2  T
   6   -351.4577175 -0.187859E-07  0.638E-05    1.02     105.8  T
     SCC iter.                  ...        0 min,  0.882 sec
     gradient                   ...        0 min,  0.487 sec
 * total energy  :  -345.6235186 Eh     change       -0.1575730E-02 Eh
   gradient norm :     0.0075237 Eh/α   predicted    -0.9593167E-03 ( -39.12%)
   displ. norm   :     0.6820131 α      lambda       -0.3046687E-02
   maximum displ.:     0.4544174 α      in ANC's #35, #15, #36, ...

........................................................................
.............................. CYCLE   23 ..............................
........................................................................
   1   -351.4684287 -0.351468E+03  0.367E-03    1.02       0.0  T
   2   -351.4684298 -0.118638E-05  0.268E-03    1.02       2.5  T
   3   -351.4684319 -0.203804E-05  0.104E-03    1.02       6.5  T
   4   -351.4684317  0.215112E-06  0.902E-04    1.02       7.5  T
   5   -351.4684320 -0.374698E-06  0.305E-04    1.02      22.2  T
   6   -351.4684321 -0.421846E-07  0.990E-05    1.02      68.3  T
   7   -351.4684321 -0.693746E-08  0.334E-05    1.02     202.6  T
     SCC iter.                  ...        0 min,  1.023 sec
     gradient                   ...        0 min,  0.488 sec
 * total energy  :  -345.6258613 Eh     change       -0.2342678E-02 Eh
   gradient norm :     0.0134799 Eh/α   predicted    -0.2231938E-02 (  -4.73%)
   displ. norm   :     0.7490657 α      lambda       -0.3666199E-02
   maximum displ.:     0.4967746 α      in ANC's #35, #15, #39, ...

........................................................................
.............................. CYCLE   24 ..............................
........................................................................
   1   -351.4765982 -0.351477E+03  0.333E-03    1.02       0.0  T
   2   -351.4765993 -0.107372E-05  0.214E-03    1.02       3.2  T
   3   -351.4766006 -0.130449E-05  0.947E-04    1.02       7.1  T
   4   -351.4766005  0.663670E-07  0.761E-04    1.02       8.9  T
   5   -351.4766008 -0.254183E-06  0.255E-04    1.02      26.5  T
   6   -351.4766008 -0.409327E-07  0.840E-05    1.02      80.4  T
   7   -351.4766008 -0.480890E-08  0.257E-05    1.02     263.3  T
     SCC iter.                  ...        0 min,  1.018 sec
     gradient                   ...        0 min,  0.488 sec
 * total energy  :  -345.6280498 Eh     change       -0.2188487E-02 Eh
   gradient norm :     0.0177647 Eh/α   predicted    -0.2861653E-02 (  30.76%)
   displ. norm   :     0.6543594 α      lambda       -0.3240198E-02
   maximum displ.:     0.4161793 α      in ANC's #35, #15, #39, ...

........................................................................
.............................. CYCLE   25 ..............................
........................................................................
   1   -351.4834621 -0.351483E+03  0.340E-03    1.02       0.0  T
   2   -351.4834627 -0.549171E-06  0.226E-03    1.02       3.0  T
   3   -351.4834634 -0.687093E-06  0.126E-03    1.02       5.3  T
   4   -351.4834633  0.583847E-07  0.736E-04    1.02       9.2  T
   5   -351.4834636 -0.305990E-06  0.265E-04    1.02      25.5  T
   6   -351.4834637 -0.609501E-07  0.616E-05    1.02     109.7  T
   7   -351.4834637 -0.275162E-08  0.219E-05    1.02     309.2  T
     SCC iter.                  ...        0 min,  1.026 sec
     gradient                   ...        0 min,  0.489 sec
 * total energy  :  -345.6301249 Eh     change       -0.2075120E-02 Eh
   gradient norm :     0.0139097 Eh/α   predicted    -0.2313804E-02 (  11.50%)
   displ. norm   :     0.6696527 α      lambda       -0.2766128E-02
   maximum displ.:     0.4308159 α      in ANC's #35, #15, #39, ...

........................................................................
.............................. CYCLE   26 ..............................
........................................................................
   1   -351.4917229 -0.351492E+03  0.310E-03    1.02       0.0  T
   2   -351.4917236 -0.698936E-06  0.208E-03    1.02       3.2  T
   3   -351.4917243 -0.761581E-06  0.109E-03    1.02       6.2  T
   4   -351.4917241  0.233774E-06  0.874E-04    1.02       7.7  T
   5   -351.4917246 -0.452719E-06  0.213E-04    1.02      31.8  T
   6   -351.4917246 -0.283032E-07  0.709E-05    1.02      95.3  T
   7   -351.4917246 -0.415878E-08  0.227E-05    1.02     297.9  T
     SCC iter.                  ...        0 min,  1.024 sec
     gradient                   ...        0 min,  0.488 sec
 * total energy  :  -345.6320191 Eh     change       -0.1894218E-02 Eh
   gradient norm :     0.0108676 Eh/α   predicted    -0.2003279E-02 (   5.76%)
   displ. norm   :     0.7064252 α      lambda       -0.2358751E-02
   maximum displ.:     0.4494144 α      in ANC's #35, #15, #22, ...

........................................................................
.............................. CYCLE   27 ..............................
........................................................................
   1   -351.5021759 -0.351502E+03  0.315E-03    1.01       0.0  T
   2   -351.5021768 -0.845719E-06  0.226E-03    1.01       3.0  T
   3   -351.5021780 -0.127023E-05  0.966E-04    1.01       7.0  T
   4   -351.5021779  0.155163E-06  0.723E-04    1.01       9.3  T
   5   -351.5021781 -0.252564E-06  0.215E-04    1.01      31.4  T
   6   -351.5021782 -0.301538E-07  0.482E-05    1.01     140.1  T
   7   -351.5021782 -0.912564E-09  0.184E-05    1.01     367.1  T
     SCC iter.                  ...        0 min,  1.026 sec
     gradient                   ...        0 min,  0.490 sec
 * total energy  :  -345.6336054 Eh     change       -0.1586322E-02 Eh
   gradient norm :     0.0095794 Eh/α   predicted    -0.1767934E-02 (  11.45%)
   displ. norm   :     0.7031869 α      lambda       -0.2595008E-02
   maximum displ.:     0.4308928 α      in ANC's #35, #15, #22, ...

........................................................................
.............................. CYCLE   28 ..............................
........................................................................
   1   -351.5113840 -0.351511E+03  0.319E-03    1.01       0.0  T
   2   -351.5113849 -0.907020E-06  0.227E-03    1.01       3.0  T
   3   -351.5113863 -0.144605E-05  0.982E-04    1.01       6.9  T
   4   -351.5113861  0.168475E-06  0.790E-04    1.01       8.5  T
   5   -351.5113865 -0.330586E-06  0.240E-04    1.01      28.2  T
   6   -351.5113865 -0.204704E-07  0.716E-05    1.01      94.4  T
   7   -351.5113865 -0.300741E-08  0.301E-05    1.01     224.6  T
     SCC iter.                  ...        0 min,  1.021 sec
     gradient                   ...        0 min,  0.489 sec
 * total energy  :  -345.6344198 Eh     change       -0.8143972E-03 Eh
   gradient norm :     0.0153976 Eh/α   predicted    -0.1939089E-02 ( 138.10%)
   displ. norm   :     0.5100093 α      lambda       -0.2539829E-02
   maximum displ.:     0.3004341 α      in ANC's #35, #15, #22, ...

........................................................................
.............................. CYCLE   29 ..............................
........................................................................
   1   -351.5214279 -0.351521E+03  0.324E-03    1.01       0.0  T
   2   -351.5214283 -0.409652E-06  0.224E-03    1.01       3.0  T
   3   -351.5214287 -0.396614E-06  0.126E-03    1.01       5.4  T
   4   -351.5214287  0.631966E-07  0.747E-04    1.01       9.1  T
   5   -351.5214290 -0.294695E-06  0.194E-04    1.01      34.7  T
   6   -351.5214290 -0.279658E-07  0.336E-05    1.01     201.2  T
     SCC iter.                  ...        0 min,  0.878 sec
     gradient                   ...        0 min,  0.491 sec
 * total energy  :  -345.6359574 Eh     change       -0.1537564E-02 Eh
   gradient norm :     0.0075113 Eh/α   predicted    -0.1600232E-02 (   4.08%)
   displ. norm   :     0.6405707 α      lambda       -0.1436310E-02
   maximum displ.:     0.3912741 α      in ANC's #35, #15, #22, ...

........................................................................
.............................. CYCLE   30 ..............................
........................................................................
   1   -351.5302543 -0.351530E+03  0.266E-03    1.01       0.0  T
   2   -351.5302547 -0.433945E-06  0.186E-03    1.01       3.6  T
   3   -351.5302555 -0.797480E-06  0.900E-04    1.01       7.5  T
   4   -351.5302555  0.255615E-07  0.651E-04    1.01      10.4  T
   5   -351.5302557 -0.179824E-06  0.186E-04    1.01      36.4  T
   6   -351.5302557 -0.253121E-07  0.321E-05    1.01     210.8  T
     SCC iter.                  ...        0 min,  0.874 sec
     gradient                   ...        0 min,  0.495 sec
 * total energy  :  -345.6368760 Eh     change       -0.9186235E-03 Eh
   gradient norm :     0.0074425 Eh/α   predicted    -0.1012841E-02 (  10.26%)
   displ. norm   :     0.6621520 α      lambda       -0.1165087E-02
   maximum displ.:     0.3895248 α      in ANC's #15, #35, #22, ...

........................................................................
.............................. CYCLE   31 ..............................
........................................................................
   1   -351.5405374 -0.351541E+03  0.267E-03    1.00       0.0  T
   2   -351.5405378 -0.407124E-06  0.166E-03    1.00       4.1  T
   3   -351.5405385 -0.665660E-06  0.948E-04    1.00       7.1  T
   4   -351.5405386 -0.658239E-07  0.625E-04    1.00      10.8  T
   5   -351.5405387 -0.179449E-06  0.150E-04    1.00      45.1  T
   6   -351.5405387 -0.135690E-07  0.311E-05    1.00     217.5  T
     SCC iter.                  ...        0 min,  0.882 sec
     gradient                   ...        0 min,  0.489 sec
 * total energy  :  -345.6376648 Eh     change       -0.7888374E-03 Eh
   gradient norm :     0.0075958 Eh/α   predicted    -0.8379600E-03 (   6.23%)
   displ. norm   :     0.5891576 α      lambda       -0.9013617E-03
   maximum displ.:     0.3620652 α      in ANC's #15, #35, #22, ...

........................................................................
.............................. CYCLE   32 ..............................
........................................................................
   1   -351.5513850 -0.351551E+03  0.251E-03    1.00       0.0  T
   2   -351.5513855 -0.429373E-06  0.161E-03    1.00       4.2  T
   3   -351.5513860 -0.572257E-06  0.913E-04    1.00       7.4  T
   4   -351.5513861 -0.303501E-07  0.643E-04    1.00      10.5  T
   5   -351.5513863 -0.209666E-06  0.140E-04    1.00      48.3  T
   6   -351.5513863 -0.955436E-08  0.415E-05    1.00     162.9  T
     SCC iter.                  ...        0 min,  0.879 sec
     gradient                   ...        0 min,  0.490 sec
 * total energy  :  -345.6382887 Eh     change       -0.6238477E-03 Eh
   gradient norm :     0.0055885 Eh/α   predicted    -0.6071163E-03 (  -2.68%)
   displ. norm   :     0.4970032 α      lambda       -0.5373119E-03
   maximum displ.:     0.3251707 α      in ANC's #15, #35, #22, ...

........................................................................
.............................. CYCLE   33 ..............................
........................................................................
   1   -351.5601289 -0.351560E+03  0.202E-03    1.00       0.0  T
   2   -351.5601291 -0.234077E-06  0.132E-03    1.00       5.1  T
   3   -351.5601295 -0.398945E-06  0.712E-04    1.00       9.5  T
   4   -351.5601295 -0.299790E-07  0.506E-04    1.00      13.3  T
   5   -351.5601297 -0.116993E-06  0.120E-04    1.00      56.2  T
   6   -351.5601297 -0.831727E-08  0.260E-05    1.00     259.5  T
     SCC iter.                  ...        0 min,  0.877 sec
     gradient                   ...        0 min,  0.487 sec
 * total energy  :  -345.6387166 Eh     change       -0.4279194E-03 Eh
   gradient norm :     0.0048023 Eh/α   predicted    -0.3350189E-03 ( -21.71%)
   displ. norm   :     0.4146903 α      lambda       -0.4261658E-03
   maximum displ.:     0.2909570 α      in ANC's #15, #35, #22, ...

........................................................................
.............................. CYCLE   34 ..............................
........................................................................
   1   -351.5669153 -0.351567E+03  0.158E-03    1.00       0.0  T
   2   -351.5669154 -0.152627E-06  0.105E-03    1.00       6.5  T
   3   -351.5669156 -0.224866E-06  0.570E-04    1.00      11.8  T
   4   -351.5669157 -0.365001E-07  0.391E-04    1.00      17.3  T
   5   -351.5669157 -0.596167E-07  0.112E-04    1.00      60.1  T
   6   -351.5669157 -0.757734E-08  0.184E-05    1.00     368.0  T
     SCC iter.                  ...        0 min,  0.877 sec
     gradient                   ...        0 min,  0.497 sec
 * total energy  :  -345.6390771 Eh     change       -0.3604977E-03 Eh
   gradient norm :     0.0037649 Eh/α   predicted    -0.2497293E-03 ( -30.73%)
   displ. norm   :     0.3694092 α      lambda       -0.3676364E-03
   maximum displ.:     0.2744805 α      in ANC's #15, #22, #20, ...

........................................................................
.............................. CYCLE   35 ..............................
........................................................................
   1   -351.5708845 -0.351571E+03  0.107E-03    1.00       0.0  T
   2   -351.5708846 -0.702016E-07  0.672E-04    1.00      10.1  T
   3   -351.5708846 -0.894281E-07  0.406E-04    1.00      16.6  T
   4   -351.5708847 -0.388927E-07  0.253E-04    1.00      26.7  T
   5   -351.5708847 -0.248956E-07  0.744E-05    1.00      90.8  T
   6   -351.5708847 -0.211531E-08  0.146E-05    1.00     463.0  T
     SCC iter.                  ...        0 min,  0.879 sec
     gradient                   ...        0 min,  0.493 sec
 * total energy  :  -345.6394133 Eh     change       -0.3362352E-03 Eh
   gradient norm :     0.0031296 Eh/α   predicted    -0.2089057E-03 ( -37.87%)
   displ. norm   :     0.4074096 α      lambda       -0.4241209E-03
   maximum displ.:     0.3005274 α      in ANC's #15, #22, #20, ...

........................................................................
.............................. CYCLE   36 ..............................
........................................................................
   1   -351.5725003 -0.351573E+03  0.853E-04    1.00       0.0  T
   2   -351.5725003 -0.461656E-07  0.470E-04    1.00      14.4  T
   3   -351.5725004 -0.404767E-07  0.315E-04    1.00      21.4  T
   4   -351.5725004 -0.404584E-07  0.169E-04    1.00      40.0  T
   5   -351.5725004 -0.935319E-08  0.516E-05    1.00     130.8  T
     SCC iter.                  ...        0 min,  0.733 sec
     gradient                   ...        0 min,  0.489 sec
 * total energy  :  -345.6398015 Eh     change       -0.3881404E-03 Eh
   gradient norm :     0.0025688 Eh/α   predicted    -0.2472625E-03 ( -36.30%)
   displ. norm   :     0.4907712 α      lambda       -0.4775484E-03
   maximum displ.:     0.3514318 α      in ANC's #15, #22, #20, ...

........................................................................
.............................. CYCLE   37 ..............................
........................................................................
   1   -351.5718270 -0.351572E+03  0.856E-04    1.00       0.0  T
   2   -351.5718271 -0.611730E-07  0.408E-04    1.00      16.6  T
   3   -351.5718271 -0.215181E-07  0.285E-04    1.00      23.7  T
   4   -351.5718271 -0.328149E-07  0.154E-04    1.00      43.8  T
   5   -351.5718271 -0.857881E-08  0.512E-05    1.00     131.9  T
     SCC iter.                  ...        0 min,  0.731 sec
     gradient                   ...        0 min,  0.492 sec
 * total energy  :  -345.6402312 Eh     change       -0.4296931E-03 Eh
   gradient norm :     0.0029857 Eh/α   predicted    -0.2962871E-03 ( -31.05%)
   displ. norm   :     0.5206653 α      lambda       -0.4475046E-03
   maximum displ.:     0.3670862 α      in ANC's #15, #20, #22, ...

........................................................................
.............................. CYCLE   38 ..............................
........................................................................
   1   -351.5700666 -0.351570E+03  0.923E-04    1.00       0.0  T
   2   -351.5700667 -0.871179E-07  0.427E-04    1.00      15.8  T
   3   -351.5700667 -0.138995E-07  0.273E-04    1.00      24.8  T
   4   -351.5700667 -0.103476E-07  0.183E-04    1.00      37.0  T
   5   -351.5700668 -0.169881E-07  0.601E-05    1.00     112.4  T
     SCC iter.                  ...        0 min,  0.733 sec
     gradient                   ...        0 min,  0.488 sec
 * total energy  :  -345.6406327 Eh     change       -0.4014745E-03 Eh
   gradient norm :     0.0040783 Eh/α   predicted    -0.2844119E-03 ( -29.16%)
   displ. norm   :     0.4958006 α      lambda       -0.3857453E-03
   maximum displ.:     0.3471551 α      in ANC's #15, #20, #24, ...

........................................................................
.............................. CYCLE   39 ..............................
........................................................................
   1   -351.5684005 -0.351568E+03  0.910E-04    1.00       0.0  T
   2   -351.5684006 -0.980055E-07  0.427E-04    1.00      15.8  T
   3   -351.5684006 -0.175127E-07  0.261E-04    1.00      25.8  T
   4   -351.5684006 -0.536306E-08  0.178E-04    1.00      37.9  T
   5   -351.5684007 -0.143274E-07  0.607E-05    1.00     111.3  T
     SCC iter.                  ...        0 min,  0.735 sec
     gradient                   ...        0 min,  0.494 sec
 * total energy  :  -345.6409836 Eh     change       -0.3509039E-03 Eh
   gradient norm :     0.0048487 Eh/α   predicted    -0.2402871E-03 ( -31.52%)
   displ. norm   :     0.4690414 α      lambda       -0.3528899E-03
   maximum displ.:     0.3273288 α      in ANC's #15, #20, #24, ...

........................................................................
.............................. CYCLE   40 ..............................
........................................................................
   1   -351.5673621 -0.351567E+03  0.885E-04    1.00       0.0  T
   2   -351.5673622 -0.932563E-07  0.414E-04    1.00      16.3  T
   3   -351.5673622 -0.222039E-07  0.276E-04    1.00      24.5  T
   4   -351.5673622 -0.197293E-07  0.156E-04    1.00      43.2  T
   5   -351.5673622 -0.806835E-08  0.602E-05    1.00     112.3  T
     SCC iter.                  ...        0 min,  0.734 sec
     gradient                   ...        0 min,  0.495 sec
 * total energy  :  -345.6413091 Eh     change       -0.3255769E-03 Eh
   gradient norm :     0.0050418 Eh/α   predicted    -0.2152674E-03 ( -33.88%)
   displ. norm   :     0.4784444 α      lambda       -0.3622575E-03
   maximum displ.:     0.3340149 α      in ANC's #15, #20, #24, ...

........................................................................
.............................. CYCLE   41 ..............................
........................................................................
   1   -351.5668094 -0.351567E+03  0.866E-04    1.00       0.0  T
   2   -351.5668095 -0.839211E-07  0.413E-04    1.00      16.3  T
   3   -351.5668095 -0.317113E-07  0.289E-04    1.00      23.4  T
   4   -351.5668096 -0.310733E-07  0.130E-04    1.00      51.9  T
   5   -351.5668096 -0.335029E-08  0.612E-05    1.00     110.4  T
     SCC iter.                  ...        0 min,  0.731 sec
     gradient                   ...        0 min,  0.489 sec
 * total energy  :  -345.6416443 Eh     change       -0.3351964E-03 Eh
   gradient norm :     0.0048494 Eh/α   predicted    -0.2225957E-03 ( -33.59%)
   displ. norm   :     0.5181099 α      lambda       -0.3912444E-03
   maximum displ.:     0.3639343 α      in ANC's #15, #20, #24, ...

........................................................................
.............................. CYCLE   42 ..............................
........................................................................
   1   -351.5666350 -0.351567E+03  0.835E-04    1.00       0.0  T
   2   -351.5666351 -0.662370E-07  0.425E-04    1.00      15.9  T
   3   -351.5666351 -0.343510E-07  0.295E-04    1.00      22.9  T
   4   -351.5666352 -0.327259E-07  0.125E-04    1.00      54.0  T
   5   -351.5666352 -0.266829E-08  0.622E-05    1.00     108.6  T
     SCC iter.                  ...        0 min,  0.736 sec
     gradient                   ...        0 min,  0.495 sec
 * total energy  :  -345.6420036 Eh     change       -0.3592581E-03 Eh
   gradient norm :     0.0043677 Eh/α   predicted    -0.2481365E-03 ( -30.93%)
   displ. norm   :     0.5549482 α      lambda       -0.4033375E-03
   maximum displ.:     0.3943209 α      in ANC's #15, #20, #24, ...
 * RMSD in coord.:     0.6866497 α      energy gain  -0.2411413E-01 Eh

generating ANC from model Hessian ...
Using Lindh-Hessian (1995)
 Shifting diagonal of input Hessian by    1.0012499637295369E-002
 Lowest  eigenvalues of input Hessian
    0.010000    0.010002    0.010003    0.010007    0.010008    0.010011
    0.000000    0.000000    0.000000    0.000000    0.000000    0.000000
    0.010020    0.010021    0.010033    0.010061    0.010105    0.010114
 Highest eigenvalues
    2.470467    2.471004    2.792841    2.793051    3.015755    3.016086


........................................................................
.............................. CYCLE   43 ..............................
........................................................................
   1   -351.5668689 -0.351567E+03  0.774E-04    1.00       0.0  T
   2   -351.5668689 -0.519243E-07  0.392E-04    1.00      17.2  T
   3   -351.5668689 -0.151545E-07  0.279E-04    1.00      24.3  T
   4   -351.5668689 -0.244657E-07  0.130E-04    1.00      51.8  T
   5   -351.5668689 -0.511699E-08  0.549E-05    1.00     123.1  T
     SCC iter.                  ...        0 min,  0.733 sec
     gradient                   ...        0 min,  0.496 sec
 * total energy  :  -345.6423685 Eh     change       -0.3648647E-03 Eh
   gradient norm :     0.0036367 Eh/α   predicted     0.0000000E+00 (-100.00%)
   displ. norm   :     0.0726060 α      lambda       -0.7856848E-04
   maximum displ.:     0.0581154 α      in ANC's #14, #56, #34, ...

........................................................................
.............................. CYCLE   44 ..............................
........................................................................
   1   -351.5683189 -0.351568E+03  0.445E-04    1.00       0.0  T
   2   -351.5683189 -0.865731E-08  0.259E-04    1.00      26.1  T
   3   -351.5683190 -0.143101E-07  0.177E-04    1.00      38.2  T
   4   -351.5683190 -0.129001E-07  0.846E-05    1.00      79.9  T
     SCC iter.                  ...        0 min,  0.587 sec
     gradient                   ...        0 min,  0.494 sec
 * total energy  :  -345.6424332 Eh     change       -0.6471392E-04 Eh
   gradient norm :     0.0032931 Eh/α   predicted    -0.3950251E-04 ( -38.96%)
   displ. norm   :     0.2254469 α      lambda       -0.2389966E-03
   maximum displ.:     0.1657068 α      in ANC's #14, #56, #36, ...

........................................................................
.............................. CYCLE   45 ..............................
........................................................................
   1   -351.5729627 -0.351573E+03  0.157E-03    1.00       0.0  T
   2   -351.5729629 -0.154756E-06  0.830E-04    1.00       8.1  T
   3   -351.5729630 -0.108109E-06  0.622E-04    1.00      10.9  T
   4   -351.5729632 -0.164317E-06  0.284E-04    1.00      23.8  T
   5   -351.5729632 -0.190703E-07  0.860E-05    1.00      78.6  T
   6   -351.5729632 -0.231938E-08  0.294E-05    1.00     229.5  T
     SCC iter.                  ...        0 min,  0.881 sec
     gradient                   ...        0 min,  0.495 sec
 * total energy  :  -345.6425835 Eh     change       -0.1503128E-03 Eh
   gradient norm :     0.0040853 Eh/α   predicted    -0.1255722E-03 ( -16.46%)
   displ. norm   :     0.2637876 α      lambda       -0.2365758E-03
   maximum displ.:     0.1946984 α      in ANC's #14, #56, #27, ...

........................................................................
.............................. CYCLE   46 ..............................
........................................................................
   1   -351.5761107 -0.351576E+03  0.135E-03    1.00       0.0  T
   2   -351.5761108 -0.143895E-06  0.773E-04    1.00       8.7  T
   3   -351.5761110 -0.194755E-06  0.467E-04    1.00      14.5  T
   4   -351.5761111 -0.109014E-06  0.217E-04    1.00      31.2  T
   5   -351.5761112 -0.865134E-08  0.779E-05    1.00      86.7  T
   6   -351.5761112 -0.179728E-08  0.192E-05    1.00     351.7  T
     SCC iter.                  ...        0 min,  0.877 sec
     gradient                   ...        0 min,  0.488 sec
 * total energy  :  -345.6427128 Eh     change       -0.1293587E-03 Eh
   gradient norm :     0.0048853 Eh/α   predicted    -0.1265205E-03 (  -2.19%)
   displ. norm   :     0.3030339 α      lambda       -0.3156106E-03
   maximum displ.:     0.2215082 α      in ANC's #14, #27, #22, ...

........................................................................
.............................. CYCLE   47 ..............................
........................................................................
   1   -351.5777587 -0.351578E+03  0.136E-03    1.00       0.0  T
   2   -351.5777588 -0.128763E-06  0.902E-04    1.00       7.5  T
   3   -351.5777591 -0.254735E-06  0.445E-04    1.00      15.2  T
   4   -351.5777591 -0.592603E-07  0.292E-04    1.00      23.2  T
   5   -351.5777592 -0.282929E-07  0.104E-04    1.00      64.7  T
   6   -351.5777592 -0.361604E-08  0.259E-05    1.00     260.5  T
     SCC iter.                  ...        0 min,  0.878 sec
     gradient                   ...        0 min,  0.493 sec
 * total energy  :  -345.6427991 Eh     change       -0.8624454E-04 Eh
   gradient norm :     0.0050446 Eh/α   predicted    -0.1722974E-03 (  99.78%)
   displ. norm   :     0.1702683 α      lambda       -0.2803920E-03
   maximum displ.:     0.1164569 α      in ANC's #14, #28, #43, ...

........................................................................
.............................. CYCLE   48 ..............................
........................................................................
   1   -351.5781183 -0.351578E+03  0.761E-04    1.00       0.0  T
   2   -351.5781183 -0.152372E-07  0.546E-04    1.00      12.4  T
   3   -351.5781184 -0.511242E-07  0.297E-04    1.00      22.7  T
   4   -351.5781184  0.576603E-08  0.211E-04    1.00      32.1  T
   5   -351.5781184 -0.280741E-07  0.564E-05    1.00     119.8  T
   6   -351.5781184 -0.155717E-08  0.214E-05    1.00     315.8  T
     SCC iter.                  ...        0 min,  0.878 sec
     gradient                   ...        0 min,  0.528 sec
 * total energy  :  -345.6429243 Eh     change       -0.1251777E-03 Eh
   gradient norm :     0.0038265 Eh/α   predicted    -0.1442645E-03 (  15.25%)
   displ. norm   :     0.1380921 α      lambda       -0.1863954E-03
   maximum displ.:     0.0934650 α      in ANC's #14, #40, #27, ...

........................................................................
.............................. CYCLE   49 ..............................
........................................................................
   1   -351.5785612 -0.351579E+03  0.727E-04    1.00       0.0  T
   2   -351.5785612 -0.710011E-07  0.447E-04    1.00      15.1  T
   3   -351.5785613 -0.478271E-07  0.181E-04    1.00      37.4  T
   4   -351.5785613 -0.319449E-08  0.131E-04    1.00      51.6  T
     SCC iter.                  ...        0 min,  0.590 sec
     gradient                   ...        0 min,  0.496 sec
 * total energy  :  -345.6430271 Eh     change       -0.1028047E-03 Eh
   gradient norm :     0.0028556 Eh/α   predicted    -0.9497602E-04 (  -7.62%)
   displ. norm   :     0.2109507 α      lambda       -0.2110997E-03
   maximum displ.:     0.1431245 α      in ANC's #14, #39, #27, ...

........................................................................
.............................. CYCLE   50 ..............................
........................................................................
   1   -351.5783625 -0.351578E+03  0.110E-03    1.00       0.0  T
   2   -351.5783626 -0.144538E-06  0.509E-04    1.00      13.3  T
   3   -351.5783627 -0.526188E-07  0.294E-04    1.00      23.0  T
   4   -351.5783627 -0.408909E-07  0.187E-04    1.00      36.2  T
   5   -351.5783627 -0.123176E-07  0.656E-05    1.00     102.9  T
     SCC iter.                  ...        0 min,  0.733 sec
     gradient                   ...        0 min,  0.493 sec
 * total energy  :  -345.6430838 Eh     change       -0.5678074E-04 Eh
   gradient norm :     0.0041866 Eh/α   predicted    -0.1102510E-03 (  94.17%)
   displ. norm   :     0.1612338 α      lambda       -0.1924064E-03
   maximum displ.:     0.1123398 α      in ANC's #14, #28, #27, ...

........................................................................
.............................. CYCLE   51 ..............................
........................................................................
   1   -351.5782745 -0.351578E+03  0.572E-04    1.00       0.0  T
   2   -351.5782746 -0.431396E-07  0.261E-04    1.00      25.9  T
   3   -351.5782746 -0.122505E-07  0.162E-04    1.00      41.8  T
   4   -351.5782746 -0.672435E-08  0.877E-05    1.00      77.0  T
     SCC iter.                  ...        0 min,  0.588 sec
     gradient                   ...        0 min,  0.491 sec
 * total energy  :  -345.6432266 Eh     change       -0.1427740E-03 Eh
   gradient norm :     0.0029814 Eh/α   predicted    -0.9870711E-04 ( -30.86%)
   displ. norm   :     0.2612713 α      lambda       -0.1590224E-03
   maximum displ.:     0.1848540 α      in ANC's #14, #27, #28, ...

........................................................................
.............................. CYCLE   52 ..............................
........................................................................
   1   -351.5770039 -0.351577E+03  0.825E-04    1.00       0.0  T
   2   -351.5770040 -0.724529E-07  0.395E-04    1.00      17.1  T
   3   -351.5770040 -0.386781E-07  0.277E-04    1.00      24.4  T
   4   -351.5770040 -0.361428E-07  0.119E-04    1.00      56.7  T
   5   -351.5770040 -0.129950E-08  0.583E-05    1.00     116.0  T
     SCC iter.                  ...        0 min,  0.731 sec
     gradient                   ...        0 min,  0.495 sec
 * total energy  :  -345.6433442 Eh     change       -0.1175975E-03 Eh
   gradient norm :     0.0029855 Eh/α   predicted    -0.8493971E-04 ( -27.77%)
   displ. norm   :     0.2942135 α      lambda       -0.1406264E-03
   maximum displ.:     0.2035471 α      in ANC's #14, #27, #28, ...

........................................................................
.............................. CYCLE   53 ..............................
........................................................................
   1   -351.5752583 -0.351575E+03  0.876E-04    1.00       0.0  T
   2   -351.5752584 -0.640273E-07  0.496E-04    1.00      13.6  T
   3   -351.5752585 -0.731169E-07  0.309E-04    1.00      21.9  T
   4   -351.5752585 -0.424303E-07  0.154E-04    1.00      43.8  T
   5   -351.5752585 -0.443578E-08  0.667E-05    1.00     101.3  T
     SCC iter.                  ...        0 min,  0.734 sec
     gradient                   ...        0 min,  0.491 sec
 * total energy  :  -345.6434202 Eh     change       -0.7596582E-04 Eh
   gradient norm :     0.0039454 Eh/α   predicted    -0.7640414E-04 (   0.58%)
   displ. norm   :     0.2465217 α      lambda       -0.1440207E-03
   maximum displ.:     0.1685536 α      in ANC's #14, #27, #28, ...

........................................................................
.............................. CYCLE   54 ..............................
........................................................................
   1   -351.5747685 -0.351575E+03  0.645E-04    1.00       0.0  T
   2   -351.5747686 -0.247016E-07  0.410E-04    1.00      16.5  T
   3   -351.5747686 -0.619019E-07  0.216E-04    1.00      31.2  T
   4   -351.5747686 -0.200516E-07  0.119E-04    1.00      56.8  T
   5   -351.5747687 -0.328674E-08  0.635E-05    1.00     106.4  T
     SCC iter.                  ...        0 min,  0.733 sec
     gradient                   ...        0 min,  0.497 sec
 * total energy  :  -345.6435380 Eh     change       -0.1177697E-03 Eh
   gradient norm :     0.0034927 Eh/α   predicted    -0.7638821E-04 ( -35.14%)
   displ. norm   :     0.3233035 α      lambda       -0.1573173E-03
   maximum displ.:     0.2183845 α      in ANC's #14, #27, #28, ...

........................................................................
.............................. CYCLE   55 ..............................
........................................................................
   1   -351.5750117 -0.351575E+03  0.664E-04    1.00       0.0  T
   2   -351.5750117 -0.471931E-07  0.329E-04    1.00      20.6  T
   3   -351.5750117 -0.236957E-07  0.202E-04    1.00      33.4  T
   4   -351.5750118 -0.241688E-07  0.111E-04    1.00      60.9  T
   5   -351.5750118 -0.410444E-08  0.501E-05    1.00     134.9  T
     SCC iter.                  ...        0 min,  0.731 sec
     gradient                   ...        0 min,  0.496 sec
 * total energy  :  -345.6436681 Eh     change       -0.1301042E-03 Eh
   gradient norm :     0.0034083 Eh/α   predicted    -0.8687729E-04 ( -33.22%)
   displ. norm   :     0.4271335 α      lambda       -0.1919369E-03
   maximum displ.:     0.2837919 α      in ANC's #14, #27, #18, ...

........................................................................
.............................. CYCLE   56 ..............................
........................................................................
   1   -351.5759073 -0.351576E+03  0.961E-04    1.00       0.0  T
   2   -351.5759074 -0.122689E-06  0.403E-04    1.00      16.8  T
   3   -351.5759075 -0.115874E-07  0.251E-04    1.00      27.0  T
   4   -351.5759075 -0.234525E-07  0.186E-04    1.00      36.2  T
   5   -351.5759075 -0.172163E-07  0.523E-05    1.00     129.1  T
     SCC iter.                  ...        0 min,  0.743 sec
     gradient                   ...        0 min,  0.500 sec
 * total energy  :  -345.6438233 Eh     change       -0.1552043E-03 Eh
   gradient norm :     0.0037478 Eh/α   predicted    -0.1134799E-03 ( -26.88%)
   displ. norm   :     0.5048527 α      lambda       -0.2116358E-03
   maximum displ.:     0.3329777 α      in ANC's #14, #27, #18, ...

........................................................................
.............................. CYCLE   57 ..............................
........................................................................
   1   -351.5772395 -0.351577E+03  0.106E-03    1.00       0.0  T
   2   -351.5772396 -0.123296E-06  0.507E-04    1.00      13.3  T
   3   -351.5772396 -0.215674E-07  0.319E-04    1.00      21.2  T
   4   -351.5772397 -0.359267E-07  0.224E-04    1.00      30.2  T
   5   -351.5772397 -0.208330E-07  0.655E-05    1.00     103.2  T
   6   -351.5772397 -0.976968E-09  0.282E-05    1.00     239.7  T
     SCC iter.                  ...        0 min,  0.883 sec
     gradient                   ...        0 min,  0.496 sec
 * total energy  :  -345.6440099 Eh     change       -0.1866047E-03 Eh
   gradient norm :     0.0038474 Eh/α   predicted    -0.1327903E-03 ( -28.84%)
   displ. norm   :     0.6009371 α      lambda       -0.2419180E-03
   maximum displ.:     0.3955729 α      in ANC's #14, #27, #18, ...

........................................................................
.............................. CYCLE   58 ..............................
........................................................................
   1   -351.5791105 -0.351579E+03  0.102E-03    1.00       0.0  T
   2   -351.5791106 -0.821018E-07  0.591E-04    1.00      11.4  T
   3   -351.5791107 -0.667206E-07  0.347E-04    1.00      19.5  T
   4   -351.5791107 -0.416090E-07  0.222E-04    1.00      30.4  T
   5   -351.5791107 -0.195830E-07  0.782E-05    1.00      86.4  T
   6   -351.5791107 -0.198361E-08  0.226E-05    1.00     299.0  T
     SCC iter.                  ...        0 min,  0.880 sec
     gradient                   ...        0 min,  0.496 sec
 * total energy  :  -345.6442216 Eh     change       -0.2117666E-03 Eh
   gradient norm :     0.0034238 Eh/α   predicted    -0.1646417E-03 ( -22.25%)
   displ. norm   :     0.6522296 α      lambda       -0.2334368E-03
   maximum displ.:     0.4301642 α      in ANC's #14, #27, #25, ...

........................................................................
.............................. CYCLE   59 ..............................
........................................................................
   1   -351.5812223 -0.351581E+03  0.102E-03    1.00       0.0  T
   2   -351.5812223 -0.555235E-07  0.662E-04    1.00      10.2  T
   3   -351.5812225 -0.122454E-06  0.362E-04    1.00      18.7  T
   4   -351.5812225 -0.379526E-07  0.233E-04    1.00      29.0  T
   5   -351.5812225 -0.223268E-07  0.957E-05    1.00      70.6  T
   6   -351.5812225 -0.349166E-08  0.282E-05    1.00     240.0  T
     SCC iter.                  ...        0 min,  0.878 sec
     gradient                   ...        0 min,  0.494 sec
 * total energy  :  -345.6444163 Eh     change       -0.1946588E-03 Eh
   gradient norm :     0.0027136 Eh/α   predicted    -0.1663721E-03 ( -14.53%)
   displ. norm   :     0.6315978 α      lambda       -0.1756255E-03
   maximum displ.:     0.4172180 α      in ANC's #14, #27, #25, ...

........................................................................
.............................. CYCLE   60 ..............................
........................................................................
   1   -351.5830844 -0.351583E+03  0.102E-03    0.99       0.0  T
   2   -351.5830845 -0.597511E-07  0.592E-04    0.99      11.4  T
[...]
                           190 C    0.103
   187   6 C    3.986 --   188 C    1.415   186 C    1.399   211 H    0.972
                           191 C    0.104
   188   6 C    3.988 --   190 C    1.417   187 C    1.415   189 C    1.020
                           193 C    0.103
   189   6 C    3.996 --   188 C    1.020   212 H    0.983   214 H    0.982
                           213 H    0.971
   190   6 C    3.988 --   188 C    1.417   191 C    1.413   215 H    0.972
                           186 C    0.103
   191   6 C    3.988 --   193 C    1.419   190 C    1.413   192 C    1.020
                           187 C    0.104
   192   6 C    3.996 --   191 C    1.020   217 H    0.984   216 H    0.982
                           218 H    0.971
   193   6 C    3.986 --   191 C    1.419   186 C    1.395   219 H    0.972
                           188 C    0.103
   194   1 H    1.002 --   156 C    0.974
   195   1 H    1.005 --   157 C    0.973
   196   1 H    1.005 --   162 C    0.973
   197   1 H    1.002 --   163 C    0.974
   198   1 H    1.002 --   168 C    0.974
   199   1 H    1.005 --   169 C    0.973
   200   1 H    1.003 --   173 C    0.972
   201   1 H    1.004 --   175 C    0.984
   202   1 H    1.006 --   175 C    0.971
   203   1 H    1.004 --   175 C    0.982
   204   1 H    1.000 --   176 C    0.972
   205   1 H    1.004 --   178 C    0.984
   206   1 H    1.005 --   178 C    0.981
   207   1 H    1.006 --   178 C    0.972
   208   1 H    1.003 --   179 C    0.972
   209   1 H    1.005 --   181 C    0.973
   210   1 H    1.002 --   182 C    0.974
   211   1 H    1.003 --   187 C    0.972
   212   1 H    1.004 --   189 C    0.983
   213   1 H    1.006 --   189 C    0.971
   214   1 H    1.004 --   189 C    0.982
   215   1 H    1.000 --   190 C    0.972
   216   1 H    1.004 --   192 C    0.982
   217   1 H    1.004 --   192 C    0.984
   218   1 H    1.006 --   192 C    0.971
   219   1 H    1.003 --   193 C    0.972
 ---------------------------------------------------------------------------

Topologies differ in total number of bonds
Writing topology from bond orders to xtbtopo.mol

 dipole moment from electron density (au)
     X       Y       Z   
   0.0433   0.0192  -0.0452  total (Debye):    0.166

           -------------------------------------------------
          |                Geometry Summary                 |
           -------------------------------------------------

      molecular mass/u    :     1934.1802977
   center of mass at/Å    :       44.4146710      -0.0202018      -0.0160770
  moments of inertia/u·Å² :        0.3657563E+05   0.4359601E+06   0.4557846E+06
rotational constants/cm⁻¹ :        0.4608979E-03   0.3866784E-04   0.3698596E-04

 * 208 selected distances

     #   Z          #   Z                                           value/Å
     2   6 C        3   6 C                                       1.3898155
     3   6 C        4   6 C                                       1.4361623
     4   6 C        5   6 C                                       1.3566412
     5   6 C        6   6 C                                       1.4389117
     3   6 C        7   7 N                                       1.3654349
     6   6 C        7   7 N                                       1.3642331
     6   6 C        8   6 C                                       1.4001144
     8   6 C        9   6 C                                       1.3983078
     9   6 C       10   6 C                                       1.4368416
    10   6 C       11   6 C                                       1.3574940
     9   6 C       12   7 N                                       1.3699545
    11   6 C       13   6 C                                       1.4336117
    12   7 N       13   6 C                                       1.3594667
    13   6 C       14   6 C                                       1.4100977
    14   6 C       15   6 C                                       1.4099742
    15   6 C       16   6 C                                       1.4335564
    16   6 C       17   6 C                                       1.3574865
    17   6 C       18   6 C                                       1.4370003
    18   6 C       19   6 C                                       1.3985651
    20   6 C       21   6 C                                       1.3930979
    21   6 C       22   6 C                                       1.3920800
    22   6 C       24   6 C                                       1.3901615
    24   6 C       25   6 C                                       1.3932477
    20   6 C       27   6 C                                       1.3952817
    25   6 C       27   6 C                                       1.3894155
    19   6 C       28   6 C                                       1.4004356
    28   6 C       29   6 C                                       1.4389688
    29   6 C       30   6 C                                       1.3566292
     2   6 C       31   6 C                                       1.3898308
    30   6 C       31   6 C                                       1.4360551
    28   6 C       32   7 N                                       1.3642257
    31   6 C       32   7 N                                       1.3655417
    15   6 C       33   7 N                                       1.3595525
    18   6 C       33   7 N                                       1.3699548
    34   6 C       35   6 C                                       1.3943258
    35   6 C       36   6 C                                       1.3903844
    36   6 C       38   6 C                                       1.3921478
    38   6 C       39   6 C                                       1.3913004
    34   6 C       41   6 C                                       1.3937814
    39   6 C       41   6 C                                       1.3910736
     2   6 C       42   1 H                                       1.0857258
     4   6 C       43   1 H                                       1.0788882
     5   6 C       44   1 H                                       1.0783290
    10   6 C       45   1 H                                       1.0781713
    11   6 C       46   1 H                                       1.0784385
    16   6 C       47   1 H                                       1.0784698
    17   6 C       48   1 H                                       1.0781516
    21   6 C       49   1 H                                       1.0846120
    23   6 C       50   1 H                                       1.0899233
    23   6 C       51   1 H                                       1.0922979
    23   6 C       52   1 H                                       1.0907200
    24   6 C       53   1 H                                       1.0852272
    26   6 C       54   1 H                                       1.0898990
    26   6 C       55   1 H                                       1.0909353
    26   6 C       56   1 H                                       1.0921256
    27   6 C       57   1 H                                       1.0845554
    29   6 C       58   1 H                                       1.0782931
    30   6 C       59   1 H                                       1.0788770
    35   6 C       60   1 H                                       1.0845971
    37   6 C       61   1 H                                       1.0904786
    37   6 C       62   1 H                                       1.0900412
    37   6 C       63   1 H                                       1.0924046
    38   6 C       64   1 H                                       1.0852305
    40   6 C       65   1 H                                       1.0924976
    40   6 C       66   1 H                                       1.0901880
    40   6 C       67   1 H                                       1.0902241
    41   6 C       68   1 H                                       1.0846116
    70   6 C       71   6 C                                       1.3897811
    71   6 C       72   6 C                                       1.4362049
    72   6 C       73   6 C                                       1.3566088
    73   6 C       74   6 C                                       1.4389619
    71   6 C       75   7 N                                       1.3654173
    74   6 C       75   7 N                                       1.3641991
    74   6 C       76   6 C                                       1.4000449
    76   6 C       77   6 C                                       1.3983197
    77   6 C       78   6 C                                       1.4369245
    78   6 C       79   6 C                                       1.3573860
    77   6 C       80   7 N                                       1.3698153
    79   6 C       81   6 C                                       1.4337417
    80   7 N       81   6 C                                       1.3596950
    81   6 C       82   6 C                                       1.4097588
    82   6 C       83   6 C                                       1.4095099
    83   6 C       84   6 C                                       1.4337292
    84   6 C       85   6 C                                       1.3574336
    85   6 C       86   6 C                                       1.4371274
    86   6 C       87   6 C                                       1.3985933
    88   6 C       89   6 C                                       1.3931044
    89   6 C       90   6 C                                       1.3920564
    90   6 C       92   6 C                                       1.3901960
    92   6 C       93   6 C                                       1.3932110
    88   6 C       95   6 C                                       1.3952648
    93   6 C       95   6 C                                       1.3894512
    87   6 C       96   6 C                                       1.4003947
    96   6 C       97   6 C                                       1.4390415 (max)
    97   6 C       98   6 C                                       1.3565837
    70   6 C       99   6 C                                       1.3898111
    98   6 C       99   6 C                                       1.4361011
    96   6 C      100   7 N                                       1.3642606
    99   6 C      100   7 N                                       1.3655316
    83   6 C      101   7 N                                       1.3597695
    86   6 C      101   7 N                                       1.3697857
   102   6 C      103   6 C                                       1.3943537
   103   6 C      104   6 C                                       1.3903416
   104   6 C      106   6 C                                       1.3921519
   106   6 C      107   6 C                                       1.3912879
   102   6 C      109   6 C                                       1.3937291
   107   6 C      109   6 C                                       1.3911270
    70   6 C      110   1 H                                       1.0857152
    72   6 C      111   1 H                                       1.0788904
    73   6 C      112   1 H                                       1.0783330
    78   6 C      113   1 H                                       1.0781692
    79   6 C      114   1 H                                       1.0784295
    84   6 C      115   1 H                                       1.0784923
    85   6 C      116   1 H                                       1.0781860
    89   6 C      117   1 H                                       1.0846234
    91   6 C      118   1 H                                       1.0899257
    91   6 C      119   1 H                                       1.0923012
    91   6 C      120   1 H                                       1.0906778
    92   6 C      121   1 H                                       1.0852264
    94   6 C      122   1 H                                       1.0898995
    94   6 C      123   1 H                                       1.0909234
    94   6 C      124   1 H                                       1.0921278
    95   6 C      125   1 H                                       1.0845768
    97   6 C      126   1 H                                       1.0782999
    98   6 C      127   1 H                                       1.0788821
   103   6 C      128   1 H                                       1.0845969
   105   6 C      129   1 H                                       1.0904744
   105   6 C      130   1 H                                       1.0900434
   105   6 C      131   1 H                                       1.0924065
   106   6 C      132   1 H                                       1.0852294
   108   6 C      133   1 H                                       1.0925020
   108   6 C      134   1 H                                       1.0901930
   108   6 C      135   1 H                                       1.0902265
   109   6 C      136   1 H                                       1.0846116
   137   6 C      138   6 C                                       1.2249964
   139   6 C      140   6 C                                       1.2310397
   141   6 C      142   6 C                                       1.2310854
   143   6 C      144   6 C                                       1.2251595
   145   6 C      146   6 C                                       1.2248569
   147   6 C      148   6 C                                       1.2307506
   149   6 C      150   6 C                                       1.2306730
   151   6 C      152   6 C                                       1.2246850
   154   6 C      155   6 C                                       1.4101247
   155   6 C      156   6 C                                       1.4328703
   156   6 C      157   6 C                                       1.3579009
   157   6 C      158   6 C                                       1.4360895
   155   6 C      159   7 N                                       1.3596367
   158   6 C      159   7 N                                       1.3694705
   158   6 C      160   6 C                                       1.3989316
   160   6 C      161   6 C                                       1.3989272
   161   6 C      162   6 C                                       1.4361792
   162   6 C      163   6 C                                       1.3577808
   161   6 C      164   7 N                                       1.3695009
   163   6 C      165   6 C                                       1.4329704
   164   7 N      165   6 C                                       1.3597759
   165   6 C      166   6 C                                       1.4098043
   166   6 C      167   6 C                                       1.4097401
   167   6 C      168   6 C                                       1.4329923
   168   6 C      169   6 C                                       1.3578157
   169   6 C      170   6 C                                       1.4361770
   170   6 C      171   6 C                                       1.3989320
   172   6 C      173   6 C                                       1.3934777
   173   6 C      174   6 C                                       1.3914538
   174   6 C      176   6 C                                       1.3909238
   176   6 C      177   6 C                                       1.3924969
   172   6 C      179   6 C                                       1.3947286
   177   6 C      179   6 C                                       1.3899874
   171   6 C      180   6 C                                       1.3988798
   180   6 C      181   6 C                                       1.4360922
   181   6 C      182   6 C                                       1.3578633
   154   6 C      183   6 C                                       1.4101290
   182   6 C      183   6 C                                       1.4328272
   180   6 C      184   7 N                                       1.3695811
   183   6 C      184   7 N                                       1.3596280
   167   6 C      185   7 N                                       1.3598065
   170   6 C      185   7 N                                       1.3693183
   186   6 C      187   6 C                                       1.3937599
   187   6 C      188   6 C                                       1.3911586
   188   6 C      190   6 C                                       1.3913014
   190   6 C      191   6 C                                       1.3920804
   186   6 C      193   6 C                                       1.3944479
   191   6 C      193   6 C                                       1.3903658
   156   6 C      194   1 H                                       1.0784217
   157   6 C      195   1 H                                       1.0781135
   162   6 C      196   1 H                                       1.0780966
   163   6 C      197   1 H                                       1.0784140
   168   6 C      198   1 H                                       1.0784256
   169   6 C      199   1 H                                       1.0781198
   173   6 C      200   1 H                                       1.0845877
   175   6 C      201   1 H                                       1.0900770
   175   6 C      202   1 H                                       1.0924237
   175   6 C      203   1 H                                       1.0903754
   176   6 C      204   1 H                                       1.0852111
   178   6 C      205   1 H                                       1.0899829
   178   6 C      206   1 H                                       1.0905462
   178   6 C      207   1 H                                       1.0923540
   179   6 C      208   1 H                                       1.0845823
   181   6 C      209   1 H                                       1.0780825 (min)
   182   6 C      210   1 H                                       1.0784142
   187   6 C      211   1 H                                       1.0845840
   189   6 C      212   1 H                                       1.0901290
   189   6 C      213   1 H                                       1.0924754
   189   6 C      214   1 H                                       1.0902419
   190   6 C      215   1 H                                       1.0852104
   192   6 C      216   1 H                                       1.0903460
   192   6 C      217   1 H                                       1.0900973
   192   6 C      218   1 H                                       1.0924668
   193   6 C      219   1 H                                       1.0845980

 * 3 distinct bonds (by element types)

   Z      Z             #   av. dist./Å        max./Å        min./Å
   1 H    6 C          80     1.0856782     1.0925020     1.0780825
   6 C    6 C         104     1.3876691     1.4390415     1.2246850
   6 C    7 N          24     1.3647315     1.3699548     1.3594667


optimized geometry written to: xtbopt.xyz


           -------------------------------------------------
          | TOTAL ENERGY             -345.645311275853 Eh   |
          | GRADIENT NORM               0.000383478378 Eh/α |
          | HOMO-LUMO GAP               0.992330354021 eV   |
           -------------------------------------------------

------------------------------------------------------------------------
 * finished run on 2022/07/30 at 09:55:03.028     
------------------------------------------------------------------------
 total:
 * wall-time:     0 d,  0 h,  2 min, 38.093 sec
 *  cpu-time:     0 d,  0 h,  2 min, 37.372 sec
 * ratio c/w:     0.995 speedup
 SCF:
 * wall-time:     0 d,  0 h,  0 min,  6.091 sec
 *  cpu-time:     0 d,  0 h,  0 min,  6.061 sec
 * ratio c/w:     0.995 speedup
 ANC optimizer:
 * wall-time:     0 d,  0 h,  2 min, 31.784 sec
 *  cpu-time:     0 d,  0 h,  2 min, 31.099 sec
 * ratio c/w:     0.995 speedup

