219
 energy: -344.587759381141 gnorm: 1.513074891103 xtb: 6.5.1 (b24c23e)
Zn          24.94470100000000       -0.01754900000000       -0.01853200000000
C           21.58601200000000        0.18571200000000       -0.25384200000000
C           22.25033200000000        1.28654800000000        0.10763300000000
C           21.60068200000000        2.53003700000000        0.50507900000000
C           22.54339700000000        3.40587600000000        0.79523100000000
C           23.84911800000000        2.76510900000000        0.58791900000000
N           23.66995300000000        1.41655300000000        0.15484700000000
C           25.04429100000000        3.36061700000000        0.77419300000000
C           26.33960799999999        2.66915600000000        0.54637100000000
C           27.63637800000000        3.35579800000000        0.54726800000000
C           28.56956100000000        2.45283000000000        0.33020100000000
N           26.47247800000000        1.39490700000000        0.33442600000000
C           27.87593500000000        1.17782700000000        0.18690900000000
C           28.46752400000000       -0.01228400000000       -0.01207900000000
C           27.70895500000000       -1.27875900000000       -0.15318800000000
C           28.26614400000000       -2.48328400000000       -0.13687300000000
C           27.21890800000000       -3.44886700000000       -0.39684800000000
C           26.08474000000000       -2.77453500000000       -0.55165100000000
C           24.78278700000000       -3.39908500000000       -0.91028400000000
C           24.75772000000000       -4.84087900000000       -1.24484900000000
C           24.69124400000000       -5.25393100000000       -2.58310900000000
C           24.68660200000000       -6.61984000000000       -2.90261300000000
C           24.58082000000000       -7.05971100000000       -4.33294000000000
C           24.71440800000000       -7.57187800000000       -1.87165900000000
C           24.77147100000000       -7.16678600000000       -0.52981800000000
C           24.83821600000000       -8.19737300000000        0.55871300000000
C           24.80300900000000       -5.79839000000000       -0.22134700000000
C           23.62964200000000       -2.70468500000000       -0.92414200000000
C           22.30897200000000       -3.24512600000000       -1.24266400000000
C           21.45371799999999       -2.26062200000000       -1.05322700000000
C           22.21740100000000       -1.09268300000000       -0.61762100000000
N           23.48761900000000       -1.33967500000000       -0.53845400000000
N           26.30495900000000       -1.36932100000000       -0.40466800000000
C           25.09382300000000        4.77088200000000        1.21889300000000
C           24.77834000000000        5.80637300000000        0.32711300000000
C           24.82132500000000        7.14264900000000        0.75040000000000
C           24.50118100000000        8.25166400000000       -0.20814100000000
C           25.22196200000000        7.44075900000000        2.06142800000000
C           25.56299000000000        6.41220200000000        2.95247400000000
C           25.94532100000000        6.73297300000000        4.36713500000000
C           25.48187400000000        5.07731600000000        2.53045600000000
H           20.50306100000000        0.22269100000000       -0.27212100000000
H           20.53606800000000        2.71659000000000        0.56445500000000
H           22.35746400000000        4.41856200000000        1.12786100000000
H           27.81630200000000        4.41270700000000        0.69373100000000
H           29.63179900000000        2.65034400000000        0.27545900000000
H           29.31178300000000       -2.71474700000000        0.01331100000000
H           27.35447000000000       -4.51855300000000       -0.48329200000000
H           24.64715900000000       -4.51252300000000       -3.37291500000000
H           25.08331900000000       -8.03947300000000       -4.48049700000000
H           23.51049900000000       -7.15616600000000       -4.61046500000000
H           25.06534400000000       -6.32105600000000       -5.00707100000000
H           24.69327200000000       -8.62834200000000       -2.11315400000000
H           24.66965300000000       -7.74215300000000        1.55902900000000
H           24.05944700000000       -8.97230900000000        0.39523600000000
H           25.83739500000000       -8.68141200000000        0.54953700000000
H           24.85977600000000       -5.47467400000000        0.81207400000000
H           22.05512200000000       -4.24848100000000       -1.55776200000000
H           20.38211799999999       -2.32213400000000       -1.19039500000000
H           24.49431400000000        5.57086900000000       -0.69192100000000
H           24.01227800000000        9.09551800000000        0.32389100000000
H           23.80999000000000        7.89977600000000       -1.00308500000000
H           25.43846200000000        8.61533000000000       -0.67807700000000
H           25.26777800000000        8.47357500000000        2.38750600000000
H           25.03586000000000        6.74020300000000        5.00214700000000
H           26.43544899999999        7.72786000000000        4.42568500000000
H           26.65664400000000        5.97576600000000        4.76194700000000
H           25.72393700000000        4.27637200000000        3.21936900000000
Zn          63.87435000000000       -0.00462100000000       -0.00881900000000
C           67.23303900000001        0.16480900000000       -0.26954800000000
C           66.56871900000000       -0.48881200000000       -1.22625300000000
C           67.21836900000000       -1.21669000000000       -2.30996000000000
C           66.27565400000000       -1.73917600000000       -3.07041500000000
C           64.96993300000000       -1.36169200000000       -2.51268100000000
N           65.14909800000000       -0.57034800000000       -1.33797600000000
C           63.77476000000000       -1.70637100000000       -3.03280000000000
C           62.47944400000000       -1.29507600000000       -2.43208600000000
C           61.18267300000000       -1.48707400000000       -3.09133900000000
C           60.24949000000000       -1.02723300000000       -2.28448400000000
N           62.34657299999999       -0.73680400000000       -1.26719800000000
C           60.94311600000000       -0.53469000000000       -1.09976100000000
C           60.35152699999999       -0.01228400000000       -0.01207900000000
C           61.11009599999999        0.47578700000000        1.16506000000000
C           60.55290700000000        0.79541200000000        2.32651800000000
C           61.60014300000000        1.31389500000000        3.18157000000000
C           62.73431200000000        1.27487000000000        2.49080000000000
C           64.03626500000000        1.79318000000000        2.99083400000000
C           64.06133100000000        2.51586500000000        4.28251200000000
C           64.12780700000000        3.91620900000000        4.30671600000000
C           64.13244899999999        4.60330500000000        5.52970100000000
C           64.23823100000000        6.09954200000000        5.55403600000000
C           64.10464300000000        3.87810900000000        6.73109000000000
C           64.04758000000000        2.47654100000000        6.71552800000000
C           63.98083500000000        1.71791100000000        8.00838900000000
C           64.01604200000000        1.79935100000000        5.48708300000000
C           65.18940900000000        1.61319500000000        2.32002300000000
C           66.51007900000000        2.06956700000000        2.75043800000000
C           67.36533300000001        1.61356700000000        1.85757800000000
C           66.60165000000001        0.87006700000000        0.85705700000000
N           65.33143200000001        0.86278200000000        1.11632400000000
N           62.51409199999999        0.74253700000000        1.18204000000000
C           63.72522800000000       -2.52606000000000       -4.26353800000000
C           64.04071100000000       -1.95777000000000       -5.50634000000000
C           63.99772600000000       -2.73629700000000       -6.67197300000000
C           64.31787000000000       -2.12435000000000       -8.00397900000000
C           63.59708900000000       -4.07849000000000       -6.59336000000000
C           63.25606100000000       -4.64800600000000       -5.35742100000000
C           62.87373000000000       -6.09604500000000       -5.27172400000000
C           63.33717700000000       -3.87108500000000       -4.19276900000000
H           68.31598999999999        0.17207100000000       -0.31015300000000
H           68.28298300000000       -1.32565000000000       -2.47261100000000
H           66.46158699999999       -2.34055300000000       -3.95048200000000
H           61.00274900000000       -1.92195300000000       -4.06570500000000
H           59.18725199999999       -1.02963600000000       -2.48942900000000
H           59.50726800000000        0.71559500000000        2.59063900000000
H           61.46458100000000        1.69468400000000        4.18491500000000
H           64.17189200000000        4.46841800000000        3.37475900000000
H           63.73573200000000        6.51399700000000        6.45400000000000
H           65.30855200000001        6.39294800000000        5.56942600000000
H           63.75370700000000        6.54141500000000        4.65692200000000
H           64.12577899999999        4.40414000000000        7.67857500000000
H           64.14939800000001        0.63041500000000        7.84961200000000
H           64.75960499999999        2.09064000000000        8.70719000000000
H           62.98165599999999        1.86146300000000        8.47074300000000
H           63.95927500000000        0.71666500000000        5.46382800000000
H           66.76393000000000        2.65150800000000        3.62642400000000
H           68.43693300000000        1.76243700000000        1.87847600000000
H           64.32473700000000       -0.91345700000000       -5.56380600000000
H           64.80677300000001       -2.87025200000000       -8.66638200000000
H           65.00906200000000       -1.26287300000000       -7.88728200000000
H           63.38058899999999       -1.77421900000000       -8.48408400000000
H           63.55127299999999       -4.67917800000000       -7.49458600000000
H           63.78319100000000       -6.70797200000000       -5.10190500000000
H           62.38360200000000       -6.42922000000000       -6.21099100000000
H           62.16240700000000       -6.26447400000000       -4.43454400000000
H           63.09511400000000       -4.30981600000000       -3.23171300000000
C           30.88421300000000        0.00194100000000       -0.00212800000000
C           32.34244000000000       -0.01989500000000       -0.02000100000000
C           33.47636800000000       -0.04064900000000       -0.02149200000000
C           34.83775000000000       -0.05323900000000       -0.02368300000000
C           36.11196800000000       -0.04293200000000       -0.02844900000000
C           37.30043100000000       -0.02413400000000       -0.03460500000000
C           38.65279200000000        0.00065000000000       -0.01873700000000
C           39.75305900000000        0.00194100000000       -0.00212800000000
C           48.94587799999999        0.00194100000000       -0.00212800000000
C           50.40410400000000       -0.01989500000000       -0.02000100000000
C           51.53803199999999       -0.04064900000000       -0.02149200000000
C           52.89941399999999       -0.05323900000000       -0.02368300000000
C           54.17363300000000       -0.04293200000000       -0.02844900000000
C           55.36209499999999       -0.02413400000000       -0.03460500000000
C           56.71445600000000        0.00065000000000       -0.01873700000000
C           57.81472300000000        0.00194100000000       -0.00212800000000
Zn          44.30716100000000       -0.06943500000000       -0.03016200000000
C           40.93779899999999        0.02447200000000        0.02502700000000
C           41.59406800000000        1.19539200000000       -0.07363800000000
C           40.95410300000000        2.51243600000000       -0.08853900000000
C           41.89026600000000        3.42602300000000       -0.25011800000000
C           43.18670600000000        2.74759300000000       -0.35019100000000
N           43.00852600000000        1.33434800000000       -0.22908400000000
C           44.37075600000000        3.36751000000000       -0.54057700000000
C           45.66807799999999        2.64488900000000       -0.57576300000000
C           46.93705299999999        3.26207900000000       -0.98295800000000
C           47.88979100000000        2.36558500000000       -0.82816100000000
N           45.83604400000000        1.41728100000000       -0.19397300000000
C           47.23467800000000        1.16414100000000       -0.32722900000000
C           47.84961000000000        0.02447200000000        0.02502700000000
C           47.09843000000000       -1.15948100000000        0.49284900000000
C           47.63292900000000       -2.17189500000000        1.16367600000000
C           46.60051500000000       -3.17966200000000        1.31362800000000
C           45.50688600000000       -2.71505400000000        0.72002900000000
C           44.25391000000000       -3.48765000000000        0.54357900000000
C           44.31724400000000       -4.96721700000000        0.62958000000000
C           43.61957000000000       -5.65186300000000        1.63671500000000
C           43.69524800000000       -7.04896500000000        1.72911600000000
C           42.98517000000000       -7.76836800000000        2.83714500000000
C           44.50063000000000       -7.75943700000000        0.82636200000000
C           45.19583900000000       -7.08543400000000       -0.18853700000000
C           46.08038700000000       -7.84988900000000       -1.12837400000000
C           45.11296700000000       -5.68791200000000       -0.27307300000000
C           43.08200400000000       -2.87526400000000        0.28722100000000
C           41.80719400000000       -3.53512700000000        0.02493800000000
C           40.91893100000000       -2.57261500000000       -0.11796200000000
C           41.61550000000000       -1.29218000000000        0.04578100000000
N           42.87979099999999       -1.46216500000000        0.27963400000000
N           45.73091700000000       -1.41586000000000        0.17590600000000
C           44.40515299999999        4.83842900000000       -0.71357400000000
C           44.99252700000000        5.64721200000000        0.27008300000000
C           45.04098000000000        7.03942900000000        0.10829100000000
C           45.71273799999999        7.89454300000000        1.14185700000000
C           44.52223699999999        7.61849300000000       -1.05988400000000
C           43.92170200000000        6.81887000000000       -2.04400900000000
C           43.39985100000000        7.44152500000000       -3.30437700000000
C           43.87963700000000        5.42739600000000       -1.87358500000000
H           39.90010400000000        2.73206500000000        0.01619700000000
H           41.70497100000000        4.49175500000000       -0.28927700000000
H           47.08636500000000        4.27069600000000       -1.34552300000000
H           48.93939400000000        2.52077000000000       -1.03982000000000
H           48.65681900000000       -2.25504800000000        1.50323700000000
H           46.71699600000000       -4.14763200000000        1.78323500000000
H           43.02567699999999       -5.09529300000000        2.35243400000000
H           42.74631099999999       -8.81242800000000        2.54037700000000
H           43.63317700000000       -7.78750000000000        3.73812800000000
H           42.03227800000000       -7.25568200000000        3.08751100000000
H           44.58800400000000       -8.83629200000000        0.91390000000000
H           46.22923200000000       -7.29030900000000       -2.07706800000000
H           45.62343100000000       -8.83167500000000       -1.37728500000000
H           47.06840799999999       -8.01887400000000       -0.65014500000000
H           45.66615100000000       -5.15904600000000       -1.04039400000000
H           41.60456400000000       -4.59517300000000       -0.05194300000000
H           39.86950900000000       -2.72609000000000       -0.33001200000000
H           45.41335100000000        5.19087800000000        1.15874700000000
H           45.27934200000000        8.91735300000000        1.14813200000000
H           46.79744600000000        7.96252600000000        0.91615800000000
H           45.57940099999999        7.45991800000000        2.15527300000000
H           44.58562700000000        8.69073000000000       -1.20357300000000
H           42.97360799999999        8.44539300000000       -3.09398100000000
H           42.59867000000000        6.81504000000000       -3.75235000000000
H           44.22880100000000        7.54510700000000       -4.03564200000000
H           43.44395200000000        4.80038200000000       -2.64312300000000
219
 energy: -345.054888455563 gnorm: 0.582857200081 xtb: 6.5.1 (b24c23e)
Zn          24.94611331592733       -0.01628542729533       -0.02018259683908
C           21.58666450961330        0.17237438735602       -0.25821055834695
C           22.25596713522106        1.28830360080133        0.10856536092586
C           21.59951884596702        2.52521505719183        0.50332486397981
C           22.55074286977283        3.40816652336543        0.79588977455630
C           23.84709872288763        2.75997445839784        0.58684995829480
N           23.65416000171223        1.43154979851626        0.16057281174458
C           25.05681514644283        3.35784409356937        0.77254080673360
C           26.33475941545436        2.68213416169067        0.55019842148924
C           27.62720742012479        3.36366591105728        0.55014445993706
C           28.57087641996495        2.44787187167912        0.32888827058988
N           26.48399095885103        1.39388769530918        0.33305985912366
C           27.88560273255843        1.17581633490678        0.18623555358898
C           28.46658494883951       -0.02414324445324       -0.01315105580458
C           27.70872769483996       -1.26492507327416       -0.15527882427972
C           28.26847746494726       -2.50247113823646       -0.13901486172820
C           27.23719872896929       -3.45119070611363       -0.39506640797378
C           26.07491314661038       -2.76365241760410       -0.55378635270108
C           24.79411951445792       -3.39227771477535       -0.90702182448697
C           24.76184939261652       -4.84184831475701       -1.24475078003586
C           24.69152186613938       -5.25618014172258       -2.58026347446115
C           24.68478421133467       -6.61895826510314       -2.89937015821355
C           24.58222101703649       -7.06008758345438       -4.33453164389100
C           24.71469800864320       -7.56744542211748       -1.87075836681057
C           24.77219014796318       -7.16417793188166       -0.53162916981256
C           24.83729454255493       -8.19818021492035        0.56018804041996
C           24.80356878985578       -5.79961769908329       -0.22452308444345
C           23.62807000220636       -2.70338758051099       -0.92387048317792
C           22.31514660488616       -3.24606368331671       -1.24210203353823
C           21.44635554949673       -2.25203051115315       -1.05139305605833
C           22.20199279880194       -1.08565383874354       -0.61564540774378
N           23.48632450244677       -1.34888131258121       -0.54259231485112
N           26.31312956811582       -1.37488539935237       -0.40438466679845
C           25.09731979485494        4.77356877634473        1.21874984807762
C           24.77819792336035        5.80761417102306        0.33072498998187
C           24.82312416576920        7.14057760286310        0.75187242310845
C           24.49952404056874        8.25278838198667       -0.20879643013734
C           25.22173082069414        7.43670267687257        2.06019044472099
C           25.56046145113829        6.41165378308068        2.95026417492030
C           25.94724681889682        6.73336790269023        4.36829257174817
C           25.48225250592730        5.08041956806316        2.52827856105603
H           20.50339700765919        0.21975638269684       -0.27341096707393
H           20.53600649536350        2.71203985214408        0.56286874594228
H           22.36329197369534        4.41926512859441        1.12804365706835
H           27.81169000508780        4.41536885727142        0.69472589446315
H           29.63187823964016        2.64456793709928        0.27447959869129
H           29.31272761361046       -2.71797922802263        0.01332505845939
H           27.35746864135667       -4.51916820568329       -0.48219224767619
H           24.64770280966468       -4.51345482640604       -3.37170295839289
H           25.07983262880722       -8.03506772390601       -4.48017085910661
H           23.51633401910622       -7.15608696834347       -4.61049179754739
H           25.06190584208740       -6.32461140869095       -5.00434128896035
H           24.69349073597952       -8.62671340251240       -2.11284188913411
H           24.67110858503832       -7.74462142854440        1.55382593801682
H           24.06409482286654       -8.96963082719994        0.39648469649821
H           25.83183845882872       -8.68000528891875        0.55046602853006
H           24.85955786835741       -5.47522127476007        0.81064998240334
H           22.06068412279347       -4.24849740893874       -1.55737009832917
H           20.37980295104718       -2.31821141038824       -1.18963537831878
H           24.49451183242229        5.57097796894647       -0.69051048033646
H           24.01547050766222        9.09222356875137        0.32077188718313
H           23.81411641578705        7.90179343721702       -0.99993389549214
H           25.43300913295569        8.61455924596163       -0.67651328828177
H           25.26779235375529        8.47205763379407        2.38705261754584
H           25.04116814574773        6.74047144067719        5.00025891476669
H           26.43232264840897        7.72337456951769        4.42617291012867
H           26.65240212786885        5.97934584614317        4.76089946866681
H           25.72389096898153        4.27735102444099        3.21835014567722
Zn          63.87288364906127       -0.00338915175891       -0.01049329883337
C           67.23239535982655        0.17272969512460       -0.25793937773785
C           66.56306365883148       -0.49019480895216       -1.22767721628103
C           67.21952899872268       -1.21366117792772       -2.30581295733765
C           66.26830838412225       -1.74044809238366       -3.07243779934653
C           64.97193666164365       -1.35924970305668       -2.50808909186682
N           65.16491364942007       -0.58001854347191       -1.35077249769422
C           63.76232440434418       -1.70404414506483       -3.03061609599894
C           62.48427505428828       -1.30236180181945       -2.44348810891992
C           61.19187156276334       -1.49199741224110       -3.09809891998490
C           60.24822631430732       -1.02459073335652       -2.27995549231785
N           62.33527098506477       -0.73522657804722       -1.26684254892519
C           60.93369362525848       -0.53340279941775       -1.09783644124102
C           60.35315181534086       -0.00863680082295       -0.00060951932862
C           61.11066336847527        0.47388241876824        1.15102183447988
C           60.55067351999470        0.80278466039939        2.34426809548132
C           61.58184773164414        1.31283678394285        3.18430744069662
C           62.74419432843307        1.27390863819366        2.47978032336681
C           64.02493711373965        1.78814937038018        2.98521308707751
C           64.05720869108745        2.51603544430885        4.28346468990203
C           64.12752670798562        3.91409866104388        4.30967504509994
C           64.13426478297903        4.59993543901962        5.52975370581770
C           64.23683202286522        6.10117708493877        5.55395683193857
C           64.10435313136811        3.87601236324800        6.72708698889302
C           64.04686049788056        2.47755515402141        6.71251030770098
C           63.98175535374116        1.71672093322824        8.00957771792352
C           64.01548638655706        1.80275109839215        5.48737893080035
C           65.19098898948012        1.61257385578389        2.31885302125463
C           66.50389963854620        2.06929081089761        2.75149558768524
C           67.37270028759174        1.60940698799623        1.84982902566145
C           66.61707257461362        0.86620441629652        0.85084182969165
N           65.33273342185782        0.86932842444985        1.12402801527172
N           62.50608259261170        0.74392117046829        1.18758893093796
C           63.72174729517580       -2.52667115271633       -4.26614680596863
C           64.04084908120959       -1.96159250684595       -5.50652764441118
C           63.99592736460097       -2.73713511734328       -6.66956395701508
C           64.31952554048216       -2.12403456643358       -8.00524399279260
C           63.59731977136463       -4.07617509022817       -6.58981320393163
C           63.25858731977973       -4.64571824983876       -5.35750677318828
C           62.87180649364412       -6.09726928695716       -5.27178296064798
C           63.33680124162083       -3.86985821504532       -4.19636403453939
H           68.31566165349814        0.17412929030565       -0.30769197990443
H           68.28304922714842       -1.32285989979661       -2.46868245327068
H           66.45576543213417       -2.34092887119054       -3.95111302715441
H           61.00736527417511       -1.92364995136069       -4.06799806981000
H           59.18730389514503       -1.02715034394435       -2.48430815837521
H           59.50640794305388        0.71648927380619        2.59377754581521
H           61.46157573329234        1.69380604073701        4.18582694972885
H           64.17134906119942        4.46751235447116        3.37599355957291
H           63.73921699802459        6.51246170616566        6.44986171670206
H           65.30271940774314        6.39295566628156        5.56934251537281
H           63.75714457929048        6.53978420598202        4.66109647062702
H           64.12556056391909        4.40338980846210        7.67710255744862
H           64.14794261461618        0.63609938514359        7.85053485889761
H           64.75495915173161        2.08869431354680        8.70496925360330
H           62.98721026693464        1.86017747264674        8.46965385004603
H           63.95949253557232        0.71818838523588        5.46395736769756
H           66.75836985301946        2.65113929667071        3.62655309507616
H           68.43925549030419        1.76061663479009        1.87492050482097
H           64.32454004676079       -0.91484604574842       -5.56351780919863
H           64.80358311535220       -2.86633968839317       -8.66409059074929
H           65.00493620004661       -1.26646126524561       -7.88834315590791
H           63.38604053667726       -1.77550384946498       -8.48291252068091
H           63.55125867710609       -4.67832436350933       -7.49326083640572
H           63.77788405377510       -6.70623844622947       -5.10268767126218
H           62.38672544057819       -6.42844472486961       -6.20654978583040
H           62.16664747858100       -6.26446579141063       -4.43827333594906
H           63.09516026921320       -4.30910970203801       -3.23294002438383
C           30.89870313973498        0.00222264120157       -0.00004619221898
C           32.25175536071393       -0.02073423632271       -0.02147101195994
C           33.51597170391130       -0.04104104292697       -0.02150934781648
C           34.80401028199852       -0.05288531231928       -0.02316732005246
C           36.08146192023514       -0.04326615304659       -0.02882375338311
C           37.29424817810656       -0.02369284638228       -0.03528781022723
C           38.57068048671781       -0.00052923411762       -0.01936313751658
C           39.75329742328685       -0.00400960644176       -0.00121309378633
C           49.05534427229335       -0.01081476232436       -0.00160191729385
C           50.35479738918206       -0.02036469318043       -0.01943257270673
C           51.59097720414383       -0.04140484468186       -0.02208152997996
C           52.87775964344365       -0.05338211442019       -0.02379370921167
C           54.15474350616181       -0.04320921680764       -0.02833986670890
C           55.37298133029714       -0.02375695903038       -0.03479836004595
C           56.69606499218789        0.00052776840989       -0.01953296194181
C           57.90985095416330        0.00216337046804       -0.00080499914123
Zn          44.31106662867874       -0.06736467161591       -0.02919642835693
C           41.01388251029789        0.01234169427364        0.02450171888816
C           41.62604214430645        1.21188349797913       -0.07421994287353
C           40.95455539586066        2.50413507449077       -0.08801174269155
C           41.89935730173063        3.42926756358633       -0.25138522176553
C           43.18475525653378        2.74598387001131       -0.34985309595343
N           42.99929492612289        1.35471565249641       -0.22839206394507
C           44.38353685215425        3.36692807127317       -0.54247396079705
C           45.66137600476095        2.66597327060704       -0.57907583693408
C           46.92348607534834        3.27368111635852       -0.98326225438737
C           47.88629462049030        2.35837095745163       -0.82556003140753