172
 energy: -294.410110832850 gnorm: 0.000628529549 xtb: 6.5.1 (b24c23e)
C           23.13179225693467        0.06070853933808        0.05098414438409
C           23.74312340550656        1.28631792607237        0.28097615350288
C           23.09433536246769        2.53493596960674        0.49471177005267
C           24.05902710114528        3.48381012133201        0.68413480103002
C           25.32849434453101        2.84344112203517        0.60058733052324
N           25.08712731336595        1.52272450118151        0.34990105674775
C           26.59305720852089        3.43143095590128        0.71513782416924
C           26.62348396047685        4.88632420926555        0.99810433082119
C           27.19806094193699        5.78633485124998        0.10167381025068
C           27.19390957995538        7.13845385642682        0.40570671232176
N           26.66804388049070        7.62815752709135        1.52385360037618
C           26.12214031418835        6.77668118102100        2.38572190878222
C           26.07276769905726        5.40881085225037        2.16773690784494
C           27.80866557101457        2.75679244094650        0.58246805369664
C           29.10687025887209        3.38425625156852        0.75329172132093
C           30.02711586273587        2.41744387817953        0.55811498179585
N           27.96227891985950        1.43246737377739        0.30597914915481
C           29.28995475726102        1.20004498891900        0.27829232410886
C           29.92551597897592       -0.03239557421495        0.02460023432686
C           29.28814612013478       -1.26273152730513       -0.22330641029014
C           29.93045724746517       -2.49651056800944       -0.50953246506662
C           28.96172409281609       -3.44300562573917       -0.69782463308567
C           27.69655905923743       -2.81674193462787       -0.52219969765911
N           27.94600724596829       -1.49899063863780       -0.24325509842490
C           26.43262255314465       -3.40462708772541       -0.64009282827202
C           26.39533685995960       -4.85464611941774       -0.94110911680540
C           26.96446268606378       -5.79198114094216       -0.07941179800500
C           26.89812370269664       -7.13762573572254       -0.40495641169899
N           26.31757661694400       -7.58754279369651       -1.51269323036284
C           25.77483903883996       -6.70074721571122       -2.34101361196095
C           25.78661323109579       -5.33612904024626       -2.10002611579878
C           25.21634891116059       -2.72816724700512       -0.49748105236208
C           23.91138954185432       -3.36768563504223       -0.56847672807753
C           22.99827974906770       -2.39492163388535       -0.37591958056168
C           23.74395364766512       -1.16451855331555       -0.17716948214800
N           25.07636278892348       -1.40463329294379       -0.24926264924147
H           22.04650776665731        0.07089622240873        0.05273110910414
H           22.02532717350304        2.67625427407980        0.49483422726646
H           23.91085374444631        4.53720701255367        0.85815581568949
H           25.81021333319055        0.82192264465791        0.22646231080254
H           27.62732991916286        5.43348491757335       -0.82838707962670
H           27.63067087787472        7.85917473865760       -0.27937385718631
H           25.70424474231133        7.20646072882866        3.29146417434627
H           25.62728405841306        4.75138989031386        2.90503719098692
H           29.26967535584850        4.42038950391077        1.00182913086060
H           31.10180782065961        2.49299713842743        0.60147439796488
H           30.99846565261711       -2.63108207158576       -0.56897177902599
H           29.10748304839484       -4.48136465551545       -0.94702185783993
H           27.22547940497239       -0.80197733565731       -0.08617832623243
H           27.43533227150736       -5.47363175760273        0.84310813370553
H           27.32946219024178       -7.88614071377285        0.25334096539540
H           25.30992687860564       -7.09838925511767       -3.23841431817727
H           25.34313125167717       -4.64924920621406       -2.81089571884556
H           23.74219926294979       -4.42012694067621       -0.72951109976369
H           21.92251367434539       -2.47237329162339       -0.35644302091761
C           56.78623233612027       -0.07008684606206        0.02129077581711
C           56.17511045181629       -1.26967435358783       -0.31966581641376
C           56.82393080722711       -2.48107491637328       -0.69002491131113
C           55.85951433527382       -3.41682244566569       -0.93731083860582
C           54.59023829651804       -2.80976259249277       -0.71577576910157
N           54.83134582296589       -1.51471826525418       -0.35493466870506
C           53.32569615348265       -3.39252675337057       -0.85521429118212
C           53.29417490349233       -4.82179998916228       -1.24658225379974
C           52.69367171873543       -5.23154656481478       -2.43650376562627
C           52.69913622119156       -6.57712538745032       -2.76801876442581
N           53.25008667591464       -7.51061933126767       -1.99872860678266
C           53.82009149457223       -7.12933731803499       -0.86036932451270
C           53.87005030636286       -5.80760467974423       -0.44598650976785
C           52.11040019965260       -2.73259686414024       -0.65908911982473
C           50.81330628182703       -3.37864211598388       -0.75093505719239
C           49.89282225853893       -2.42471892458192       -0.50077083323158
N           51.95635361212259       -1.41798346285209       -0.34023012765637
C           50.62887471544360       -1.20045268786912       -0.24972084941621
C           49.99280164254263        0.02696560041189        0.02611466240637
C           50.63040935661005        1.24984186285414        0.30841249729691
C           49.98894337604651        2.49103152444266        0.56231172568478
C           50.95761383398164        3.42354677128829        0.81135322849361
C           52.22161629445186        2.77662908888396        0.72543648911721
N           51.97206908741747        1.46738077042197        0.40943097032331
C           53.48503081176781        3.35177355524833        0.89971946862169
C           53.52056182542295        4.78555153769012        1.27000662598469
C           52.92574690465514        5.24711276780263        2.44420286673540
C           52.99146489468205        6.59731064663460        2.75034904218373
N           53.59518316571607        7.48850646631711        1.97062358750820
C           54.16210379039030        7.05776872054621        0.84799792542287
C           54.15284265625796        5.72769121797916        0.45889316564606
C           54.70125246980138        2.67649355537333        0.75133056223847
C           56.00531759561927        3.27695664489870        0.98750757452343
C           56.91859942424772        2.31749492421135        0.73746997475172
C           56.17372521979423        1.12889661214287        0.36091345985760
N           54.84162084903992        1.37931122719072        0.38981120844567
H           57.87151753008023       -0.08023500389927        0.02000769618756
H           57.89273003143782       -2.60527593238443       -0.76064790242173
H           56.00800973303063       -4.43662452582567       -1.25324807469407
H           54.10824479705655       -0.83386598597654       -0.14814172911727
H           52.24366605287665       -4.50373146864923       -3.10106221156712
H           52.24280456018528       -6.91944462060372       -3.69229217620741
H           54.25796512185468       -7.91514064019685       -0.25165911328928
H           54.33561961394487       -5.54542530697145        0.49690603095847
H           50.65170331236159       -4.42285578552125       -0.96401321259560
H           48.81872752984997       -2.51600971864606       -0.47644753320444
H           48.92159829946129        2.64232313981655        0.54905732840311
H           50.81274995532797        4.46975955386193        1.02582729575607
H           52.69200708079570        0.76641449458806        0.26805874123653
H           52.43557407873976        4.55520131609023        3.11878087666297
H           52.54103199404002        6.97854346501731        3.66185890016627
H           54.64533014398808        7.80954403992523        0.23085402248781
H           54.61639212993691        5.42493564165455       -0.47235916263715
H           56.17385402557131        4.29077617219130        1.31299851701363
H           57.99389455489837        2.37527947387467        0.80115140957295
C           32.55395615667261       -0.05398432281918        0.00135330195992
C           31.33182624333363       -0.04702071947326        0.01322035918108
C           33.90338670058887       -0.05476174310350       -0.01181247191317
C           35.12558861418356       -0.04664555196027       -0.02540768468920
C           46.01527232748499        0.06598767102087       -0.00368750582587
C           44.79301549091204        0.06142872036586       -0.01710798198314
C           47.36459013327933        0.06158499454620        0.00827780856861
C           48.58667858867955        0.04568537873259        0.01855826091739
C           36.53106558532938       -0.03512455041948       -0.03761340844825
C           37.16958135259604       -1.26921525440152        0.18988319814704
C           36.53248656505343       -2.50913127990865        0.45473826516315
C           37.50600763512659       -3.45761944800242        0.61126900605082
C           38.76667552633619       -2.82426654233884        0.43748463700503
N           38.51256415601328       -1.50126202925378        0.19286584892514
C           40.03273096943642       -3.41622245126882        0.52113033986428
C           40.06214736876332       -4.87601227384838        0.77958316419183
C           40.65631005747511       -5.39297234297038        1.93040193944189
C           40.65467781697992       -6.76366300057992        2.13465360445003
N           40.11326561590325       -7.62308754327226        1.27730132702020
C           39.54842427025175       -7.13908803944372        0.17593073960644
C           39.49513673300739       -5.78456258490478       -0.11333502187502
C           41.25140059904655       -2.74903523099423        0.38776595809138
C           42.54379157663558       -3.41008936138409        0.42283273422521
C           43.47175369827846       -2.44349413154303        0.26704132403200
N           41.41517944611041       -1.41142672526073        0.19338242775802
C           42.74478013846200       -1.19672484471050        0.12897509094709
C           43.38772310307226        0.04712899055989       -0.03116290199557
C           42.74876229643071        1.28926951281301       -0.20829540721115
C           43.38514959397543        2.54849848889424       -0.35874157119832
C           42.41164745148114        3.49371478437566       -0.53454056486645
C           41.15178547432196        2.83616912096838       -0.50309169729190
N           41.40607448246769        1.50728128337578       -0.29340128402825
C           39.88626692418724        3.42086549085540       -0.63483119923470
C           39.85979414736502        4.88053255570216       -0.89429420479138
C           39.25760656183799        5.76532975493756       -0.00053697906055
C           39.26147570550611        7.12151476596963       -0.28609533440923
N           39.81265627871990        7.62925250723710       -1.38385914087655
C           40.38626581053404        6.79261095273394       -2.24255680523034
C           40.43787984413420        5.42218691653487       -2.04195434106679
C           38.66722097088650        2.74749180250926       -0.54239100013252
C           37.37477503691568        3.38226147088117       -0.73022601138295
C           36.44688527660512        2.41866164191233       -0.55652258416698
C           37.17397547836979        1.19611616854302       -0.27598895034664
N           38.50341740888025        1.42083555388773       -0.28305121373685
H           35.46545051036126       -2.64758416980400        0.52133213240140
H           37.36523405478728       -4.50209667669092        0.83652291223496
H           39.22739530268532       -0.79667246511021        0.04502948526156
H           41.09944862739378       -4.72888933565931        2.66286915958655
H           41.10689489936702       -7.18915781410334        3.02573990359208
H           39.11822032300864       -7.86611119538250       -0.50671165751682
H           39.03457567230021       -5.43718529084908       -1.03056660808121
H           42.69772740806489       -4.47076823460493        0.53712797625206
H           44.54530912915299       -2.53925237218612        0.23795124572614
H           44.45173237656154        2.70288739307075       -0.33125864725246
H           42.55168382138497        4.55428809760575       -0.66526608366795
H           40.69175424102333        0.79156476499062       -0.21099004461020
H           38.80647472264794        5.39776118870956        0.91334785546408
H           38.80252574338805        7.83031471219113        0.39691958957057
H           40.82485895585138        7.23681767829043       -3.13135332267376
H           40.90576236797026        4.77747045980692       -2.77649904197937
H           37.22039026475787        4.42069806973358       -0.97431511560786
H           35.37334279420341        2.49896230406998       -0.61662511885717
