      -----------------------------------------------------------      
     |                   =====================                   |     
     |                           x T B                           |     
     |                   =====================                   |     
     |                         S. Grimme                         |     
     |          Mulliken Center for Theoretical Chemistry        |     
     |                    University of Bonn                     |     
      -----------------------------------------------------------      

   * xtb version 6.5.1 (b24c23e) compiled by 'conda@728c89f4b128' on 2022-07-12

   xtb is free software: you can redistribute it and/or modify it under
   the terms of the GNU Lesser General Public License as published by
   the Free Software Foundation, either version 3 of the License, or
   (at your option) any later version.
   
   xtb is distributed in the hope that it will be useful,
   but WITHOUT ANY WARRANTY; without even the implied warranty of
   MERCHANTABILITY or FITNESS FOR A PARTICULAR PURPOSE.  See the
   GNU Lesser General Public License for more details.
   
   Cite this work as:
   * C. Bannwarth, E. Caldeweyher, S. Ehlert, A. Hansen, P. Pracht,
     J. Seibert, S. Spicher, S. Grimme, WIREs Comput. Mol. Sci., 2020, 11,
     e01493. DOI: 10.1002/wcms.1493
   
   for GFN2-xTB:
   * C. Bannwarth, S. Ehlert and S. Grimme., J. Chem. Theory Comput., 2019,
     15, 1652-1671. DOI: 10.1021/acs.jctc.8b01176
   for GFN1-xTB:
   * S. Grimme, C. Bannwarth, P. Shushkov, J. Chem. Theory Comput., 2017,
     13, 1989-2009. DOI: 10.1021/acs.jctc.7b00118
   for GFN0-xTB:
   * P. Pracht, E. Caldeweyher, S. Ehlert, S. Grimme, ChemRxiv, 2019, preprint.
     DOI: 10.26434/chemrxiv.8326202.v1
   for GFN-FF:
   * S. Spicher and S. Grimme, Angew. Chem. Int. Ed., 2020, 59, 15665-15673.
     DOI: 10.1002/anie.202004239
   
   for ALPB and GBSA implicit solvation:
   * S. Ehlert, M. Stahn, S. Spicher, S. Grimme, J. Chem. Theory Comput.,
     2021, 17, 4250-4261. DOI: 10.1021/acs.jctc.1c00471
   
   for DFT-D4:
   * E. Caldeweyher, C. Bannwarth and S. Grimme, J. Chem. Phys., 2017,
     147, 034112. DOI: 10.1063/1.4993215
   * E. Caldeweyher, S. Ehlert, A. Hansen, H. Neugebauer, S. Spicher,
     C. Bannwarth and S. Grimme, J. Chem. Phys., 2019, 150, 154122.
     DOI: 10.1063/1.5090222
   * E. Caldeweyher, J.-M. Mewes, S. Ehlert and S. Grimme, Phys. Chem. Chem. Phys.
     2020, 22, 8499-8512. DOI: 10.1039/D0CP00502A
   
   for sTDA-xTB:
   * S. Grimme and C. Bannwarth, J. Chem. Phys., 2016, 145, 054103.
     DOI: 10.1063/1.4959605
   
   in the mass-spec context:
   * V. Asgeirsson, C. Bauer and S. Grimme, Chem. Sci., 2017, 8, 4879.
     DOI: 10.1039/c7sc00601b
   * J. Koopman and S. Grimme, ACS Omega 2019, 4, 12, 15120-15133.
     DOI: 10.1021/acsomega.9b02011
   
   for metadynamics refer to:
   * S. Grimme, J. Chem. Theory Comput., 2019, 155, 2847-2862
     DOI: 10.1021/acs.jctc.9b00143
   
   for SPH calculations refer to:
   * S. Spicher and S. Grimme, J. Chem. Theory Comput., 2021, 17, 1701-1714
     DOI: 10.1021/acs.jctc.0c01306
   
   with help from (in alphabetical order)
   P. Atkinson, C. Bannwarth, F. Bohle, G. Brandenburg, E. Caldeweyher
   M. Checinski, S. Dohm, S. Ehlert, S. Ehrlich, I. Gerasimov, C. Hölzer
   A. Katbashev, J. Koopman, C. Lavigne, S. Lehtola, F. März, M. Müller,
   F. Musil, H. Neugebauer, J. Pisarek, C. Plett, P. Pracht, F. Pultar,
   J. Seibert, P. Shushkov, S. Spicher, M. Stahn, M. Steiner, T. Strunk,
   J. Stückrath, T. Rose, and J. Unsleber
   
 * started run on 2022/07/29 at 22:14:10.717     

           -------------------------------------------------
          |                Calculation Setup                |
           -------------------------------------------------

          program call               : xtb xtbopt.xyz --gfn 1 --vipea
          hostname                   : cx3-14-19.cx3.hpc.ic.ac.uk
          coordinate file            : xtbopt.xyz
          omp threads                :                     1

   ID    Z sym.   atoms
    1   27 Co     1, 37, 85
    2    6 C      2-6, 8-11, 13-18, 20-24, 38-42, 44-47, 49-54, 56-60, 73-84,
                  86-90, 92-95, 97-102, 104-108
    3    7 N      7, 12, 19, 25, 43, 48, 55, 61, 91, 96, 103, 109
    4    1 H      26-36, 62-72, 110-119

           -------------------------------------------------
          |                 I P E A - x T B                 |
           -------------------------------------------------

        Reference                      10.1039/c7sc00601b
      * Hamiltonian:
        H0-scaling (s, p, d)           2.150000    2.300000    2.000000
        zeta-weighting                 0.000000
      * Dispersion:
        s8                             2.400000
        a1                             0.630000
        a2                             5.000000
        s9                             0.000000
      * Repulsion:
        kExp                           1.500000
        rExp                           1.000000
      * Coulomb:
        alpha                          1.000000
        third order                    atomic
        anisotropic                    false
      * Halogen bond correction:
        rad-scale                      1.300000
        damping                        0.440000


          ...................................................
          :                      SETUP                      :
          :.................................................:
          :  # basis functions                 514          :
          :  # atomic orbitals                 511          :
          :  # shells                          325          :
          :  # electrons                       407          :
          :  # halogen bonds                     0          :
          :  max. iterations                   250          :
          :  Hamiltonian                  GFN1-xTB          :
          :  restarted?                      false          :
          :  GBSA solvation                  false          :
          :  PC potential                    false          :
          :  electronic temp.          300.0000000     K    :
          :  accuracy                    1.0000000          :
          :  -> integral cutoff          0.2500000E+02      :
          :  -> integral neglect         0.1000000E-07      :
          :  -> SCF convergence          0.1000000E-05 Eh   :
          :  -> wf. convergence          0.2000000E-04 e    :
          :  Broyden damping             0.4000000          :
          ...................................................

 iter      E             dE          RMSdq      gap      omega  full diag
   1   -250.1180747 -0.250118E+03  0.111E+01    0.27       0.0  T
   2   -233.3296216  0.167885E+02  0.116E+01    0.04       1.0  T
   3   -233.7839291 -0.454307E+00  0.937E+00    0.03       1.0  T
   4   -226.0642932  0.771964E+01  0.694E+00    0.09       1.0  T
   5    -45.5113454  0.180553E+03  0.115E+01    0.05       1.0  T
   6   -243.9252533 -0.198414E+03  0.500E+00    0.05       1.0  T
   7   -250.5208996 -0.659565E+01  0.340E+00    0.15       1.0  T
   8   -250.3967360  0.124164E+00  0.325E+00    0.10       1.0  T
   9   -250.7336855 -0.336949E+00  0.304E+00    0.12       1.0  T
  10   -250.7576702 -0.239847E-01  0.265E+00    0.15       1.0  T
  11   -251.2868292 -0.529159E+00  0.197E+00    0.20       1.0  T
  12   -251.0032303  0.283599E+00  0.205E+00    0.22       1.0  T
  13   -251.2699616 -0.266731E+00  0.167E+00    0.09       1.0  T
  14   -251.4217898 -0.151828E+00  0.189E+00    0.18       1.0  T
  15   -251.2262206  0.195569E+00  0.170E+00    0.18       1.0  T
  16   -251.6295744 -0.403354E+00  0.114E+00    0.10       1.0  T
  17   -251.7275927 -0.980183E-01  0.101E+00    0.01       1.0  T
  18   -251.0142342  0.713359E+00  0.220E+00    0.26       1.0  T
  19   -251.8563061 -0.842072E+00  0.809E-01    0.05       1.0  T
  20   -251.8986650 -0.423589E-01  0.460E-01    0.03       1.0  T
  21   -251.7781530  0.120512E+00  0.101E+00    0.08       1.0  T
  22   -251.7704839  0.766911E-02  0.965E-01    0.10       1.0  T
  23   -251.9025667 -0.132083E+00  0.509E-01    0.03       1.0  T
  24   -251.8371029  0.654638E-01  0.730E-01    0.07       1.0  T
  25   -251.9349801 -0.978772E-01  0.204E-01    0.00       1.0  T
  26   -251.9373982 -0.241809E-02  0.144E-01    0.01       1.0  T
  27   -251.9391365 -0.173830E-02  0.804E-02    0.00       1.0  T
  28   -251.9196495  0.194870E-01  0.328E-01    0.01       1.0  T
  29   -251.9338521 -0.142026E-01  0.186E-01    0.01       1.0  T
  30   -251.9380961 -0.424403E-02  0.110E-01    0.00       1.0  T
  31   -251.9403315 -0.223537E-02  0.264E-02    0.00       1.0  T
  32   -251.9402465  0.849665E-04  0.332E-02    0.00       1.0  T
  33   -251.9404568 -0.210330E-03  0.300E-03    0.00       3.1  T
  34   -251.9404540  0.288243E-05  0.441E-03    0.00       2.1  T
  35   -251.9404552 -0.125024E-05  0.384E-03    0.00       2.4  T
  36   -251.9404579 -0.266237E-05  0.118E-03    0.00       7.8  T
  37   -251.9404574  0.512419E-06  0.212E-03    0.00       4.3  T
  38   -251.9404581 -0.737902E-06  0.884E-04    0.00      10.4  T
  39   -251.9404579  0.215107E-06  0.128E-03    0.00       7.2  T
  40   -251.9404581 -0.242924E-06  0.687E-04    0.00      13.3  T
  41   -251.9404582 -0.678353E-07  0.312E-04    0.00      29.4  T
  42   -251.9404582 -0.169675E-07  0.117E-04    0.00      78.2  T
  43   -251.9404582 -0.228661E-08  0.405E-05    0.00     226.1  T

   *** convergence criteria satisfied after 43 iterations ***

         #    Occupation            Energy/Eh            Energy/eV
      -------------------------------------------------------------
         1        2.0000           -1.0182636             -27.7084
       ...           ...                  ...                  ...
       198        1.9999           -0.3584140              -9.7529
       199        1.9999           -0.3584080              -9.7528
       200        1.9998           -0.3582090              -9.7474
       201        1.9998           -0.3581499              -9.7458
       202        1.9998           -0.3579097              -9.7392
       203        1.0239           -0.3490270              -9.4975
       204        0.9945           -0.3489642              -9.4958 (HOMO)
       205        0.9827           -0.3489388              -9.4951 (LUMO)
       206                         -0.3138291              -8.5397
       207                         -0.3029540              -8.2438
       208                         -0.2955351              -8.0419
       209                         -0.2952290              -8.0336
       ...                                ...                  ...
       511                        487.6781437           13270.3977
      -------------------------------------------------------------
                  HL-Gap            0.0000254 Eh            0.0007 eV
             Fermi-level           -0.3489758 Eh           -9.4961 eV

 SCC (total)                   0 d,  0 h,  0 min,  5.645 sec
 SCC setup                      ...        0 min,  0.004 sec (  0.063%)
 Dispersion                     ...        0 min,  0.005 sec (  0.086%)
 classical contributions        ...        0 min,  0.001 sec (  0.026%)
 integral evaluation            ...        0 min,  0.400 sec (  7.086%)
 iterations                     ...        0 min,  4.301 sec ( 76.202%)
 molecular gradient             ...        0 min,  0.907 sec ( 16.073%)
 printout                       ...        0 min,  0.026 sec (  0.464%)

         :::::::::::::::::::::::::::::::::::::::::::::::::::::
         ::                     SUMMARY                     ::
         :::::::::::::::::::::::::::::::::::::::::::::::::::::
         :: total energy            -246.833539074030 Eh    ::
         :: gradient norm              0.075788139350 Eh/a0 ::
         :: HOMO-LUMO gap              0.000690010533 eV    ::
         ::.................................................::
         :: SCC energy              -251.940458215786 Eh    ::
         :: -> electrostatic           0.168312506363 Eh    ::
         :: repulsion energy           5.207665568078 Eh    ::
         :: dispersion energy         -0.100746426323 Eh    ::
         :: halogen bond corr.         0.000000000000 Eh    ::
         :: add. restraining           0.000000000000 Eh    ::
         :: total charge              -0.000000000000 e     ::
         :::::::::::::::::::::::::::::::::::::::::::::::::::::

           ------------------------------------------------- 
          |        vertical delta SCC IP calculation        |
           ------------------------------------------------- 
   1   -251.5335248 -0.251534E+03  0.472E-01    0.00       0.0  T
   2   -251.3690748  0.164450E+00  0.110E+00    0.00       1.0  T
   3   -249.9282102  0.144086E+01  0.284E+00    0.01       1.0  T
   4   -251.2456421 -0.131743E+01  0.126E+00    0.15       1.0  T
   5   -251.4049886 -0.159347E+00  0.870E-01    0.04       1.0  T
   6   -251.4569168 -0.519281E-01  0.702E-01    0.05       1.0  T
   7   -251.5290396 -0.721228E-01  0.369E-01    0.02       1.0  T
   8   -251.5488743 -0.198347E-01  0.196E-01    0.01       1.0  T
   9   -251.5527870 -0.391273E-02  0.129E-01    0.00       1.0  T
  10   -251.5498122  0.297482E-02  0.165E-01    0.01       1.0  T
  11   -251.5498556 -0.433587E-04  0.166E-01    0.01       1.0  T
  12   -251.5541658 -0.431027E-02  0.790E-02    0.01       1.0  T
  13   -251.5553244 -0.115856E-02  0.261E-02    0.00       1.0  T
  14   -251.5554288 -0.104431E-03  0.101E-02    0.00       1.0  T
  15   -251.5554368 -0.796175E-05  0.787E-03    0.00       1.2  T
  16   -251.5554498 -0.129645E-04  0.143E-03    0.00       6.4  T
  17   -251.5554463  0.343531E-05  0.425E-03    0.00       2.2  T
  18   -251.5554489 -0.257950E-05  0.250E-03    0.00       3.7  T
  19   -251.5554501 -0.121455E-05  0.754E-04    0.00      12.2  T
  20   -251.5554502 -0.336934E-07  0.659E-04    0.00      13.9  T
  21   -251.5554502 -0.723679E-07  0.308E-04    0.00      29.7  T
  22   -251.5554503 -0.189201E-07  0.743E-05    0.00     123.3  T
  23   -251.5554503 -0.893721E-09  0.351E-05    0.00     260.9  T
     SCC iter.                  ...        0 min,  2.282 sec
     gradient                   ...        0 min,  0.939 sec
------------------------------------------------------------------------
empirical IP shift (eV):    4.8455
delta SCC IP (eV):    5.6311
------------------------------------------------------------------------
           ------------------------------------------------- 
          |        vertical delta SCC EA calculation        |
           ------------------------------------------------- 
   1   -252.1795533 -0.252180E+03  0.906E-01    0.00       0.0  T
   2   -252.0091816  0.170372E+00  0.115E+00    0.08       1.0  T
   3   -251.7022117  0.306970E+00  0.171E+00    0.01       1.0  T
   4   -251.8171118 -0.114900E+00  0.157E+00    0.25       1.0  T
   5   -252.1542005 -0.337089E+00  0.816E-01    0.00       1.0  T
   6   -252.1316313  0.225692E-01  0.822E-01    0.06       1.0  T
   7   -252.1433757 -0.117444E-01  0.800E-01    0.02       1.0  T
   8   -252.1363258  0.704992E-02  0.767E-01    0.05       1.0  T
   9   -252.1654886 -0.291628E-01  0.687E-01    0.01       1.0  T
  10   -252.1987734 -0.332848E-01  0.543E-01    0.04       1.0  T
  11   -252.2101880 -0.114146E-01  0.496E-01    0.01       1.0  T
  12   -252.2380476 -0.278596E-01  0.297E-01    0.02       1.0  T
  13   -252.2444489 -0.640134E-02  0.225E-01    0.01       1.0  T
  14   -252.2379909  0.645806E-02  0.291E-01    0.00       1.0  T
  15   -252.2464307 -0.843980E-02  0.202E-01    0.01       1.0  T
  16   -252.2513776 -0.494686E-02  0.127E-01    0.00       1.0  T
  17   -252.2544849 -0.310735E-02  0.191E-02    0.00       1.0  T
  18   -252.2545077 -0.228014E-04  0.160E-02    0.00       1.0  T
  19   -252.2545505 -0.428271E-04  0.509E-03    0.00       1.8  T
  20   -252.2545358  0.147433E-04  0.104E-02    0.00       1.0  T
  21   -252.2545556 -0.197627E-04  0.743E-04    0.00      12.3  T
  22   -252.2545555  0.947665E-07  0.106E-03    0.00       8.7  T
  23   -252.2545557 -0.199404E-06  0.174E-04    0.00      52.6  T
  24   -252.2545556  0.100925E-07  0.291E-04    0.00      31.5  T
  25   -252.2545557 -0.151600E-07  0.494E-05    0.00     185.6  T
     SCC iter.                  ...        0 min,  2.508 sec
     gradient                   ...        0 min,  0.953 sec
------------------------------------------------------------------------
empirical EA shift (eV):    4.8455
delta SCC EA (eV):    3.7015
------------------------------------------------------------------------
           -------------------------------------------------
          |                Property Printout                |
           -------------------------------------------------

    * Orbital Energies and Occupations

         #    Occupation            Energy/Eh            Energy/eV
      -------------------------------------------------------------
         1        2.0000           -0.9614094             -26.1613
       ...           ...                  ...                  ...
       192        2.0000           -0.3244917              -8.8299
       193        2.0000           -0.3144518              -8.5567
       194        2.0000           -0.2905639              -7.9066
       195        2.0000           -0.2905591              -7.9065
       196        2.0000           -0.2905006              -7.9049
       197        2.0000           -0.2903325              -7.9003
       198        2.0000           -0.2903102              -7.8997
       199        2.0000           -0.2898218              -7.8865
       200        1.9999           -0.2890872              -7.8665
       201        1.9999           -0.2890609              -7.8657
       202        1.9999           -0.2889784              -7.8635
       203        1.3485           -0.2800287              -7.6200
       204        1.3367           -0.2800035              -7.6193 (HOMO)
       205        1.3152           -0.2799576              -7.6180 (LUMO)
       206                         -0.2582431              -7.0272
       207                         -0.2480800              -6.7506
       208                         -0.2402323              -6.5371
       209                         -0.2396661              -6.5216
       210                         -0.2396560              -6.5214
       211                         -0.2386065              -6.4928
       212                         -0.2122479              -5.7756
       213                         -0.2012599              -5.4766
       214                         -0.1961044              -5.3363
       215                         -0.1939521              -5.2777
       ...                                ...                  ...
       511                        487.7325800           13271.8790
      -------------------------------------------------------------
                  HL-Gap            0.0000459 Eh            0.0012 eV
             Fermi-level           -0.2793377 Eh           -7.6012 eV

  Mulliken/CM5 charges         n(s)   n(p)   n(d)
     1Co    0.27774  0.66291   0.330  0.980  7.412
     2C    -0.02367 -0.06501   1.084  2.939  0.000
     3C     0.05462  0.11538   1.110  2.836  0.000
     4C    -0.04303 -0.08954   1.084  2.959  0.000
     5C    -0.04260 -0.08911   1.084  2.959  0.000
     6C     0.05477  0.11561   1.109  2.836  0.000
     7N    -0.21827 -0.47410   1.320  3.898  0.000
     8C    -0.02145 -0.06287   1.085  2.937  0.000
     9C     0.05425  0.11418   1.108  2.838  0.000
    10C    -0.04103 -0.08756   1.084  2.957  0.000
    11C    -0.03990 -0.08548   1.082  2.958  0.000
    12N    -0.21625 -0.47154   1.322  3.895  0.000
    13C     0.06106  0.12659   1.116  2.823  0.000
    14C     0.01572  0.02264   1.079  2.905  0.000
    15C     0.06101  0.12651   1.116  2.823  0.000
    16C    -0.03992 -0.08550   1.082  2.958  0.000
    17C    -0.04105 -0.08758   1.084  2.957  0.000
    18C     0.05425  0.11420   1.108  2.838  0.000
    19N    -0.21628 -0.47153   1.321  3.895  0.000
    20C    -0.02147 -0.06288   1.085  2.937  0.000
    21C     0.05475  0.11558   1.109  2.836  0.000
    22C    -0.04260 -0.08911   1.084  2.959  0.000
    23C    -0.04304 -0.08955   1.084  2.959  0.000
    24C     0.05463  0.11540   1.109  2.836  0.000
    25N    -0.21827 -0.47413   1.320  3.898  0.000
    26H     0.01926  0.07822   0.981  0.000  0.000
    27H     0.02289  0.07950   0.977  0.000  0.000
    28H     0.02347  0.08008   0.977  0.000  0.000
    29H     0.02115  0.08016   0.979  0.000  0.000
    30H     0.02494  0.08158   0.975  0.000  0.000
    31H     0.02204  0.08024   0.978  0.000  0.000
    32H     0.02194  0.08011   0.978  0.000  0.000
    33H     0.02490  0.08154   0.975  0.000  0.000
    34H     0.02112  0.08013   0.979  0.000  0.000
    35H     0.02345  0.08005   0.977  0.000  0.000
    36H     0.02289  0.07950   0.977  0.000  0.000
    37Co    0.27780  0.66376   0.330  0.980  7.411
    38C    -0.02370 -0.06504   1.084  2.940  0.000
    39C     0.05462  0.11538   1.110  2.836  0.000
    40C    -0.04303 -0.08953   1.084  2.959  0.000
    41C    -0.04258 -0.08909   1.084  2.959  0.000
    42C     0.05475  0.11554   1.109  2.836  0.000
    43N    -0.21828 -0.47425   1.321  3.898  0.000
    44C    -0.02151 -0.06293   1.084  2.937  0.000
    45C     0.05432  0.11429   1.108  2.838  0.000
    46C    -0.04104 -0.08756   1.084  2.957  0.000
    47C    -0.03983 -0.08542   1.082  2.958  0.000
    48N    -0.21629 -0.47174   1.322  3.895  0.000
    49C     0.06094  0.12636   1.116  2.824  0.000
    50C     0.01579  0.02271   1.079  2.905  0.000
    51C     0.06087  0.12629   1.115  2.824  0.000
    52C    -0.03989 -0.08547   1.082  2.958  0.000
    53C    -0.04107 -0.08759   1.084  2.957  0.000
    54C     0.05431  0.11427   1.108  2.838  0.000
    55N    -0.21633 -0.47173   1.321  3.895  0.000
    56C    -0.02156 -0.06297   1.084  2.937  0.000
    57C     0.05475  0.11555   1.109  2.836  0.000
    58C    -0.04260 -0.08911   1.084  2.959  0.000
    59C    -0.04302 -0.08952   1.084  2.959  0.000
    60C     0.05461  0.11535   1.110  2.836  0.000
    61N    -0.21829 -0.47427   1.321  3.898  0.000
    62H     0.01929  0.07825   0.981  0.000  0.000
    63H     0.02289  0.07949   0.977  0.000  0.000
    64H     0.02346  0.08007   0.977  0.000  0.000
    65H     0.02118  0.08019   0.979  0.000  0.000
    66H     0.02493  0.08157   0.975  0.000  0.000
    67H     0.02198  0.08018   0.978  0.000  0.000
    68H     0.02186  0.08002   0.978  0.000  0.000
    69H     0.02487  0.08151   0.975  0.000  0.000
    70H     0.02113  0.08014   0.979  0.000  0.000
    71H     0.02344  0.08005   0.977  0.000  0.000
    72H     0.02288  0.07949   0.977  0.000  0.000
    73C    -0.01853 -0.01863   1.077  2.942  0.000
    74C    -0.01885 -0.01895   1.077  2.942  0.000
    75C    -0.02375 -0.02450   1.064  2.960  0.000
    76C    -0.01726 -0.01902   1.095  2.922  0.000
    77C    -0.02363 -0.02439   1.064  2.960  0.000
    78C    -0.01662 -0.01837   1.095  2.921  0.000
    79C    -0.01861 -0.01870   1.077  2.942  0.000
    80C    -0.01828 -0.01838   1.077  2.941  0.000
    81C    -0.02347 -0.02423   1.064  2.959  0.000
    82C    -0.01638 -0.01813   1.096  2.921  0.000
    83C    -0.02358 -0.02433   1.064  2.959  0.000
    84C    -0.01704 -0.01879   1.095  2.922  0.000
    85Co    0.28594  0.66772   0.328  0.976  7.411
    86C     0.01603  0.02297   1.079  2.905  0.000
    87C     0.06128  0.12693   1.116  2.823  0.000
    88C    -0.04009 -0.08567   1.082  2.958  0.000
    89C    -0.04067 -0.08720   1.084  2.957  0.000
    90C     0.05448  0.11451   1.107  2.839  0.000
    91N    -0.21576 -0.47051   1.321  3.895  0.000
    92C    -0.01877 -0.06023   1.085  2.933  0.000
    93C     0.05453  0.11461   1.107  2.839  0.000
    94C    -0.04069 -0.08722   1.084  2.957  0.000
    95C    -0.04005 -0.08564   1.082  2.958  0.000
    96N    -0.21576 -0.47060   1.321  3.895  0.000
    97C     0.06119  0.12678   1.115  2.823  0.000
    98C     0.01609  0.02303   1.079  2.905  0.000
    99C     0.06114  0.12672   1.115  2.823  0.000
   100C    -0.04007 -0.08565   1.082  2.958  0.000
   101C    -0.04070 -0.08723   1.084  2.957  0.000
   102C     0.05454  0.11463   1.107  2.839  0.000
   103N    -0.21580 -0.47056   1.321  3.895  0.000
   104C    -0.01878 -0.06024   1.085  2.933  0.000
   105C     0.05448  0.11450   1.107  2.839  0.000
   106C    -0.04066 -0.08719   1.084  2.957  0.000
   107C    -0.04007 -0.08566   1.082  2.958  0.000
   108C     0.06128  0.12693   1.115  2.823  0.000
   109N    -0.21575 -0.47055   1.321  3.895  0.000
   110H     0.02179  0.07998   0.978  0.000  0.000
   111H     0.02540  0.08204   0.975  0.000  0.000
   112H     0.02311  0.08216   0.977  0.000  0.000
   113H     0.02540  0.08204   0.975  0.000  0.000
   114H     0.02180  0.08000   0.978  0.000  0.000
   115H     0.02171  0.07988   0.978  0.000  0.000
   116H     0.02538  0.08203   0.975  0.000  0.000
   117H     0.02309  0.08215   0.977  0.000  0.000
   118H     0.02541  0.08206   0.975  0.000  0.000
   119H     0.02185  0.08003   0.978  0.000  0.000

Wiberg/Mayer (AO) data.
largest (>0.10) Wiberg bond orders for each atom

 ---------------------------------------------------------------------------
     #   Z sym  total        # sym  WBO       # sym  WBO       # sym  WBO
 ---------------------------------------------------------------------------
     1  27 Co   3.659 --    25 N    0.708     7 N    0.708    12 N    0.704
                            19 N    0.704
     2   6 C    3.848 --     3 C    1.393    24 C    1.393    26 H    0.997
     3   6 C    3.962 --     2 C    1.393     7 N    1.248     4 C    1.194
     4   6 C    3.860 --     5 C    1.648     3 C    1.194    27 H    0.995
     5   6 C    3.862 --     4 C    1.648     6 C    1.195    28 H    0.995
     6   6 C    3.960 --     8 C    1.389     7 N    1.250     5 C    1.195
     7   7 N    3.009 --     6 C    1.250     3 C    1.248     1 Co   0.708
     8   6 C    3.850 --     9 C    1.400     6 C    1.389    29 H    0.997
     9   6 C    3.952 --     8 C    1.400    12 N    1.237    10 C    1.198
    10   6 C    3.858 --    11 C    1.638     9 C    1.198    30 H    0.994
    11   6 C    3.853 --    10 C    1.638    13 C    1.214    31 H    0.999
    12   7 N    3.018 --    13 C    1.273     9 C    1.237     1 Co   0.704
    13   6 C    3.940 --    14 C    1.305    12 N    1.273    11 C    1.214
    14   6 C    3.878 --    15 C    1.305    13 C    1.305    76 C    1.209
    15   6 C    3.941 --    14 C    1.305    19 N    1.273    16 C    1.214
    16   6 C    3.853 --    17 C    1.638    15 C    1.214    32 H    0.999
    17   6 C    3.858 --    16 C    1.638    18 C    1.198    33 H    0.994
    18   6 C    3.952 --    20 C    1.400    19 N    1.237    17 C    1.198
    19   7 N    3.018 --    15 C    1.273    18 C    1.237     1 Co   0.704
    20   6 C    3.850 --    18 C    1.400    21 C    1.389    34 H    0.997
    21   6 C    3.960 --    20 C    1.389    25 N    1.250    22 C    1.195
    22   6 C    3.862 --    23 C    1.648    21 C    1.195    35 H    0.995
    23   6 C    3.860 --    22 C    1.648    24 C    1.194    36 H    0.995
    24   6 C    3.962 --     2 C    1.393    25 N    1.248    23 C    1.194
    25   7 N    3.009 --    21 C    1.250    24 C    1.248     1 Co   0.708
    26   1 H    1.041 --     2 C    0.997
    27   1 H    1.028 --     4 C    0.995
    28   1 H    1.028 --     5 C    0.995
    29   1 H    1.041 --     8 C    0.997
    30   1 H    1.028 --    10 C    0.994
    31   1 H    1.039 --    11 C    0.999
    32   1 H    1.039 --    16 C    0.999
    33   1 H    1.028 --    17 C    0.994
    34   1 H    1.041 --    20 C    0.997
    35   1 H    1.028 --    22 C    0.995
    36   1 H    1.028 --    23 C    0.995
    37  27 Co   3.664 --    61 N    0.709    43 N    0.709    48 N    0.705
                            55 N    0.705
    38   6 C    3.848 --    60 C    1.393    39 C    1.393    62 H    0.997
    39   6 C    3.962 --    38 C    1.393    43 N    1.248    40 C    1.194
    40   6 C    3.860 --    41 C    1.648    39 C    1.194    63 H    0.995
    41   6 C    3.862 --    40 C    1.648    42 C    1.195    64 H    0.995
    42   6 C    3.960 --    44 C    1.390    43 N    1.249    41 C    1.195
    43   7 N    3.010 --    42 C    1.249    39 C    1.248    37 Co   0.709
    44   6 C    3.850 --    45 C    1.399    42 C    1.390    65 H    0.997
    45   6 C    3.952 --    44 C    1.399    48 N    1.237    46 C    1.198
    46   6 C    3.859 --    47 C    1.638    45 C    1.198    66 H    0.994
    47   6 C    3.853 --    46 C    1.638    49 C    1.213    67 H    0.999
    48   7 N    3.018 --    49 C    1.271    45 C    1.237    37 Co   0.705
    49   6 C    3.941 --    50 C    1.307    48 N    1.271    47 C    1.213
    50   6 C    3.878 --    51 C    1.307    49 C    1.307    84 C    1.205
    51   6 C    3.941 --    50 C    1.307    55 N    1.271    52 C    1.213
    52   6 C    3.853 --    53 C    1.638    51 C    1.213    68 H    0.999
    53   6 C    3.858 --    52 C    1.638    54 C    1.198    69 H    0.994
    54   6 C    3.952 --    56 C    1.399    55 N    1.237    53 C    1.198
    55   7 N    3.018 --    51 C    1.271    54 C    1.237    37 Co   0.705
    56   6 C    3.850 --    54 C    1.399    57 C    1.389    70 H    0.997
    57   6 C    3.960 --    56 C    1.389    61 N    1.250    58 C    1.195
    58   6 C    3.862 --    59 C    1.648    57 C    1.195    71 H    0.995
    59   6 C    3.861 --    58 C    1.648    60 C    1.194    72 H    0.995
    60   6 C    3.962 --    38 C    1.393    61 N    1.248    59 C    1.194
    61   7 N    3.010 --    57 C    1.250    60 C    1.248    37 Co   0.709
    62   1 H    1.041 --    38 C    0.997
    63   1 H    1.028 --    40 C    0.995
    64   1 H    1.028 --    41 C    0.995
    65   1 H    1.040 --    44 C    0.997
    66   1 H    1.028 --    46 C    0.994
    67   1 H    1.039 --    47 C    0.999
    68   1 H    1.039 --    52 C    0.999
    69   1 H    1.028 --    53 C    0.994
    70   1 H    1.041 --    56 C    0.997
    71   1 H    1.028 --    58 C    0.995
    72   1 H    1.028 --    59 C    0.995
    73   6 C    3.845 --    74 C    2.388    77 C    1.350    76 C    0.177
    74   6 C    3.844 --    73 C    2.388    75 C    1.349    78 C    0.177
    75   6 C    3.831 --    76 C    2.490    74 C    1.349
    76   6 C    3.775 --    75 C    2.490    14 C    1.209    73 C    0.177
    77   6 C    3.829 --    78 C    2.487    73 C    1.350
    78   6 C    3.776 --    77 C    2.487    86 C    1.212    74 C    0.177
    79   6 C    3.843 --    80 C    2.393    83 C    1.345    82 C    0.177
    80   6 C    3.845 --    79 C    2.393    81 C    1.346    84 C    0.177
    81   6 C    3.829 --    82 C    2.491    80 C    1.346
    82   6 C    3.776 --    81 C    2.491    98 C    1.208    79 C    0.177
    83   6 C    3.832 --    84 C    2.494    79 C    1.345
    84   6 C    3.775 --    83 C    2.494    50 C    1.205    80 C    0.177
    85  27 Co   3.613 --    96 N    0.701   103 N    0.701   109 N    0.701
                            91 N    0.701
    86   6 C    3.870 --    87 C    1.303   108 C    1.302    78 C    1.212
    87   6 C    3.940 --    86 C    1.303    91 N    1.274    88 C    1.215
    88   6 C    3.852 --    89 C    1.635    87 C    1.215   110 H    1.000
    89   6 C    3.858 --    88 C    1.635    90 C    1.201   111 H    0.994
    90   6 C    3.949 --    92 C    1.395    91 N    1.238    89 C    1.201
    91   7 N    3.011 --    87 C    1.274    90 C    1.238    85 Co   0.701
    92   6 C    3.845 --    90 C    1.395    93 C    1.394   112 H    0.997
    93   6 C    3.949 --    92 C    1.394    96 N    1.239    94 C    1.201
    94   6 C    3.858 --    95 C    1.636    93 C    1.201   113 H    0.994
    95   6 C    3.851 --    94 C    1.636    97 C    1.215   114 H    0.999
    96   7 N    3.010 --    97 C    1.273    93 C    1.239    85 Co   0.701
    97   6 C    3.940 --    98 C    1.304    96 N    1.273    95 C    1.215
    98   6 C    3.870 --    99 C    1.304    97 C    1.304    82 C    1.208
    99   6 C    3.941 --    98 C    1.304   103 N    1.273   100 C    1.215
   100   6 C    3.852 --   101 C    1.636    99 C    1.215   115 H    0.999
   101   6 C    3.858 --   100 C    1.636   102 C    1.201   116 H    0.994
   102   6 C    3.949 --   104 C    1.394   103 N    1.239   101 C    1.201
   103   7 N    3.010 --    99 C    1.273   102 C    1.239    85 Co   0.701
   104   6 C    3.845 --   105 C    1.395   102 C    1.394   117 H    0.997
   105   6 C    3.949 --   104 C    1.395   109 N    1.238   106 C    1.201
   106   6 C    3.858 --   107 C    1.635   105 C    1.201   118 H    0.994
   107   6 C    3.851 --   106 C    1.635   108 C    1.215   119 H    1.000
   108   6 C    3.940 --    86 C    1.302   109 N    1.274   107 C    1.215
   109   7 N    3.011 --   108 C    1.274   105 C    1.238    85 Co   0.701
   110   1 H    1.039 --    88 C    1.000
   111   1 H    1.028 --    89 C    0.994
   112   1 H    1.040 --    92 C    0.997
   113   1 H    1.028 --    94 C    0.994
   114   1 H    1.039 --    95 C    0.999
   115   1 H    1.039 --   100 C    0.999
   116   1 H    1.028 --   101 C    0.994
   117   1 H    1.040 --   104 C    0.997
   118   1 H    1.028 --   106 C    0.994
   119   1 H    1.039 --   107 C    1.000
 ---------------------------------------------------------------------------

Topologies differ in total number of bonds
Writing topology from bond orders to xtbtopo.mol

 dipole moment from electron density (au)
     X       Y       Z   
 -55.9970   0.0675  -0.0368  total (Debye):  142.330


           -------------------------------------------------
          | TOTAL ENERGY             -247.147636519021 Eh   |
          | GRADIENT NORM               0.075728068196 Eh/α |
          | HOMO-LUMO GAP               0.001247965858 eV   |
           -------------------------------------------------
########################################################################
[WARNING] Runtime exception occurred
-1- restart_readRestart: Dimension missmatch in restart file.
########################################################################

------------------------------------------------------------------------
 * finished run on 2022/07/29 at 22:14:24.407     
------------------------------------------------------------------------
 total:
 * wall-time:     0 d,  0 h,  0 min, 13.690 sec
 *  cpu-time:     0 d,  0 h,  0 min, 13.591 sec
 * ratio c/w:     0.993 speedup
 SCF:
 * wall-time:     0 d,  0 h,  0 min, 13.260 sec
 *  cpu-time:     0 d,  0 h,  0 min, 13.166 sec
 * ratio c/w:     0.993 speedup

