      -----------------------------------------------------------      
     |                   =====================                   |     
     |                           x T B                           |     
     |                   =====================                   |     
     |                         S. Grimme                         |     
     |          Mulliken Center for Theoretical Chemistry        |     
     |                    University of Bonn                     |     
      -----------------------------------------------------------      

   * xtb version 6.5.1 (b24c23e) compiled by 'conda@728c89f4b128' on 2022-07-12

   xtb is free software: you can redistribute it and/or modify it under
   the terms of the GNU Lesser General Public License as published by
   the Free Software Foundation, either version 3 of the License, or
   (at your option) any later version.
   
   xtb is distributed in the hope that it will be useful,
   but WITHOUT ANY WARRANTY; without even the implied warranty of
   MERCHANTABILITY or FITNESS FOR A PARTICULAR PURPOSE.  See the
   GNU Lesser General Public License for more details.
   
   Cite this work as:
   * C. Bannwarth, E. Caldeweyher, S. Ehlert, A. Hansen, P. Pracht,
     J. Seibert, S. Spicher, S. Grimme, WIREs Comput. Mol. Sci., 2020, 11,
     e01493. DOI: 10.1002/wcms.1493
   
   for GFN2-xTB:
   * C. Bannwarth, S. Ehlert and S. Grimme., J. Chem. Theory Comput., 2019,
     15, 1652-1671. DOI: 10.1021/acs.jctc.8b01176
   for GFN1-xTB:
   * S. Grimme, C. Bannwarth, P. Shushkov, J. Chem. Theory Comput., 2017,
     13, 1989-2009. DOI: 10.1021/acs.jctc.7b00118
   for GFN0-xTB:
   * P. Pracht, E. Caldeweyher, S. Ehlert, S. Grimme, ChemRxiv, 2019, preprint.
     DOI: 10.26434/chemrxiv.8326202.v1
   for GFN-FF:
   * S. Spicher and S. Grimme, Angew. Chem. Int. Ed., 2020, 59, 15665-15673.
     DOI: 10.1002/anie.202004239
   
   for ALPB and GBSA implicit solvation:
   * S. Ehlert, M. Stahn, S. Spicher, S. Grimme, J. Chem. Theory Comput.,
     2021, 17, 4250-4261. DOI: 10.1021/acs.jctc.1c00471
   
   for DFT-D4:
   * E. Caldeweyher, C. Bannwarth and S. Grimme, J. Chem. Phys., 2017,
     147, 034112. DOI: 10.1063/1.4993215
   * E. Caldeweyher, S. Ehlert, A. Hansen, H. Neugebauer, S. Spicher,
     C. Bannwarth and S. Grimme, J. Chem. Phys., 2019, 150, 154122.
     DOI: 10.1063/1.5090222
   * E. Caldeweyher, J.-M. Mewes, S. Ehlert and S. Grimme, Phys. Chem. Chem. Phys.
     2020, 22, 8499-8512. DOI: 10.1039/D0CP00502A
   
   for sTDA-xTB:
   * S. Grimme and C. Bannwarth, J. Chem. Phys., 2016, 145, 054103.
     DOI: 10.1063/1.4959605
   
   in the mass-spec context:
   * V. Asgeirsson, C. Bauer and S. Grimme, Chem. Sci., 2017, 8, 4879.
     DOI: 10.1039/c7sc00601b
   * J. Koopman and S. Grimme, ACS Omega 2019, 4, 12, 15120-15133.
     DOI: 10.1021/acsomega.9b02011
   
   for metadynamics refer to:
   * S. Grimme, J. Chem. Theory Comput., 2019, 155, 2847-2862
     DOI: 10.1021/acs.jctc.9b00143
   
   for SPH calculations refer to:
   * S. Spicher and S. Grimme, J. Chem. Theory Comput., 2021, 17, 1701-1714
     DOI: 10.1021/acs.jctc.0c01306
   
   with help from (in alphabetical order)
   P. Atkinson, C. Bannwarth, F. Bohle, G. Brandenburg, E. Caldeweyher
   M. Checinski, S. Dohm, S. Ehlert, S. Ehrlich, I. Gerasimov, C. Hölzer
   A. Katbashev, J. Koopman, C. Lavigne, S. Lehtola, F. März, M. Müller,
   F. Musil, H. Neugebauer, J. Pisarek, C. Plett, P. Pracht, F. Pultar,
   J. Seibert, P. Shushkov, S. Spicher, M. Stahn, M. Steiner, T. Strunk,
   J. Stückrath, T. Rose, and J. Unsleber
   
 * started run on 2022/07/26 at 17:01:37.272     

           -------------------------------------------------
          |                Calculation Setup                |
           -------------------------------------------------

          program call               : xtb H_C8_6.xyz --gfn 1 --opt -T 48
          hostname                   : cx3-6-14.cx3.hpc.ic.ac.uk
          coordinate file            : H_C8_6.xyz
          omp threads                :                     1

   ID    Z sym.   atoms
    1    6 C      1-5, 7-10, 12-17, 19-23, 38-42, 44-47, 49-54, 56-60,
                  75-119, 121-124, 126-131, 133-137, 151-155, 157-160,
                  162-167, 169-173, 187-191, 193-196, 198-203, 205-209,
                  223-227, 229-232, 234-239, 241-245
    2    7 N      6, 11, 18, 24, 43, 48, 55, 61, 120, 125, 132, 138, 156,
                  161, 168, 174, 192, 197, 204, 210, 228, 233, 240, 246
    3    1 H      25-37, 62-74, 139-150, 175-186, 211-222, 247-258

molecular fragmentation (1/2 indicates fragments):
111111111111111111111111111111111111122222222222222222222222222222222222
222222222222222222222222222222222222222222222222222222222222222222222222
222222222222222222222222222222222222222222222222222222222222222222222222
222222222222222222222222222222222222222222
# atoms in fragment 1/2:    37   221
 fragment masses (1/2) :      309.34     2023.12
CMA distance (Bohr)    : 104.352
constraining FC (au)   :  0.0500
########################################################################
[WARNING] Please study the warnings concerning your input carefully
-1- prog_main_parseArguments: Unknown option '-T' provided
########################################################################

           -------------------------------------------------
          |                 G F N 1 - x T B                 |
           -------------------------------------------------

        Reference                      10.1021/acs.jctc.7b00118
      * Hamiltonian:
        H0-scaling (s, p, d)           1.850000    2.250000    2.000000
        zeta-weighting                 0.000000
      * Dispersion:
        s8                             2.400000
        a1                             0.630000
        a2                             5.000000
        s9                             0.000000
      * Repulsion:
        kExp                           1.500000
        rExp                           1.000000
      * Coulomb:
        alpha                          2.000000
        third order                    atomic
        anisotropic                    false
      * Halogen bond correction:
        rad-scale                      1.300000
        damping                        0.440000


          ...................................................
          :                      SETUP                      :
          :.................................................:
          :  # basis functions                 884          :
          :  # atomic orbitals                 884          :
          :  # shells                          516          :
          :  # electrons                       834          :
          :  # halogen bonds                     0          :
          :  max. iterations                   250          :
          :  Hamiltonian                  GFN1-xTB          :
          :  restarted?                      false          :
          :  GBSA solvation                  false          :
          :  PC potential                    false          :
          :  electronic temp.          300.0000000     K    :
          :  accuracy                    1.0000000          :
          :  -> integral cutoff          0.2500000E+02      :
          :  -> integral neglect         0.1000000E-07      :
          :  -> SCF convergence          0.1000000E-05 Eh   :
          :  -> wf. convergence          0.2000000E-04 e    :
          :  Broyden damping             0.4000000          :
          ...................................................

 iter      E             dE          RMSdq      gap      omega  full diag
   1   -460.0980565 -0.460098E+03  0.107E+01    0.00       0.0  T
   2   -423.7042907  0.363938E+02  0.783E+00    0.17       1.0  T
   3   1620.9407767  0.204465E+04  0.180E+01    0.00       1.0  T
   4   2735.9167725  0.111498E+04  0.203E+01    0.02       1.0  T
   5   -376.2974006 -0.311221E+04  0.648E+00    0.03       1.0  T
   6   -234.4450104  0.141852E+03  0.787E+00    0.01       1.0  T
   7   -290.2947801 -0.558498E+02  0.658E+00    0.10       1.0  T
   8   -428.4126937 -0.138118E+03  0.424E+00    0.01       1.0  T
   9   -456.9807956 -0.285681E+02  0.267E+00    0.10       1.0  T
  10   -457.6766006 -0.695805E+00  0.255E+00    0.16       1.0  T
  11   -459.3883050 -0.171170E+01  0.190E+00    0.01       1.0  T
  12   -459.8622603 -0.473955E+00  0.157E+00    0.06       1.0  T
  13   -459.9709467 -0.108686E+00  0.155E+00    0.03       1.0  T
  14   -458.2100257  0.176092E+01  0.142E+00    0.05       1.0  T
  15   -459.2331294 -0.102310E+01  0.131E+00    0.00       1.0  T
  16   -460.5721924 -0.133906E+01  0.991E-01    0.09       1.0  T
  17   -460.1064503  0.465742E+00  0.102E+00    0.12       1.0  T
  18   -460.6551465 -0.548696E+00  0.860E-01    0.01       1.0  T
  19   -460.9796195 -0.324473E+00  0.779E-01    0.07       1.0  T
  20   -461.1842604 -0.204641E+00  0.632E-01    0.01       1.0  T
  21   -461.2575157 -0.732553E-01  0.566E-01    0.01       1.0  T
  22   -461.1697130  0.878027E-01  0.584E-01    0.05       1.0  T
  23   -461.1298826  0.398304E-01  0.659E-01    0.07       1.0  T
  24   -461.0465164  0.833661E-01  0.643E-01    0.01       1.0  T
  25   -461.0269602  0.195562E-01  0.689E-01    0.17       1.0  T
  26   -460.9818832  0.450770E-01  0.748E-01    0.06       1.0  T
  27   -460.9310634  0.508198E-01  0.767E-01    0.04       1.0  T
  28   -460.9227166  0.834679E-02  0.793E-01    0.08       1.0  T
  29   -460.9608694 -0.381528E-01  0.746E-01    0.16       1.0  T
  30   -460.4539327  0.506937E+00  0.802E-01    0.04       1.0  T
  31   -460.7167266 -0.262794E+00  0.703E-01    0.02       1.0  T
  32   -460.4642422  0.252484E+00  0.771E-01    0.04       1.0  T
  33   -461.0263202 -0.562078E+00  0.579E-01    0.07       1.0  T
  34   -461.1190965 -0.927764E-01  0.554E-01    0.09       1.0  T
  35   -461.1810079 -0.619113E-01  0.484E-01    0.11       1.0  T
  36   -461.2947623 -0.113754E+00  0.360E-01    0.06       1.0  T
  37   -461.2894894  0.527283E-02  0.400E-01    0.01       1.0  T
  38   -461.3300281 -0.405386E-01  0.337E-01    0.00       1.0  T
  39   -461.3139814  0.160466E-01  0.279E-01    0.09       1.0  T
  40   -461.3956353 -0.816539E-01  0.182E-01    0.04       1.0  T
  41   -461.3372927  0.583427E-01  0.272E-01    0.08       1.0  T
  42   -461.3977833 -0.604906E-01  0.181E-01    0.01       1.0  T
  43   -461.4010412 -0.325785E-02  0.153E-01    0.05       1.0  T
  44   -461.4186170 -0.175759E-01  0.101E-01    0.03       1.0  T
  45   -461.4037937  0.148233E-01  0.146E-01    0.01       1.0  T
  46   -461.4209941 -0.172003E-01  0.773E-02    0.02       1.0  T
  47   -461.4236424 -0.264829E-02  0.633E-02    0.02       1.0  T
  48   -461.4026562  0.209861E-01  0.134E-01    0.00       1.0  T
  49   -461.4206693 -0.180131E-01  0.705E-02    0.01       1.0  T
  50   -461.4255320 -0.486266E-02  0.444E-02    0.03       1.0  T
  51   -461.4189650  0.656698E-02  0.766E-02    0.01       1.0  T
  52   -461.4269234 -0.795836E-02  0.205E-02    0.03       1.0  T
  53   -461.4269223  0.107016E-05  0.217E-02    0.02       1.0  T
  54   -461.4241078  0.281449E-02  0.546E-02    0.01       1.0  T
  55   -461.4266523 -0.254451E-02  0.268E-02    0.02       1.0  T
  56   -461.4271746 -0.522320E-03  0.107E-02    0.02       1.0  T
  57   -461.4271765 -0.192219E-05  0.114E-02    0.02       1.0  T
  58   -461.4270910  0.854975E-04  0.137E-02    0.02       1.0  T
  59   -461.4272032 -0.112179E-03  0.775E-03    0.02       1.0  T
  60   -461.4272702 -0.670132E-04  0.278E-03    0.02       2.2  T
  61   -461.4272708 -0.567404E-06  0.273E-03    0.02       2.3  T
  62   -461.4272626  0.821995E-05  0.402E-03    0.03       1.6  T
  63   -461.4272559  0.665445E-05  0.394E-03    0.02       1.6  T
  64   -461.4272519  0.404285E-05  0.423E-03    0.02       1.5  T
  65   -461.4272765 -0.246517E-04  0.144E-03    0.02       4.3  T
  66   -461.4272748  0.174731E-05  0.215E-03    0.02       2.9  T
  67   -461.4272744  0.390444E-06  0.215E-03    0.03       2.9  T
  68   -461.4272788 -0.441001E-05  0.820E-04    0.02       7.6  T
  69   -461.4272793 -0.480505E-06  0.341E-04    0.02      18.3  T
  70   -461.4272793 -0.469261E-07  0.285E-04    0.02      21.9  T
  71   -461.4272787  0.642056E-06  0.754E-04    0.02       8.3  T
  72   -461.4272794 -0.653444E-06  0.287E-04    0.02      21.7  T
  73   -461.4272794 -0.622010E-07  0.175E-04    0.02      35.7  T
  74   -461.4272794  0.106093E-07  0.198E-04    0.02      31.5  T

   *** convergence criteria satisfied after 74 iterations ***

         #    Occupation            Energy/Eh            Energy/eV
      -------------------------------------------------------------
         1        2.0000           -0.8129412             -22.1213
       ...           ...                  ...                  ...
       411        2.0000           -0.3832591             -10.4290
       412        2.0000           -0.3823761             -10.4050
       413        2.0000           -0.3812705             -10.3749
       414        2.0000           -0.3812418             -10.3741
       415        1.7844           -0.3727342             -10.1426
       416        1.7421           -0.3725412             -10.1374
       417        1.2998           -0.3713140             -10.1040 (HOMO)
       418        0.8332           -0.3704065             -10.0793 (LUMO)
       419        0.3010           -0.3690822             -10.0432
       420        0.0395           -0.3670180              -9.9871
       421        0.0000           -0.3566469              -9.7049
       422                         -0.3540006              -9.6328
       ...                                ...                  ...
       884                          3.2851005              89.3921
      -------------------------------------------------------------
                  HL-Gap            0.0009075 Eh            0.0247 eV
             Fermi-level           -0.3707264 Eh          -10.0880 eV

 SCC (total)                   0 d,  0 h,  0 min, 20.519 sec
 SCC setup                      ...        0 min,  0.018 sec (  0.086%)
 Dispersion                     ...        0 min,  0.009 sec (  0.044%)
 classical contributions        ...        0 min,  0.002 sec (  0.010%)
 integral evaluation            ...        0 min,  0.254 sec (  1.238%)
 iterations                     ...        0 min, 19.730 sec ( 96.155%)
 molecular gradient             ...        0 min,  0.457 sec (  2.225%)
 printout                       ...        0 min,  0.050 sec (  0.243%)

         :::::::::::::::::::::::::::::::::::::::::::::::::::::
         ::                     SUMMARY                     ::
         :::::::::::::::::::::::::::::::::::::::::::::::::::::
         :: total energy            -450.350472849870 Eh    ::
         :: gradient norm              3.741958719732 Eh/a0 ::
         :: HOMO-LUMO gap              0.024694834885 eV    ::
         ::.................................................::
         :: SCC energy              -461.427279405060 Eh    ::
         :: -> electrostatic           0.358098398186 Eh    ::
         :: repulsion energy          11.273596890079 Eh    ::
         :: dispersion energy         -0.196790334890 Eh    ::
         :: halogen bond corr.         0.000000000000 Eh    ::
         :: add. restraining           0.000000000000 Eh    ::
         :: total charge               0.000000000000 e     ::
         :::::::::::::::::::::::::::::::::::::::::::::::::::::

      ----------------------------------------------------------- 
     |                   =====================                   |
     |                        A N C O P T                        |
     |                   =====================                   |
     |               Approximate Normal Coordinate               |
     |                Rational Function Optimizer                |
      ----------------------------------------------------------- 

          ...................................................
          :                      SETUP                      :
          :.................................................:
          :   optimization level            normal          :
          :   max. optcycles                   774          :
          :   ANC micro-cycles                  20          :
          :   degrees of freedom               768          :
          :.................................................:
          :   RF solver                   davidson          :
          :   write xtbopt.log                true          :
          :   linear?                        false          :
          :   energy convergence         0.5000000E-05 Eh   :
          :   grad. convergence          0.1000000E-02 Eh/α :
          :   maximium RF displ.         1.0000000          :
          :   Hlow (freq-cutoff)         0.1000000E-01      :
          :   Hmax (freq-cutoff)         5.0000000          :
          :   S6 in model hess.         20.0000000          :
          ...................................................

generating ANC from model Hessian ...
Using Lindh-Hessian (1995)
 Shifting diagonal of input Hessian by    1.0073620491525664E-002
 Lowest  eigenvalues of input Hessian
    0.010000    0.010013    0.010059    0.010062    0.010064    0.010068
    0.010068    0.010072    0.010072    0.010073    0.010073    0.010074
    0.000000    0.000000    0.000000    0.000000    0.000000    0.000000
 Highest eigenvalues
    3.600700    3.600888    3.978237    3.978240    3.978243    3.978243


........................................................................
.............................. CYCLE    1 ..............................
........................................................................
   1   -461.4272794 -0.461427E+03  0.164E-04    0.02       0.0  T
   2   -461.4271710  0.108374E-03  0.889E-03    0.02       1.0  T
   3   -461.4272787 -0.107603E-03  0.874E-04    0.02       7.1  T
   4   -461.4272788 -0.157522E-06  0.715E-04    0.02       8.7  T
   5   -461.4272790 -0.224081E-06  0.622E-04    0.02      10.0  T
   6   -461.4272794 -0.388502E-06  0.184E-04    0.02      33.8  T
   7   -461.4272793  0.159309E-06  0.348E-04    0.02      17.9  T
   8   -461.4272793 -0.777699E-07  0.267E-04    0.02      23.3  T
   9   -461.4272795 -0.109990E-06  0.550E-05    0.02     113.3  T
     SCC iter.                  ...        0 min,  2.115 sec
     gradient                   ...        0 min,  0.451 sec
 * total energy  :  -450.3504729 Eh     change       -0.4542648E-07 Eh
   gradient norm :     3.7419578 Eh/α   predicted     0.0000000E+00 (-100.00%)
   displ. norm   :     0.6904380 α      lambda       -0.2537138E+01
   maximum displ.:     0.2486987 α      in ANC's #762, #764, #761, ...

........................................................................
.............................. CYCLE    2 ..............................
........................................................................
   1   -461.2237790 -0.461224E+03  0.495E-01    0.03       0.0  T
   2   -460.1561585  0.106762E+01  0.124E+00    0.13       1.0  T
   3   -460.7801465 -0.623988E+00  0.840E-01    0.05       1.0  T
   4   -461.0745766 -0.294430E+00  0.555E-01    0.10       1.0  T
   5   -461.2392590 -0.164682E+00  0.416E-01    0.01       1.0  T
   6   -460.9240386  0.315220E+00  0.578E-01    0.04       1.0  T
   7   -460.9562303 -0.321917E-01  0.605E-01    0.26       1.0  T
   8   -461.1843323 -0.228102E+00  0.403E-01    0.16       1.0  T
   9   -461.2032866 -0.189543E-01  0.358E-01    0.09       1.0  T
  10   -461.3892998 -0.186013E+00  0.150E-01    0.01       1.0  T
  11   -461.3685838  0.207160E-01  0.163E-01    0.04       1.0  T
  12   -461.0139300  0.354654E+00  0.543E-01    0.02       1.0  T
  13   -461.3961615 -0.382232E+00  0.942E-02    0.02       1.0  T
  14   -461.3738534  0.223081E-01  0.190E-01    0.04       1.0  T
  15   -461.3795284 -0.567503E-02  0.127E-01    0.04       1.0  T
  16   -461.3825238 -0.299535E-02  0.150E-01    0.00       1.0  T
  17   -461.4026116 -0.200879E-01  0.309E-02    0.02       1.0  T
  18   -461.4032988 -0.687214E-03  0.194E-02    0.02       1.0  T
  19   -461.4031865  0.112328E-03  0.167E-02    0.02       1.0  T
  20   -461.4034344 -0.247872E-03  0.137E-02    0.02       1.0  T
  21   -461.4034901 -0.557356E-04  0.827E-03    0.02       1.0  T
  22   -461.4034945 -0.443700E-05  0.836E-03    0.02       1.0  T
  23   -461.4035407 -0.462008E-04  0.689E-03    0.02       1.0  T
  24   -461.4035832 -0.424660E-04  0.294E-03    0.02       2.1  T
  25   -461.4035681  0.150740E-04  0.465E-03    0.02       1.3  T
  26   -461.4035946 -0.264860E-04  0.647E-04    0.02       9.6  T
  27   -461.4035935  0.111751E-05  0.117E-03    0.02       5.3  T
  28   -461.4035950 -0.153324E-05  0.312E-04    0.02      20.0  T
  29   -461.4035948  0.221624E-06  0.526E-04    0.02      11.8  T
  30   -461.4035951 -0.301792E-06  0.141E-04    0.02      44.2  T
  31   -461.4035951 -0.129613E-07  0.748E-05    0.02      83.3  T
     SCC iter.                  ...        0 min,  7.387 sec
     gradient                   ...        0 min,  0.457 sec
 * total energy  :  -451.9931423 Eh     change       -0.1642669E+01 Eh
   gradient norm :     1.4452605 Eh/α   predicted    -0.1873301E+01 (  14.04%)
   displ. norm   :     0.5655046 α      lambda       -0.7236271E+00
   maximum displ.:     0.1489283 α      in ANC's #753, #442, #690, ...

........................................................................
.............................. CYCLE    3 ..............................
........................................................................
   1   -461.2020745 -0.461202E+03  0.546E-01    0.10       0.0  T
   2   -460.2175543  0.984520E+00  0.134E+00    0.08       1.0  T
   3   -459.6266352  0.590919E+00  0.133E+00    0.16       1.0  T
   4   -460.9530598 -0.132642E+01  0.703E-01    0.08       1.0  T
   5   -461.1002345 -0.147175E+00  0.532E-01    0.07       1.0  T
   6   -461.1168035 -0.165690E-01  0.534E-01    0.02       1.0  T
   7   -461.1601731 -0.433696E-01  0.458E-01    0.11       1.0  T
   8   -461.2353532 -0.751801E-01  0.409E-01    0.00       1.0  T
   9   -461.0427345  0.192619E+00  0.629E-01    0.08       1.0  T
  10   -461.1764571 -0.133723E+00  0.504E-01    0.05       1.0  T
  11   -461.3082095 -0.131752E+00  0.333E-01    0.09       1.0  T
  12   -461.4122602 -0.104051E+00  0.154E-01    0.02       1.0  T
  13   -461.4337296 -0.214694E-01  0.922E-02    0.02       1.0  T
  14   -461.4382595 -0.452991E-02  0.641E-02    0.02       1.0  T
  15   -461.4396900 -0.143051E-02  0.474E-02    0.02       1.0  T
  16   -461.4220589  0.176312E-01  0.133E-01    0.01       1.0  T
  17   -461.3992388  0.228201E-01  0.191E-01    0.02       1.0  T
  18   -461.4358644 -0.366256E-01  0.750E-02    0.00       1.0  T
  19   -461.4388802 -0.301576E-02  0.573E-02    0.02       1.0  T
  20   -461.4430261 -0.414596E-02  0.861E-03    0.01       1.0  T
  21   -461.4430857 -0.596110E-04  0.602E-03    0.01       1.0  T
  22   -461.4431264 -0.406322E-04  0.374E-03    0.01       1.7  T
  23   -461.4431451 -0.187033E-04  0.887E-04    0.01       7.0  T
  24   -461.4431457 -0.631984E-06  0.544E-04    0.01      11.4  T
  25   -461.4431458 -0.119320E-06  0.455E-04    0.01      13.7  T
  26   -461.4431442  0.161811E-05  0.114E-03    0.01       5.5  T
  27   -461.4431455 -0.124041E-05  0.628E-04    0.01       9.9  T
  28   -461.4431458 -0.390294E-06  0.319E-04    0.01      19.5  T
  29   -461.4431459 -0.666225E-07  0.253E-04    0.01      24.6  T
  30   -461.4431460 -0.801969E-07  0.522E-05    0.01     119.2  T
  31   -461.4431460 -0.189033E-08  0.302E-05    0.01     206.1  T
     SCC iter.                  ...        0 min,  7.431 sec
     gradient                   ...        0 min,  0.454 sec
 * total energy  :  -452.5273217 Eh     change       -0.5341794E+00 Eh
   gradient norm :     0.7108060 Eh/α   predicted    -0.4775198E+00 ( -10.61%)
   displ. norm   :     0.6003074 α      lambda       -0.3529378E+00
   maximum displ.:     0.1354453 α      in ANC's #442, #190, #690, ...

........................................................................
.............................. CYCLE    4 ..............................
........................................................................
   1   -461.2732213 -0.461273E+03  0.561E-01    0.22       0.0  T
   2   -460.3060450  0.967176E+00  0.136E+00    0.18       1.0  T
   3   -459.6970307  0.609014E+00  0.139E+00    0.20       1.0  T
   4   -460.9320137 -0.123498E+01  0.783E-01    0.18       1.0  T
   5   -461.2870344 -0.355021E+00  0.475E-01    0.02       1.0  T
   6   -461.0349836  0.252051E+00  0.595E-01    0.02       1.0  T
   7   -461.3649621 -0.329978E+00  0.347E-01    0.02       1.0  T
   8   -461.3022536  0.627085E-01  0.544E-01    0.13       1.0  T
   9   -461.2600683  0.421853E-01  0.460E-01    0.13       1.0  T
  10   -461.1730843  0.869839E-01  0.481E-01    0.04       1.0  T
  11   -461.4739926 -0.300908E+00  0.225E-01    0.01       1.0  T
  12   -461.4437494  0.302432E-01  0.314E-01    0.05       1.0  T
  13   -461.4560466 -0.122971E-01  0.279E-01    0.03       1.0  T
  14   -461.4563236 -0.277018E-03  0.273E-01    0.03       1.0  T
  15   -461.5004892 -0.441656E-01  0.144E-01    0.04       1.0  T
  16   -461.5200025 -0.195133E-01  0.788E-02    0.00       1.0  T
  17   -461.5243960 -0.439348E-02  0.725E-02    0.03       1.0  T
  18   -461.5281937 -0.379769E-02  0.333E-02    0.02       1.0  T
  19   -461.5270413  0.115239E-02  0.482E-02    0.02       1.0  T
  20   -461.5291643 -0.212302E-02  0.128E-02    0.01       1.0  T
  21   -461.5291649 -0.592168E-06  0.131E-02    0.02       1.0  T
  22   -461.5293020 -0.137121E-03  0.674E-03    0.02       1.0  T
  23   -461.5293460 -0.439521E-04  0.711E-04    0.01       8.8  T
  24   -461.5293462 -0.206735E-06  0.683E-04    0.01       9.1  T
  25   -461.5293466 -0.447945E-06  0.334E-04    0.01      18.6  T
  26   -461.5293466  0.535399E-07  0.332E-04    0.01      18.8  T
  27   -461.5293465  0.152505E-08  0.346E-04    0.01      18.0  T
  28   -461.5293467 -0.100906E-06  0.242E-04    0.01      25.7  T
  29   -461.5293467 -0.568971E-07  0.147E-04    0.01      42.3  T
  30   -461.5293467 -0.121972E-07  0.892E-05    0.01      69.8  T
     SCC iter.                  ...        0 min,  7.320 sec
     gradient                   ...        0 min,  0.471 sec
 * total energy  :  -452.7816690 Eh     change       -0.2543474E+00 Eh
   gradient norm :     0.3233568 Eh/α   predicted    -0.2400631E+00 (  -5.62%)
   displ. norm   :     0.6525898 α      lambda       -0.1519345E+00
   maximum displ.:     0.2234503 α      in ANC's #190, #209, #344, ...

........................................................................
.............................. CYCLE    5 ..............................
........................................................................
   1   -461.3990217 -0.461399E+03  0.462E-01    0.25       0.0  T
   2   -460.3255376  0.107348E+01  0.136E+00    0.07       1.0  T
   3   -459.2654353  0.106010E+01  0.142E+00    0.05       1.0  T
   4   -460.9969407 -0.173151E+01  0.787E-01    0.07       1.0  T
   5   -461.0803545 -0.834138E-01  0.785E-01    0.07       1.0  T
   6   -461.1088644 -0.285099E-01  0.762E-01    0.05       1.0  T
   7   -461.5243037 -0.415439E+00  0.259E-01    0.02       1.0  T
   8   -461.5154067  0.889701E-02  0.240E-01    0.03       1.0  T
   9   -461.5162301 -0.823382E-03  0.224E-01    0.04       1.0  T
  10   -461.5598562 -0.436261E-01  0.132E-01    0.04       1.0  T
  11   -461.5598802 -0.239829E-04  0.112E-01    0.01       1.0  T
  12   -461.5660501 -0.616996E-02  0.119E-01    0.05       1.0  T
  13   -461.5643256  0.172453E-02  0.120E-01    0.02       1.0  T
  14   -461.5747857 -0.104601E-01  0.485E-02    0.05       1.0  T
  15   -461.5758564 -0.107076E-02  0.365E-02    0.04       1.0  T
  16   -461.5761892 -0.332797E-03  0.290E-02    0.04       1.0  T
  17   -461.5766202 -0.430929E-03  0.116E-02    0.04       1.0  T
  18   -461.5766752 -0.550258E-04  0.118E-02    0.05       1.0  T
  19   -461.5767714 -0.961764E-04  0.308E-03    0.04       2.0  T
  20   -461.5767656  0.574070E-05  0.422E-03    0.04       1.5  T
  21   -461.5767818 -0.162048E-04  0.108E-03    0.04       5.8  T
  22   -461.5767824 -0.543581E-06  0.507E-04    0.04      12.3  T
  23   -461.5767815  0.925715E-06  0.972E-04    0.04       6.4  T
  24   -461.5767825 -0.103842E-05  0.397E-04    0.04      15.7  T
  25   -461.5767826 -0.751622E-07  0.325E-04    0.04      19.1  T
  26   -461.5767826 -0.483220E-08  0.262E-04    0.04      23.7  T
  27   -461.5767826 -0.610680E-07  0.138E-04    0.04      45.1  T
  28   -461.5767827 -0.229713E-07  0.510E-05    0.04     122.2  T
     SCC iter.                  ...        0 min,  6.730 sec
     gradient                   ...        0 min,  0.457 sec
 * total energy  :  -452.8913323 Eh     change       -0.1096632E+00 Eh
   gradient norm :     0.1552737 Eh/α   predicted    -0.1083198E+00 (  -1.23%)
   displ. norm   :     0.6758608 α      lambda       -0.6847076E-01
   maximum displ.:     0.2944825 α      in ANC's #190, #209, #126, ...

........................................................................
.............................. CYCLE    6 ..............................
........................................................................
   1   -461.5091545 -0.461509E+03  0.331E-01    0.19       0.0  T
   2   -460.7666709  0.742484E+00  0.111E+00    0.04       1.0  T
   3   -459.9564245  0.810246E+00  0.120E+00    0.03       1.0  T
   4   -460.6541767 -0.697752E+00  0.973E-01    0.06       1.0  T
   5   -461.2620295 -0.607853E+00  0.599E-01    0.05       1.0  T
   6   -461.4440742 -0.182045E+00  0.438E-01    0.03       1.0  T
   7   -461.5890844 -0.145010E+00  0.936E-02    0.08       1.0  T
   8   -461.5806845  0.839989E-02  0.135E-01    0.03       1.0  T
   9   -461.5529239  0.277605E-01  0.168E-01    0.01       1.0  T
  10   -461.5710609 -0.181369E-01  0.196E-01    0.08       1.0  T
  11   -461.5914180 -0.203571E-01  0.751E-02    0.04       1.0  T
  12   -461.5973429 -0.592488E-02  0.334E-02    0.06       1.0  T
  13   -461.5950921  0.225074E-02  0.591E-02    0.04       1.0  T
  14   -461.5980645 -0.297234E-02  0.195E-02    0.05       1.0  T
  15   -461.5982701 -0.205639E-03  0.145E-02    0.06       1.0  T
  16   -461.5983275 -0.573864E-04  0.126E-02    0.06       1.0  T
  17   -461.5983966 -0.691115E-04  0.685E-03    0.06       1.0  T
  18   -461.5984099 -0.132673E-04  0.548E-03    0.06       1.1  T
  19   -461.5984297 -0.198499E-04  0.308E-03    0.06       2.0  T
  20   -461.5984373 -0.752425E-05  0.121E-03    0.06       5.1  T
  21   -461.5984372  0.220182E-07  0.115E-03    0.06       5.4  T
  22   -461.5984381 -0.830621E-06  0.745E-04    0.06       8.4  T
  23   -461.5984381 -0.691273E-09  0.733E-04    0.06       8.5  T
  24   -461.5984384 -0.335883E-06  0.333E-04    0.06      18.7  T
  25   -461.5984385 -0.789518E-07  0.123E-04    0.06      50.8  T
  26   -461.5984385 -0.127559E-07  0.380E-05    0.06     163.8  T
     SCC iter.                  ...        0 min,  6.259 sec
     gradient                   ...        0 min,  0.541 sec
 * total energy  :  -452.9438412 Eh     change       -0.5250894E-01 Eh
   gradient norm :     0.1024168 Eh/α   predicted    -0.4987376E-01 (  -5.02%)
   displ. norm   :     0.6845146 α      lambda       -0.4018921E-01
   maximum displ.:     0.2999082 α      in ANC's #190, #126, #171, ...

........................................................................
.............................. CYCLE    7 ..............................
........................................................................
   1   -461.5338882 -0.461534E+03  0.257E-01    0.16       0.0  T
   2   -460.6630690  0.870819E+00  0.112E+00    0.03       1.0  T
   3   -460.1892854  0.473784E+00  0.111E+00    0.08       1.0  T
   4   -461.3786951 -0.118941E+01  0.508E-01    0.03       1.0  T
   5   -461.4022638 -0.235687E-01  0.508E-01    0.02       1.0  T
   6   -461.4326443 -0.303805E-01  0.422E-01    0.02       1.0  T
   7   -461.5827516 -0.150107E+00  0.587E-02    0.09       1.0  T
   8   -461.5773309  0.542071E-02  0.101E-01    0.07       1.0  T
   9   -461.5824273 -0.509640E-02  0.779E-02    0.05       1.0  T
  10   -461.5853371 -0.290981E-02  0.447E-02    0.07       1.0  T
  11   -461.5859984 -0.661283E-03  0.316E-02    0.07       1.0  T
  12   -461.5818603  0.413813E-02  0.605E-02    0.05       1.0  T
  13   -461.5840298 -0.216950E-02  0.468E-02    0.05       1.0  T
  14   -461.5847910 -0.761183E-03  0.425E-02    0.05       1.0  T
  15   -461.5860425 -0.125155E-02  0.256E-02    0.06       1.0  T
  16   -461.5865653 -0.522788E-03  0.156E-02    0.06       1.0  T
  17   -461.5867375 -0.172188E-03  0.107E-02    0.07       1.0  T
  18   -461.5867709 -0.334347E-04  0.947E-03    0.07       1.0  T
  19   -461.5868619 -0.909173E-04  0.465E-03    0.07       1.3  T
  20   -461.5868806 -0.187234E-04  0.240E-03    0.07       2.6  T
  21   -461.5868866 -0.597283E-05  0.940E-04    0.07       6.6  T
  22   -461.5868873 -0.747177E-06  0.415E-04    0.07      15.0  T
  23   -461.5868874 -0.132161E-06  0.174E-04    0.07      35.7  T
  24   -461.5868875 -0.273091E-07  0.705E-05    0.07      88.4  T
     SCC iter.                  ...        0 min,  5.800 sec
     gradient                   ...        0 min,  0.456 sec
 * total energy  :  -452.9746445 Eh     change       -0.3080332E-01 Eh
   gradient norm :     0.0715172 Eh/α   predicted    -0.2951034E-01 (  -4.20%)
   displ. norm   :     0.6929654 α      lambda       -0.2530935E-01
   maximum displ.:     0.2799943 α      in ANC's #126, #190, #171, ...

........................................................................
.............................. CYCLE    8 ..............................
........................................................................
   1   -461.5511681 -0.461551E+03  0.107E-01    0.14       0.0  T
   2   -460.6382507  0.912917E+00  0.955E-01    0.19       1.0  T
   3   -461.4385874 -0.800337E+00  0.372E-01    0.05       1.0  T
   4   -461.5284092 -0.898219E-01  0.167E-01    0.03       1.0  T
   5   -461.5041534  0.242558E-01  0.225E-01    0.02       1.0  T
   6   -461.5170722 -0.129188E-01  0.157E-01    0.03       1.0  T
   7   -461.5609835 -0.439113E-01  0.525E-02    0.08       1.0  T
   8   -461.5584292  0.255431E-02  0.792E-02    0.08       1.0  T
   9   -461.5622331 -0.380390E-02  0.348E-02    0.09       1.0  T
  10   -461.5626732 -0.440077E-03  0.202E-02    0.07       1.0  T
  11   -461.5630794 -0.406204E-03  0.961E-03    0.08       1.0  T
  12   -461.5631023 -0.228501E-04  0.762E-03    0.08       1.0  T
  13   -461.5631306 -0.283307E-04  0.427E-03    0.08       1.5  T
  14   -461.5631433 -0.126724E-04  0.118E-03    0.08       5.3  T
  15   -461.5631448 -0.157811E-05  0.488E-04    0.08      12.8  T
  16   -461.5631450 -0.164195E-06  0.249E-04    0.08      25.0  T
  17   -461.5631450  0.273947E-07  0.353E-04    0.08      17.6  T
  18   -461.5631451 -0.101049E-06  0.834E-05    0.08      74.6  T
  19   -461.5631451 -0.491218E-08  0.244E-05    0.08     255.2  T
     SCC iter.                  ...        0 min,  4.614 sec
     gradient                   ...        0 min,  0.456 sec
 * total energy  :  -452.9934622 Eh     change       -0.1881766E-01 Eh
   gradient norm :     0.0614217 Eh/α   predicted    -0.1873147E-01 (  -0.46%)
   displ. norm   :     0.6776736 α      lambda       -0.1585885E-01
   maximum displ.:     0.2947456 α      in ANC's #126, #34, #190, ...

........................................................................
.............................. CYCLE    9 ..............................
........................................................................
   1   -461.5107480 -0.461511E+03  0.741E-02    0.12       0.0  T
   2   -460.6885495  0.822198E+00  0.889E-01    0.14       1.0  T
   3   -461.4485795 -0.760030E+00  0.309E-01    0.11       1.0  T
   4   -461.5148144 -0.662349E-01  0.431E-02    0.09       1.0  T
   5   -461.4983475  0.164669E-01  0.124E-01    0.06       1.0  T
   6   -461.4947468  0.360064E-02  0.130E-01    0.06       1.0  T
   7   -461.5142484 -0.195015E-01  0.381E-02    0.07       1.0  T
   8   -461.5160682 -0.181980E-02  0.153E-02    0.08       1.0  T
   9   -461.5156746  0.393561E-03  0.166E-02    0.08       1.0  T
  10   -461.5161447 -0.470112E-03  0.906E-03    0.08       1.0  T
  11   -461.5162456 -0.100938E-03  0.273E-03    0.08       2.3  T
  12   -461.5162492 -0.357236E-05  0.123E-03    0.08       5.0  T
  13   -461.5162506 -0.135989E-05  0.573E-04    0.08      10.9  T
  14   -461.5162506 -0.965576E-08  0.446E-04    0.08      14.0  T
  15   -461.5162507 -0.163171E-06  0.150E-04    0.08      41.5  T
  16   -461.5162508 -0.186476E-07  0.954E-05    0.08      65.3  T
     SCC iter.                  ...        0 min,  3.953 sec
     gradient                   ...        0 min,  0.464 sec
 * total energy  :  -453.0054038 Eh     change       -0.1194163E-01 Eh
   gradient norm :     0.0391635 Eh/α   predicted    -0.1157098E-01 (  -3.10%)
   displ. norm   :     0.7135164 α      lambda       -0.1043679E-01
   maximum displ.:     0.3758314 α      in ANC's #34, #126, #71, ...

........................................................................
.............................. CYCLE   10 ..............................
........................................................................
   1   -461.4648242 -0.461465E+03  0.741E-02    0.12       0.0  T
   2   -460.8310770  0.633747E+00  0.734E-01    0.03       1.0  T
   3   -461.3753069 -0.544230E+00  0.392E-01    0.13       1.0  T
   4   -461.4603010 -0.849941E-01  0.105E-01    0.07       1.0  T
   5   -461.4617421 -0.144114E-02  0.104E-01    0.09       1.0  T
   6   -461.4684152 -0.667305E-02  0.427E-02    0.08       1.0  T
   7   -461.4701391 -0.172395E-02  0.268E-02    0.08       1.0  T
   8   -461.4688578  0.128130E-02  0.374E-02    0.08       1.0  T
   9   -461.4700643 -0.120647E-02  0.246E-02    0.08       1.0  T
  10   -461.4706246 -0.560295E-03  0.977E-03    0.09       1.0  T
  11   -461.4707371 -0.112560E-03  0.268E-03    0.09       2.3  T
  12   -461.4707434 -0.628952E-05  0.122E-03    0.09       5.1  T
  13   -461.4707425  0.894612E-06  0.116E-03    0.09       5.4  T
  14   -461.4707444 -0.185411E-05  0.334E-04    0.09      18.6  T
  15   -461.4707442  0.146758E-06  0.495E-04    0.09      12.6  T
  16   -461.4707445 -0.237123E-06  0.120E-04    0.09      51.7  T
  17   -461.4707445 -0.132388E-07  0.414E-05    0.09     150.4  T
     SCC iter.                  ...        0 min,  4.141 sec
     gradient                   ...        0 min,  0.460 sec
 * total energy  :  -453.0142129 Eh     change       -0.8809088E-02 Eh
   gradient norm :     0.0263156 Eh/α   predicted    -0.7875166E-02 ( -10.60%)
   displ. norm   :     0.8220669 α      lambda       -0.9549226E-02
   maximum displ.:     0.5016031 α      in ANC's #34, #71, #126, ...

........................................................................
.............................. CYCLE   11 ..............................
........................................................................
   1   -461.4227210 -0.461423E+03  0.869E-02    0.14       0.0  T
   2   -460.6530527  0.769668E+00  0.800E-01    0.05       1.0  T
   3   -461.3346228 -0.681570E+00  0.396E-01    0.19       1.0  T
   4   -461.4236535 -0.890307E-01  0.998E-02    0.11       1.0  T
   5   -461.4220921  0.156139E-02  0.103E-01    0.11       1.0  T
   6   -461.4222454 -0.153268E-03  0.781E-02    0.08       1.0  T
   7   -461.4297296 -0.748427E-02  0.276E-02    0.10       1.0  T
   8   -461.4304815 -0.751875E-03  0.191E-02    0.09       1.0  T
   9   -461.4299423  0.539226E-03  0.246E-02    0.09       1.0  T
  10   -461.4307174 -0.775165E-03  0.107E-02    0.09       1.0  T
  11   -461.4308321 -0.114682E-03  0.427E-03    0.10       1.5  T
  12   -461.4308460 -0.138456E-04  0.186E-03    0.10       3.3  T
  13   -461.4308478 -0.183335E-05  0.869E-04    0.10       7.2  T
  14   -461.4308486 -0.755676E-06  0.492E-04    0.10      12.6  T
  15   -461.4308486 -0.391146E-07  0.523E-04    0.10      11.9  T
  16   -461.4308488 -0.207461E-06  0.175E-04    0.10      35.6  T
  17   -461.4308488 -0.223081E-07  0.218E-05    0.10     285.3  T
     SCC iter.                  ...        0 min,  4.098 sec
     gradient                   ...        0 min,  0.473 sec
 * total energy  :  -453.0231961 Eh     change       -0.8983226E-02 Eh
   gradient norm :     0.0223168 Eh/α   predicted    -0.8001283E-02 ( -10.93%)
   displ. norm   :     0.9427459 α      lambda       -0.1113725E-01
   maximum displ.:     0.5922175 α      in ANC's #34, #70, #71, ...

........................................................................
.............................. CYCLE   12 ..............................
........................................................................
   1   -461.3776829 -0.461378E+03  0.973E-02    0.18       0.0  T
   2   -460.4404119  0.937271E+00  0.868E-01    0.10       1.0  T
   3   -461.3088283 -0.868416E+00  0.364E-01    0.24       1.0  T
   4   -461.3803620 -0.715337E-01  0.972E-02    0.16       1.0  T
   5   -461.3802374  0.124558E-03  0.954E-02    0.18       1.0  T
   6   -461.3859361 -0.569873E-02  0.362E-02    0.12       1.0  T
   7   -461.3863071 -0.370958E-03  0.303E-02    0.13       1.0  T
   8   -461.3870077 -0.700626E-03  0.188E-02    0.11       1.0  T
   9   -461.3860438  0.963917E-03  0.316E-02    0.10       1.0  T
  10   -461.3867551 -0.711327E-03  0.217E-02    0.10       1.0  T
  11   -461.3872892 -0.534034E-03  0.934E-03    0.11       1.0  T
  12   -461.3873346 -0.454728E-04  0.571E-03    0.11       1.1  T
  13   -461.3873593 -0.246893E-04  0.275E-03    0.11       2.3  T
  14   -461.3873668 -0.741677E-05  0.133E-03    0.11       4.7  T
  15   -461.3873683 -0.153584E-05  0.785E-04    0.11       7.9  T
  16   -461.3873689 -0.610365E-06  0.216E-04    0.11      28.9  T
  17   -461.3873689 -0.299577E-07  0.618E-05    0.11     100.8  T
  18   -461.3873689 -0.101079E-08  0.458E-05    0.11     135.8  T
     SCC iter.                  ...        0 min,  4.326 sec
     gradient                   ...        0 min,  0.477 sec
 * total energy  :  -453.0345705 Eh     change       -0.1137441E-01 Eh
   gradient norm :     0.0328033 Eh/α   predicted    -0.1051788E-01 (  -7.53%)
   displ. norm   :     0.9033057 α      lambda       -0.1335014E-01
   maximum displ.:     0.5540174 α      in ANC's #34, #71, #21, ...

........................................................................
.............................. CYCLE   13 ..............................
........................................................................
   1   -461.3455296 -0.461346E+03  0.788E-02    0.23       0.0  T
   2   -460.7994361  0.546093E+00  0.669E-01    0.05       1.0  T
   3   -461.3213166 -0.521881E+00  0.220E-01    0.12       1.0  T
   4   -461.3479404 -0.266238E-01  0.670E-02    0.23       1.0  T
   5   -461.3486644 -0.723966E-03  0.602E-02    0.18       1.0  T
   6   -461.3514636 -0.279927E-02  0.277E-02    0.14       1.0  T
   7   -461.3474959  0.396770E-02  0.577E-02    0.10       1.0  T
   8   -461.3463666  0.112938E-02  0.629E-02    0.09       1.0  T
   9   -461.3507482 -0.438167E-02  0.307E-02    0.11       1.0  T
  10   -461.3515330 -0.784797E-03  0.170E-02    0.12       1.0  T
  11   -461.3517219 -0.188831E-03  0.997E-03    0.13       1.0  T
  12   -461.3518252 -0.103326E-03  0.391E-03    0.13       1.6  T
  13   -461.3518461 -0.209080E-04  0.808E-04    0.13       7.7  T
  14   -461.3518469 -0.772537E-06  0.336E-04    0.13      18.5  T
  15   -461.3518469  0.513006E-08  0.309E-04    0.13      20.1  T
  16   -461.3518469 -0.530390E-07  0.238E-04    0.13      26.2  T
  17   -461.3518470 -0.520197E-07  0.117E-04    0.13      53.4  T
  18   -461.3518470 -0.151071E-07  0.239E-05    0.13     260.3  T
     SCC iter.                  ...        0 min,  4.368 sec
     gradient                   ...        0 min,  0.462 sec
 * total energy  :  -453.0485532 Eh     change       -0.1398265E-01 Eh
   gradient norm :     0.0464225 Eh/α   predicted    -0.1212168E-01 ( -13.31%)
   displ. norm   :     0.8818433 α      lambda       -0.1917592E-01
   maximum displ.:     0.4994155 α      in ANC's #34, #70, #21, ...

........................................................................
.............................. CYCLE   14 ..............................
........................................................................
   1   -461.3158997 -0.461316E+03  0.699E-02    0.29       0.0  T
   2   -460.9389131  0.376987E+00  0.544E-01    0.06       1.0  T
   3   -461.3058452 -0.366932E+00  0.161E-01    0.35       1.0  T
   4   -461.3181770 -0.123319E-01  0.514E-02    0.30       1.0  T
   5   -461.3185050 -0.327933E-03  0.481E-02    0.26       1.0  T
   6   -461.3197735 -0.126852E-02  0.216E-02    0.21       1.0  T
   7   -461.3201163 -0.342771E-03  0.131E-02    0.16       1.0  T
   8   -461.3181389  0.197735E-02  0.396E-02    0.12       1.0  T
   9   -461.3200206 -0.188163E-02  0.136E-02    0.15       1.0  T
  10   -461.3201729 -0.152338E-03  0.703E-03    0.16       1.0  T
  11   -461.3202196 -0.466940E-04  0.267E-03    0.16       2.3  T
  12   -461.3202274 -0.779912E-05  0.102E-03    0.16       6.1  T
  13   -461.3202287 -0.131418E-05  0.271E-04    0.16      23.0  T
  14   -461.3202288 -0.832256E-07  0.106E-04    0.17      58.8  T
  15   -461.3202288 -0.122571E-07  0.298E-05    0.17     208.7  T
     SCC iter.                  ...        0 min,  3.564 sec
     gradient                   ...        0 min,  0.503 sec
 * total energy  :  -453.0673420 Eh     change       -0.1878884E-01 Eh
   gradient norm :     0.0717642 Eh/α   predicted    -0.1704403E-01 (  -9.29%)
   displ. norm   :     0.9201241 α      lambda       -0.2509551E-01
   maximum displ.:     0.4416163 α      in ANC's #34, #88, #70, ...

........................................................................
.............................. CYCLE   15 ..............................
........................................................................
   1   -461.2682697 -0.461268E+03  0.766E-02    0.41       0.0  T
   2   -461.2621614  0.610830E-02  0.143E-01    0.15       1.0  T
   3   -461.2714273 -0.926587E-02  0.339E-02    0.30       1.0  T
   4   -461.2710719  0.355372E-03  0.350E-02    0.19       1.0  T
   5   -461.2715133 -0.441406E-03  0.189E-02    0.24       1.0  T
   6   -461.2714713  0.420186E-04  0.161E-02    0.20       1.0  T
   7   -461.2716843 -0.213013E-03  0.308E-03    0.24       2.0  T
   8   -461.2716871 -0.280675E-05  0.137E-03    0.24       4.5  T
   9   -461.2716884 -0.126700E-05  0.730E-04    0.24       8.5  T
  10   -461.2716887 -0.318076E-06  0.237E-04    0.24      26.2  T
  11   -461.2716887 -0.131313E-07  0.991E-05    0.24      62.8  T
  12   -461.2716887 -0.170172E-08  0.474E-05    0.24     131.2  T
     SCC iter.                  ...        0 min,  2.770 sec
     gradient                   ...        0 min,  0.465 sec
 * total energy  :  -453.0914825 Eh     change       -0.2414050E-01 Eh
   gradient norm :     0.1076178 Eh/α   predicted    -0.2317105E-01 (  -4.02%)
   displ. norm   :     0.8591006 α      lambda       -0.2940422E-01
   maximum displ.:     0.3904935 α      in ANC's #34, #88, #21, ...

........................................................................
.............................. CYCLE   16 ..............................
........................................................................
   1   -461.2092983 -0.461209E+03  0.675E-02    0.55       0.0  T
   2   -461.2086986  0.599697E-03  0.919E-02    0.44       1.0  T
   3   -461.2110381 -0.233947E-02  0.321E-02    0.46       1.0  T
   4   -461.2108355  0.202582E-03  0.273E-02    0.49       1.0  T
   5   -461.2110734 -0.237876E-03  0.957E-03    0.46       1.0  T
   6   -461.2111116 -0.382175E-04  0.298E-03    0.48       2.1  T
   7   -461.2111160 -0.445232E-05  0.819E-04    0.47       7.6  T
   8   -461.2111163 -0.274023E-06  0.348E-04    0.47      17.9  T
   9   -461.2111163 -0.272997E-07  0.148E-04    0.47      42.0  T
  10   -461.2111163 -0.880505E-08  0.844E-05    0.47      73.7  T
     SCC iter.                  ...        0 min,  2.375 sec
     gradient                   ...        0 min,  0.478 sec
 * total energy  :  -453.1175643 Eh     change       -0.2608178E-01 Eh
   gradient norm :     0.1210149 Eh/α   predicted    -0.2555306E-01 (  -2.03%)
   displ. norm   :     0.7550804 α      lambda       -0.3421259E-01
   maximum displ.:     0.3864996 α      in ANC's #34, #70, #88, ...

........................................................................
.............................. CYCLE   17 ..............................
........................................................................
   1   -461.1683715 -0.461168E+03  0.596E-02    0.80       0.0  T
   2   -461.1684027 -0.312657E-04  0.651E-02    0.80       1.0  T
   3   -461.1693114 -0.908678E-03  0.271E-02    0.80       1.0  T
   4   -461.1692156  0.957573E-04  0.179E-02    0.80       1.0  T
   5   -461.1693042 -0.885174E-04  0.775E-03    0.80       1.0  T
   6   -461.1693319 -0.277488E-04  0.194E-03    0.80       3.2  T
   7   -461.1693340 -0.204700E-05  0.542E-04    0.80      11.5  T
   8   -461.1693341 -0.137256E-06  0.215E-04    0.80      29.0  T
   9   -461.1693341 -0.111826E-07  0.978E-05    0.80      63.7  T
  10   -461.1693341 -0.244097E-08  0.587E-05    0.80     106.0  T
     SCC iter.                  ...        0 min,  2.389 sec
     gradient                   ...        0 min,  0.466 sec
 * total energy  :  -453.1438660 Eh     change       -0.2630167E-01 Eh
   gradient norm :     0.1447864 Eh/α   predicted    -0.2685939E-01 (   2.12%)
   displ. norm   :     0.6994405 α      lambda       -0.5263045E-01
   maximum displ.:     0.3078006 α      in ANC's #71, #34, #80, ...

........................................................................
.............................. CYCLE   18 ..............................
........................................................................
   1   -461.1965971 -0.461197E+03  0.754E-02    0.81       0.0  T
   2   -461.1971339 -0.536834E-03  0.616E-02    0.81       1.0  T
   3   -461.1975689 -0.434943E-03  0.307E-02    0.81       1.0  T
   4   -461.1973266  0.242268E-03  0.210E-02    0.81       1.0  T
   5   -461.1975927 -0.266041E-03  0.656E-03    0.81       1.0  T
   6   -461.1976217 -0.290376E-04  0.169E-03    0.81       3.7  T
   7   -461.1976230 -0.129072E-05  0.456E-04    0.81      13.6  T
   8   -461.1976230 -0.600324E-07  0.183E-04    0.81      33.9  T
   9   -461.1976231 -0.120493E-07  0.104E-04    0.81      59.6  T
     SCC iter.                  ...        0 min,  2.095 sec
     gradient                   ...        0 min,  0.464 sec
 * total energy  :  -453.1707668 Eh     change       -0.2690085E-01 Eh
   gradient norm :     0.2003391 Eh/α   predicted    -0.3918908E-01 (  45.68%)
   displ. norm   :     0.6330990 α      lambda       -0.6005121E-01
   maximum displ.:     0.2921057 α      in ANC's #34, #71, #82, ...

........................................................................
.............................. CYCLE   19 ..............................
........................................................................
   1   -461.2739574 -0.461274E+03  0.405E-02    0.81       0.0  T
   2   -461.2742811 -0.323704E-03  0.344E-02    0.81       1.0  T
   3   -461.2745241 -0.242981E-03  0.147E-02    0.81       1.0  T
   4   -461.2744781  0.460186E-04  0.106E-02    0.81       1.0  T
   5   -461.2745260 -0.479079E-04  0.490E-03    0.81       1.3  T
   6   -461.2745383 -0.122738E-04  0.100E-03    0.81       6.2  T
   7   -461.2745387 -0.470483E-06  0.315E-04    0.81      19.8  T
   8   -461.2745388 -0.251421E-07  0.180E-04    0.81      34.6  T
   9   -461.2745388 -0.160974E-07  0.727E-05    0.81      85.6  T
     SCC iter.                  ...        0 min,  2.074 sec
     gradient                   ...        0 min,  0.460 sec
 * total energy  :  -453.2207070 Eh     change       -0.4994022E-01 Eh
   gradient norm :     0.1189867 Eh/α   predicted    -0.4206031E-01 ( -15.78%)
   displ. norm   :     0.8602286 α      lambda       -0.5647359E-01
   maximum displ.:     0.4054801 α      in ANC's #34, #89, #71, ...

........................................................................
.............................. CYCLE   20 ..............................
........................................................................
   1   -461.3134936 -0.461313E+03  0.530E-02    0.79       0.0  T
   2   -461.3140829 -0.589262E-03  0.448E-02    0.79       1.0  T
   3   -461.3143761 -0.293283E-03  0.196E-02    0.79       1.0  T
   4   -461.3142562  0.119906E-03  0.177E-02    0.79       1.0  T
   5   -461.3143843 -0.128081E-03  0.525E-03    0.79       1.2  T
   6   -461.3143992 -0.149220E-04  0.150E-03    0.79       4.2  T
   7   -461.3144006 -0.136075E-05  0.499E-04    0.79      12.5  T
   8   -461.3144007 -0.125734E-06  0.237E-04    0.79      26.2  T
   9   -461.3144008 -0.307331E-07  0.925E-05    0.79      67.3  T
  10   -461.3144008 -0.464826E-08  0.373E-05    0.79     167.0  T
     SCC iter.                  ...        0 min,  2.325 sec
     gradient                   ...        0 min,  0.464 sec
 * total energy  :  -453.2670059 Eh     change       -0.4629887E-01 Eh
   gradient norm :     0.0878846 Eh/α   predicted    -0.4913186E-01 (   6.12%)
   displ. norm   :     0.9036113 α      lambda       -0.4585122E-01
   maximum displ.:     0.4403143 α      in ANC's #34, #89, #22, ...
 * RMSD in coord.:     0.6599735 α      energy gain  -0.2916533E+01 Eh

generating ANC from model Hessian ...
Using Lindh-Hessian (1995)
 Shifting diagonal of input Hessian by    1.0019592129644699E-002
 Lowest  eigenvalues of input Hessian
    0.010000    0.010015    0.000000    0.000000    0.000000    0.000000
    0.000000    0.000000    0.010020    0.010020    0.010020    0.010021
    0.010022    0.010023    0.010024    0.010027    0.010028    0.010029
 Highest eigenvalues
    2.832103    2.835086    2.848244    3.062176    3.065560    3.080921


........................................................................
.............................. CYCLE   21 ..............................
........................................................................
   1   -461.3316071 -0.461332E+03  0.471E-02    0.78       0.0  T
   2   -461.3318210 -0.213867E-03  0.501E-02    0.78       1.0  T
   3   -461.3321287 -0.307696E-03  0.259E-02    0.78       1.0  T
   4   -461.3319122  0.216528E-03  0.191E-02    0.78       1.0  T
   5   -461.3321286 -0.216391E-03  0.367E-03    0.78       1.7  T
   6   -461.3321380 -0.938906E-05  0.768E-04    0.78       8.1  T
   7   -461.3321382 -0.189173E-06  0.289E-04    0.78      21.6  T
   8   -461.3321382 -0.432003E-07  0.127E-04    0.78      49.0  T
   9   -461.3321382 -0.100517E-07  0.542E-05    0.78     114.8  T
     SCC iter.                  ...        0 min,  2.075 sec
     gradient                   ...        0 min,  0.458 sec
 * total energy  :  -453.2984959 Eh     change       -0.3148996E-01 Eh
   gradient norm :     0.0921656 Eh/α   predicted     0.0000000E+00 (-100.00%)
   displ. norm   :     0.6980228 α      lambda       -0.3066438E-01
   maximum displ.:     0.3501268 α      in ANC's #78, #53, #104, ...

........................................................................
.............................. CYCLE   22 ..............................
........................................................................
   1   -461.3806819 -0.461381E+03  0.167E-02    0.78       0.0  T
   2   -461.3807123 -0.303981E-04  0.130E-02    0.78       1.0  T
   3   -461.3807462 -0.338918E-04  0.671E-03    0.78       1.0  T
   4   -461.3807363  0.992926E-05  0.596E-03    0.78       1.0  T
   5   -461.3807568 -0.205152E-04  0.139E-03    0.78       4.5  T
   6   -461.3807572 -0.417059E-06  0.414E-04    0.78      15.0  T
   7   -461.3807573 -0.995648E-07  0.163E-04    0.78      38.2  T
   8   -461.3807573 -0.126607E-07  0.884E-05    0.78      70.4  T
     SCC iter.                  ...        0 min,  1.889 sec
     gradient                   ...        0 min,  0.468 sec
 * total energy  :  -453.3254355 Eh     change       -0.2693969E-01 Eh
   gradient norm :     0.0530129 Eh/α   predicted    -0.2280258E-01 ( -15.36%)
   displ. norm   :     0.8600445 α      lambda       -0.2887508E-01
   maximum displ.:     0.4423352 α      in ANC's #78, #53, #104, ...

........................................................................
.............................. CYCLE   23 ..............................
........................................................................
   1   -461.4342280 -0.461434E+03  0.187E-02    0.78       0.0  T
   2   -461.4342594 -0.314182E-04  0.145E-02    0.78       1.0  T
   3   -461.4343026 -0.432098E-04  0.746E-03    0.78       1.0  T
   4   -461.4342933  0.936088E-05  0.658E-03    0.78       1.0  T
   5   -461.4343174 -0.240723E-04  0.142E-03    0.78       4.4  T
   6   -461.4343178 -0.484344E-06  0.392E-04    0.78      15.9  T
   7   -461.4343179 -0.790326E-07  0.165E-04    0.78      37.8  T
   8   -461.4343179 -0.122774E-07  0.935E-05    0.78      66.6  T
     SCC iter.                  ...        0 min,  1.884 sec
     gradient                   ...        0 min,  0.467 sec
 * total energy  :  -453.3500464 Eh     change       -0.2461089E-01 Eh
   gradient norm :     0.0371560 Eh/α   predicted    -0.2511666E-01 (   2.06%)
   displ. norm   :     0.9066939 α      lambda       -0.2408380E-01
   maximum displ.:     0.4682236 α      in ANC's #78, #53, #104, ...

........................................................................
.............................. CYCLE   24 ..............................
........................................................................
   1   -461.4810630 -0.461481E+03  0.136E-02    0.78       0.0  T
   2   -461.4810697 -0.667165E-05  0.116E-02    0.78       1.0  T
   3   -461.4811008 -0.310504E-04  0.555E-03    0.78       1.1  T
   4   -461.4810958  0.492829E-05  0.454E-03    0.78       1.4  T
   5   -461.4811069 -0.110624E-04  0.923E-04    0.78       6.7  T
   6   -461.4811072 -0.255221E-06  0.251E-04    0.78      24.8  T
   7   -461.4811072 -0.239551E-07  0.104E-04    0.78      59.8  T
   8   -461.4811072 -0.168541E-08  0.555E-05    0.78     112.2  T
     SCC iter.                  ...        0 min,  1.888 sec
     gradient                   ...        0 min,  0.456 sec
 * total energy  :  -453.3680069 Eh     change       -0.1796052E-01 Eh
   gradient norm :     0.0464590 Eh/α   predicted    -0.2194148E-01 (  22.17%)
   displ. norm   :     0.8596783 α      lambda       -0.2209621E-01
   maximum displ.:     0.4970699 α      in ANC's #53, #78, #104, ...

........................................................................
.............................. CYCLE   25 ..............................
........................................................................
   1   -461.5339438 -0.461534E+03  0.121E-02    0.78       0.0  T
   2   -461.5339442 -0.388467E-06  0.915E-03    0.78       1.0  T
   3   -461.5339488 -0.460098E-05  0.529E-03    0.78       1.2  T
   4   -461.5339538 -0.505579E-05  0.321E-03    0.78       1.9  T
   5   -461.5339609 -0.706742E-05  0.748E-04    0.78       8.3  T
   6   -461.5339612 -0.335418E-06  0.297E-04    0.78      21.0  T
   7   -461.5339613 -0.546723E-07  0.156E-04    0.78      40.0  T
   8   -461.5339613 -0.150814E-07  0.493E-05    0.78     126.3  T
     SCC iter.                  ...        0 min,  1.848 sec
     gradient                   ...        0 min,  0.466 sec
 * total energy  :  -453.3849346 Eh     change       -0.1692769E-01 Eh
   gradient norm :     0.0416093 Eh/α   predicted    -0.1921319E-01 (  13.50%)
   displ. norm   :     0.8700551 α      lambda       -0.1886677E-01
   maximum displ.:     0.5091856 α      in ANC's #53, #78, #52, ...

........................................................................
.............................. CYCLE   26 ..............................
........................................................................
   1   -461.5732750 -0.461573E+03  0.117E-02    0.77       0.0  T
   2   -461.5732844 -0.935498E-05  0.883E-03    0.77       1.0  T
   3   -461.5733005 -0.161503E-04  0.425E-03    0.77       1.5  T
   4   -461.5732946  0.594701E-05  0.394E-03    0.77       1.6  T
   5   -461.5733048 -0.102550E-04  0.737E-04    0.77       8.4  T
   6   -461.5733050 -0.185754E-06  0.354E-04    0.77      17.6  T
   7   -461.5733051 -0.898291E-07  0.135E-04    0.77      46.2  T
   8   -461.5733051 -0.951991E-08  0.479E-05    0.77     130.1  T
     SCC iter.                  ...        0 min,  1.862 sec
     gradient                   ...        0 min,  0.465 sec
 * total energy  :  -453.3971821 Eh     change       -0.1224748E-01 Eh
   gradient norm :     0.0332620 Eh/α   predicted    -0.1657442E-01 (  35.33%)
   displ. norm   :     0.8105893 α      lambda       -0.1686342E-01
   maximum displ.:     0.5052501 α      in ANC's #53, #78, #55, ...

........................................................................
.............................. CYCLE   27 ..............................
........................................................................
   1   -461.6201193 -0.461620E+03  0.112E-02    0.77       0.0  T
   2   -461.6201169  0.239672E-05  0.872E-03    0.77       1.0  T
   3   -461.6201316 -0.147759E-04  0.476E-03    0.77       1.3  T
   4   -461.6201320 -0.388727E-06  0.367E-03    0.77       1.7  T
   5   -461.6201410 -0.894797E-05  0.707E-04    0.77       8.8  T
   6   -461.6201412 -0.230744E-06  0.258E-04    0.77      24.1  T
   7   -461.6201412 -0.410612E-07  0.106E-04    0.77      58.6  T
   8   -461.6201412 -0.666802E-08  0.429E-05    0.77     145.1  T
     SCC iter.                  ...        0 min,  1.889 sec
     gradient                   ...        0 min,  0.459 sec
 * total energy  :  -453.4105325 Eh     change       -0.1335034E-01 Eh
   gradient norm :     0.0236179 Eh/α   predicted    -0.1397182E-01 (   4.66%)
   displ. norm   :     0.8600036 α      lambda       -0.1276068E-01
   maximum displ.:     0.6162391 α      in ANC's #53, #78, #55, ...

........................................................................
.............................. CYCLE   28 ..............................
........................................................................
   1   -461.6531840 -0.461653E+03  0.801E-03    0.77       0.0  T
   2   -461.6531805  0.348710E-05  0.695E-03    0.77       1.0  T
   3   -461.6531994 -0.189074E-04  0.311E-03    0.77       2.0  T
   4   -461.6531988  0.693484E-06  0.267E-03    0.77       2.3  T
   5   -461.6532029 -0.410427E-05  0.555E-04    0.77      11.2  T
   6   -461.6532030 -0.138414E-06  0.260E-04    0.77      23.9  T
   7   -461.6532030 -0.501515E-07  0.883E-05    0.77      70.5  T
   8   -461.6532031 -0.399893E-08  0.346E-05    0.77     180.2  T
     SCC iter.                  ...        0 min,  1.854 sec
     gradient                   ...        0 min,  0.463 sec
 * total energy  :  -453.4208733 Eh     change       -0.1034084E-01 Eh
   gradient norm :     0.0195972 Eh/α   predicted    -0.1109928E-01 (   7.33%)
   displ. norm   :     0.8620406 α      lambda       -0.1124401E-01
   maximum displ.:     0.6222680 α      in ANC's #53, #78, #55, ...

........................................................................
.............................. CYCLE   29 ..............................
........................................................................
   1   -461.6864902 -0.461686E+03  0.822E-03    0.76       0.0  T
   2   -461.6864876  0.264115E-05  0.693E-03    0.77       1.0  T
   3   -461.6865049 -0.173722E-04  0.310E-03    0.77       2.0  T
   4   -461.6865045  0.456566E-06  0.265E-03    0.76       2.4  T
   5   -461.6865085 -0.399319E-05  0.598E-04    0.77      10.4  T
   6   -461.6865086 -0.177823E-06  0.262E-04    0.77      23.8  T
   7   -461.6865087 -0.503501E-07  0.876E-05    0.77      71.1  T
   8   -461.6865087 -0.405845E-08  0.334E-05    0.77     186.5  T
     SCC iter.                  ...        0 min,  1.857 sec
     gradient                   ...        0 min,  0.476 sec
 * total energy  :  -453.4300603 Eh     change       -0.9187006E-02 Eh
   gradient norm :     0.0187397 Eh/α   predicted    -0.9799794E-02 (   6.67%)
   displ. norm   :     0.8508753 α      lambda       -0.9927961E-02
   maximum displ.:     0.6214467 α      in ANC's #53, #78, #55, ...

........................................................................
.............................. CYCLE   30 ..............................
........................................................................
   1   -461.7129771 -0.461713E+03  0.712E-03    0.76       0.0  T
   2   -461.7129763  0.803984E-06  0.562E-03    0.76       1.1  T
   3   -461.7129884 -0.120625E-04  0.264E-03    0.76       2.4  T
   4   -461.7129893 -0.969912E-06  0.212E-03    0.76       2.9  T
   5   -461.7129916 -0.222612E-05  0.527E-04    0.76      11.8  T
   6   -461.7129917 -0.143495E-06  0.279E-04    0.76      22.3  T
   7   -461.7129918 -0.566037E-07  0.816E-05    0.76      76.3  T
   8   -461.7129918 -0.267119E-08  0.360E-05    0.76     173.1  T
     SCC iter.                  ...        0 min,  1.894 sec
     gradient                   ...        0 min,  0.468 sec
 * total energy  :  -453.4376286 Eh     change       -0.7568270E-02 Eh
   gradient norm :     0.0187666 Eh/α   predicted    -0.8557843E-02 (  13.08%)
   displ. norm   :     0.7899514 α      lambda       -0.8377486E-02
   maximum displ.:     0.6258644 α      in ANC's #53, #78, #55, ...

........................................................................
.............................. CYCLE   31 ..............................
........................................................................
   1   -461.7373071 -0.461737E+03  0.679E-03    0.77       0.0  T
   2   -461.7373082 -0.110077E-05  0.508E-03    0.77       1.2  T
   3   -461.7373154 -0.712099E-05  0.272E-03    0.77       2.3  T
   4   -461.7373168 -0.141045E-05  0.189E-03    0.77       3.3  T
   5   -461.7373186 -0.185802E-05  0.466E-04    0.77      13.4  T
   6   -461.7373187 -0.783083E-07  0.253E-04    0.77      24.6  T
   7   -461.7373188 -0.429780E-07  0.894E-05    0.77      69.7  T
   8   -461.7373188 -0.324320E-08  0.453E-05    0.77     137.4  T
     SCC iter.                  ...        0 min,  1.867 sec
     gradient                   ...        0 min,  0.473 sec
 * total energy  :  -453.4446465 Eh     change       -0.7017941E-02 Eh
   gradient norm :     0.0157377 Eh/α   predicted    -0.6802609E-02 (  -3.07%)
   displ. norm   :     0.7980263 α      lambda       -0.7166543E-02
   maximum displ.:     0.6357580 α      in ANC's #53, #78, #55, ...

........................................................................
.............................. CYCLE   32 ..............................
........................................................................
   1   -461.7533592 -0.461753E+03  0.629E-03    0.77       0.0  T
   2   -461.7533597 -0.472661E-06  0.487E-03    0.77       1.3  T
   3   -461.7533699 -0.102844E-04  0.228E-03    0.77       2.7  T
   4   -461.7533715 -0.158938E-05  0.145E-03    0.77       4.3  T
   5   -461.7533722 -0.709886E-06  0.430E-04    0.77      14.5  T
   6   -461.7533723 -0.600793E-07  0.201E-04    0.77      31.0  T
   7   -461.7533723 -0.168138E-07  0.874E-05    0.77      71.2  T
   8   -461.7533723 -0.267886E-08  0.463E-05    0.77     134.3  T
     SCC iter.                  ...        0 min,  1.855 sec
     gradient                   ...        0 min,  0.460 sec
 * total energy  :  -453.4503433 Eh     change       -0.5696765E-02 Eh
   gradient norm :     0.0146865 Eh/α   predicted    -0.5865264E-02 (   2.96%)
   displ. norm   :     0.7912535 α      lambda       -0.6696593E-02
   maximum displ.:     0.6194257 α      in ANC's #53, #55, #78, ...

........................................................................
.............................. CYCLE   33 ..............................
........................................................................
   1   -461.7675334 -0.461768E+03  0.634E-03    0.77       0.0  T
   2   -461.7675338 -0.334278E-06  0.504E-03    0.77       1.2  T
   3   -461.7675440 -0.102088E-04  0.224E-03    0.77       2.8  T
   4   -461.7675450 -0.105162E-05  0.152E-03    0.77       4.1  T
   5   -461.7675459 -0.893576E-06  0.506E-04    0.77      12.3  T
   6   -461.7675460 -0.100145E-06  0.212E-04    0.77      29.4  T
   7   -461.7675461 -0.168710E-07  0.109E-04    0.77      57.2  T
   8   -461.7675461 -0.647714E-08  0.462E-05    0.77     134.8  T
     SCC iter.                  ...        0 min,  1.854 sec
     gradient                   ...        0 min,  0.472 sec
 * total energy  :  -453.4555299 Eh     change       -0.5186596E-02 Eh
   gradient norm :     0.0158838 Eh/α   predicted    -0.5444608E-02 (   4.97%)
   displ. norm   :     0.7716725 α      lambda       -0.5724544E-02
   maximum displ.:     0.6210789 α      in ANC's #53, #55, #78, ...

........................................................................
.............................. CYCLE   34 ..............................
........................................................................
   1   -461.7804436 -0.461780E+03  0.595E-03    0.77       0.0  T
   2   -461.7804448 -0.121557E-05  0.458E-03    0.77       1.4  T
   3   -461.7804528 -0.803990E-05  0.195E-03    0.77       3.2  T
   4   -461.7804531 -0.298219E-06  0.148E-03    0.77       4.2  T
   5   -461.7804542 -0.108150E-05  0.512E-04    0.77      12.1  T
   6   -461.7804543 -0.998747E-07  0.238E-04    0.77      26.1  T
   7   -461.7804543 -0.270893E-07  0.990E-05    0.77      62.9  T
   8   -461.7804543 -0.381488E-08  0.489E-05    0.77     127.4  T
     SCC iter.                  ...        0 min,  1.858 sec
     gradient                   ...        0 min,  0.461 sec
 * total energy  :  -453.4602606 Eh     change       -0.4730701E-02 Eh
   gradient norm :     0.0134811 Eh/α   predicted    -0.4566702E-02 (  -3.47%)
   displ. norm   :     0.7533838 α      lambda       -0.4730307E-02
   maximum displ.:     0.6332623 α      in ANC's #53, #55, #78, ...

........................................................................
.............................. CYCLE   35 ..............................
........................................................................
   1   -461.7939472 -0.461794E+03  0.524E-03    0.77       0.0  T
   2   -461.7939493 -0.206209E-05  0.369E-03    0.77       1.7  T
   3   -461.7939537 -0.439661E-05  0.183E-03    0.77       3.4  T
   4   -461.7939541 -0.467570E-06  0.135E-03    0.77       4.6  T
   5   -461.7939550 -0.875284E-06  0.529E-04    0.77      11.8  T
   6   -461.7939551 -0.128184E-06  0.222E-04    0.77      28.0  T
   7   -461.7939551 -0.215550E-07  0.799E-05    0.77      77.9  T
   8   -461.7939552 -0.141057E-08  0.460E-05    0.77     135.3  T
     SCC iter.                  ...        0 min,  1.841 sec
     gradient                   ...        0 min,  0.472 sec
 * total energy  :  -453.4642459 Eh     change       -0.3985303E-02 Eh
   gradient norm :     0.0116242 Eh/α   predicted    -0.3707583E-02 (  -6.97%)
   displ. norm   :     0.7372211 α      lambda       -0.3924972E-02
   maximum displ.:     0.6076464 α      in ANC's #53, #55, #50, ...

........................................................................
.............................. CYCLE   36 ..............................
........................................................................
   1   -461.8078625 -0.461808E+03  0.467E-03    0.77       0.0  T
   2   -461.8078650 -0.248494E-05  0.291E-03    0.77       2.1  T
   3   -461.8078672 -0.225374E-05  0.167E-03    0.77       3.7  T
   4   -461.8078680 -0.764368E-06  0.108E-03    0.77       5.8  T
   5   -461.8078683 -0.377268E-06  0.537E-04    0.77      11.6  T
   6   -461.8078685 -0.169909E-06  0.163E-04    0.77      38.1  T
   7   -461.8078685 -0.883682E-08  0.631E-05    0.77      98.6  T
     SCC iter.                  ...        0 min,  1.630 sec
     gradient                   ...        0 min,  0.467 sec
 * total energy  :  -453.4677231 Eh     change       -0.3477204E-02 Eh
   gradient norm :     0.0097036 Eh/α   predicted    -0.3029093E-02 ( -12.89%)
   displ. norm   :     0.7248539 α      lambda       -0.3279892E-02
   maximum displ.:     0.6098342 α      in ANC's #53, #55, #50, ...

........................................................................
.............................. CYCLE   37 ..............................
........................................................................
   1   -461.8206817 -0.461821E+03  0.443E-03    0.77       0.0  T
   2   -461.8206840 -0.224186E-05  0.290E-03    0.77       2.1  T
   3   -461.8206866 -0.263418E-05  0.146E-03    0.77       4.3  T
   4   -461.8206870 -0.347879E-06  0.926E-04    0.77       6.7  T
   5   -461.8206871 -0.103726E-06  0.551E-04    0.77      11.3  T
   6   -461.8206873 -0.229857E-06  0.138E-04    0.77      45.2  T
   7   -461.8206873 -0.765141E-08  0.510E-05    0.77     122.0  T
     SCC iter.                  ...        0 min,  1.632 sec
     gradient                   ...        0 min,  0.464 sec
 * total energy  :  -453.4706439 Eh     change       -0.2920818E-02 Eh
   gradient norm :     0.0073752 Eh/α   predicted    -0.2501589E-02 ( -14.35%)
   displ. norm   :     0.6951400 α      lambda       -0.2721719E-02
   maximum displ.:     0.5819784 α      in ANC's #53, #55, #29, ...

........................................................................
.............................. CYCLE   38 ..............................
........................................................................
   1   -461.8318703 -0.461832E+03  0.389E-03    0.77       0.0  T
   2   -461.8318720 -0.171576E-05  0.248E-03    0.77       2.5  T
   3   -461.8318740 -0.195255E-05  0.127E-03    0.77       4.9  T
   4   -461.8318742 -0.238754E-06  0.737E-04    0.77       8.4  T
   5   -461.8318742 -0.142264E-07  0.439E-04    0.77      14.2  T
   6   -461.8318744 -0.156815E-06  0.130E-04    0.77      48.0  T
   7   -461.8318744 -0.822951E-08  0.402E-05    0.77     154.9  T
     SCC iter.                  ...        0 min,  1.631 sec
     gradient                   ...        0 min,  0.466 sec
 * total energy  :  -453.4729870 Eh     change       -0.2343063E-02 Eh
   gradient norm :     0.0073071 Eh/α   predicted    -0.2018457E-02 ( -13.85%)
   displ. norm   :     0.6622391 α      lambda       -0.2322391E-02
   maximum displ.:     0.5482597 α      in ANC's #53, #55, #29, ...

........................................................................
.............................. CYCLE   39 ..............................
........................................................................
   1   -461.8424437 -0.461842E+03  0.337E-03    0.77       0.0  T
   2   -461.8424449 -0.119826E-05  0.205E-03    0.77       3.0  T
   3   -461.8424461 -0.128295E-05  0.117E-03    0.77       5.3  T
   4   -461.8424464 -0.278219E-06  0.629E-04    0.77       9.9  T
   5   -461.8424465 -0.259878E-07  0.337E-04    0.77      18.5  T
   6   -461.8424466 -0.104409E-06  0.106E-04    0.77      59.0  T
   7   -461.8424466 -0.585629E-08  0.338E-05    0.77     184.2  T
     SCC iter.                  ...        0 min,  1.634 sec
     gradient                   ...        0 min,  0.469 sec
 * total energy  :  -453.4748706 Eh     change       -0.1883610E-02 Eh
   gradient norm :     0.0067233 Eh/α   predicted    -0.1670449E-02 ( -11.32%)
   displ. norm   :     0.6008353 α      lambda       -0.1754657E-02
   maximum displ.:     0.5013342 α      in ANC's #53, #55, #29, ...

........................................................................
.............................. CYCLE   40 ..............................
........................................................................
   1   -461.8521409 -0.461852E+03  0.293E-03    0.77       0.0  T
   2   -461.8521417 -0.747382E-06  0.185E-03    0.77       3.4  T
   3   -461.8521427 -0.103350E-05  0.104E-03    0.77       6.0  T
   4   -461.8521428 -0.138846E-06  0.610E-04    0.77      10.2  T
   5   -461.8521430 -0.144568E-06  0.281E-04    0.77      22.2  T
   6   -461.8521430 -0.689351E-07  0.817E-05    0.77      76.2  T
   7   -461.8521431 -0.328299E-08  0.295E-05    0.77     210.8  T
     SCC iter.                  ...        0 min,  1.630 sec
     gradient                   ...        0 min,  0.466 sec
 * total energy  :  -453.4763568 Eh     change       -0.1486186E-02 Eh
   gradient norm :     0.0056974 Eh/α   predicted    -0.1194042E-02 ( -19.66%)
   displ. norm   :     0.5537509 α      lambda       -0.1275802E-02
   maximum displ.:     0.4589984 α      in ANC's #53, #55, #29, ...

........................................................................
.............................. CYCLE   41 ..............................
........................................................................
   1   -461.8585843 -0.461859E+03  0.266E-03    0.77       0.0  T
   2   -461.8585850 -0.627493E-06  0.175E-03    0.77       3.6  T
   3   -461.8585860 -0.102262E-05  0.900E-04    0.77       6.9  T
   4   -461.8585861 -0.921014E-07  0.603E-04    0.77      10.3  T
   5   -461.8585862 -0.159951E-06  0.223E-04    0.77      27.9  T
   6   -461.8585863 -0.345224E-07  0.763E-05    0.77      81.6  T
   7   -461.8585863 -0.275276E-08  0.259E-05    0.77     240.6  T
     SCC iter.                  ...        0 min,  1.631 sec
     gradient                   ...        0 min,  0.470 sec
 * total energy  :  -453.4774295 Eh     change       -0.1072693E-02 Eh
   gradient norm :     0.0043918 Eh/α   predicted    -0.8335085E-03 ( -22.30%)
   displ. norm   :     0.5243790 α      lambda       -0.1035395E-02
   maximum displ.:     0.4245933 α      in ANC's #53, #55, #29, ...

........................................................................
.............................. CYCLE   42 ..............................
........................................................................
   1   -461.8638938 -0.461864E+03  0.254E-03    0.77       0.0  T
   2   -461.8638943 -0.479019E-06  0.170E-03    0.77       3.7  T
   3   -461.8638954 -0.114319E-05  0.826E-04    0.77       7.5  T
   4   -461.8638956 -0.140873E-06  0.581E-04    0.77      10.7  T
   5   -461.8638957 -0.139991E-06  0.181E-04    0.77      34.4  T
   6   -461.8638957 -0.165995E-07  0.765E-05    0.77      81.4  T
     SCC iter.                  ...        0 min,  1.400 sec
     gradient                   ...        0 min,  0.467 sec
 * total energy  :  -453.4781779 Eh     change       -0.7484477E-03 Eh
   gradient norm :     0.0058062 Eh/α   predicted    -0.6600559E-03 ( -11.81%)
   displ. norm   :     0.4315056 α      lambda       -0.7225128E-03
   maximum displ.:     0.3498750 α      in ANC's #53, #55, #29, ...
 * RMSD in coord.:     0.8950297 α      energy gain  -0.2111720E+00 Eh

generating ANC from model Hessian ...
Using Lindh-Hessian (1995)
 Shifting diagonal of input Hessian by    9.9998412056156068E-003
 Lowest  eigenvalues of input Hessian
    0.000000    0.000000    0.000000    0.000000    0.000000    0.000000
    0.010000    0.010001    0.010001    0.010001    0.010003    0.010004
    0.010004    0.010006    0.010006    0.010007    0.010010    0.010011
 Highest eigenvalues
[...]
    12   6 C       13   6 C                                       1.4110091
    13   6 C       14   6 C                                       1.4079379
    14   6 C       15   6 C                                       1.4211506
    15   6 C       16   6 C                                       1.3676295
    16   6 C       17   6 C                                       1.4230514
    14   6 C       18   7 N                                       1.3619327
    17   6 C       18   7 N                                       1.3689518
    17   6 C       19   6 C                                       1.3891461
    19   6 C       20   6 C                                       1.3895173
    21   6 C       22   6 C                                       1.3481550
     1   6 C       23   6 C                                       1.3897783
    20   6 C       24   7 N                                       1.3535282
    23   6 C       24   7 N                                       1.3544728
     1   6 C       25   1 H                                       1.0848546
     3   6 C       26   1 H                                       1.0784498
     4   6 C       27   1 H                                       1.0784890
     6   7 N       28   1 H                                       1.0144628 (min)
     7   6 C       29   1 H                                       1.0853554
     9   6 C       30   1 H                                       1.0787260
    10   6 C       31   1 H                                       1.0784177
    15   6 C       32   1 H                                       1.0782279
    16   6 C       33   1 H                                       1.0783442
    18   7 N       34   1 H                                       1.0147053
    19   6 C       35   1 H                                       1.0852808
    21   6 C       36   1 H                                       1.0789037
    22   6 C       37   1 H                                       1.0788830
    38   6 C       39   6 C                                       1.3891265
    39   6 C       40   6 C                                       1.4245551
    40   6 C       41   6 C                                       1.3665431
    41   6 C       42   6 C                                       1.4246569
    39   6 C       43   7 N                                       1.3659240
    42   6 C       43   7 N                                       1.3648369
    42   6 C       44   6 C                                       1.3901117
    44   6 C       45   6 C                                       1.3873293
    45   6 C       46   6 C                                       1.4522847
    46   6 C       47   6 C                                       1.3490849
    45   6 C       48   7 N                                       1.3610696
    47   6 C       49   6 C                                       1.4519876
    48   7 N       49   6 C                                       1.3464250
    49   6 C       50   6 C                                       1.4109892
    50   6 C       51   6 C                                       1.4079268
    51   6 C       52   6 C                                       1.4211559
    52   6 C       53   6 C                                       1.3676263
    53   6 C       54   6 C                                       1.4230550
    51   6 C       55   7 N                                       1.3619378
    54   6 C       55   7 N                                       1.3689485
    54   6 C       56   6 C                                       1.3891442
    56   6 C       57   6 C                                       1.3895185
    58   6 C       59   6 C                                       1.3481547
    38   6 C       60   6 C                                       1.3897786
    57   6 C       61   7 N                                       1.3535269
    60   6 C       61   7 N                                       1.3544722
    38   6 C       62   1 H                                       1.0848546
    40   6 C       63   1 H                                       1.0784499
    41   6 C       64   1 H                                       1.0784891
    43   7 N       65   1 H                                       1.0144629
    44   6 C       66   1 H                                       1.0853551
    46   6 C       67   1 H                                       1.0787262
    47   6 C       68   1 H                                       1.0784183
    52   6 C       69   1 H                                       1.0782278
    53   6 C       70   1 H                                       1.0783443
    55   7 N       71   1 H                                       1.0147049
    56   6 C       72   1 H                                       1.0852806
    58   6 C       73   1 H                                       1.0789037
    59   6 C       74   1 H                                       1.0788831
    75   6 C       76   6 C                                       1.2250862
    77   6 C       78   6 C                                       1.2312697
    79   6 C       80   6 C                                       1.2313399
    81   6 C       82   6 C                                       1.2253210
    83   6 C       84   6 C                                       1.2255241
    85   6 C       86   6 C                                       1.2315703
    87   6 C       88   6 C                                       1.2315912
    89   6 C       90   6 C                                       1.2255418
    91   6 C       92   6 C                                       1.2255584
    93   6 C       94   6 C                                       1.2316059
    95   6 C       96   6 C                                       1.2316136
    97   6 C       98   6 C                                       1.2255753
    99   6 C      100   6 C                                       1.2255368
   101   6 C      102   6 C                                       1.2315619
   103   6 C      104   6 C                                       1.2315763
   105   6 C      106   6 C                                       1.2255291
   107   6 C      108   6 C                                       1.2253231
   109   6 C      110   6 C                                       1.2313227
   111   6 C      112   6 C                                       1.2312550
   113   6 C      114   6 C                                       1.2250796
   115   6 C      116   6 C                                       1.4088001
   116   6 C      117   6 C                                       1.4198498
   117   6 C      118   6 C                                       1.3686055
   118   6 C      119   6 C                                       1.4219734
   116   6 C      120   7 N                                       1.3620211
   119   6 C      120   7 N                                       1.3679377
   119   6 C      121   6 C                                       1.3909716
   121   6 C      122   6 C                                       1.3863529
   122   6 C      123   6 C                                       1.4523519
   123   6 C      124   6 C                                       1.3492158
   122   6 C      125   7 N                                       1.3611176
   124   6 C      126   6 C                                       1.4513478
   125   7 N      126   6 C                                       1.3464979
   126   6 C      127   6 C                                       1.4111219
   127   6 C      128   6 C                                       1.4088410
   128   6 C      129   6 C                                       1.4199500
   129   6 C      130   6 C                                       1.3685390
   130   6 C      131   6 C                                       1.4220733
   128   6 C      132   7 N                                       1.3619880
   131   6 C      132   7 N                                       1.3681427
   131   6 C      133   6 C                                       1.3907731
   133   6 C      134   6 C                                       1.3866124
   134   6 C      135   6 C                                       1.4523452
   135   6 C      136   6 C                                       1.3492664
   115   6 C      137   6 C                                       1.4108003
   136   6 C      137   6 C                                       1.4512398
   134   6 C      138   7 N                                       1.3608518
   137   6 C      138   7 N                                       1.3467463
   117   6 C      139   1 H                                       1.0781899
   118   6 C      140   1 H                                       1.0783285
   120   7 N      141   1 H                                       1.0147707
   121   6 C      142   1 H                                       1.0856283
   123   6 C      143   1 H                                       1.0787211
   124   6 C      144   1 H                                       1.0784176
   129   6 C      145   1 H                                       1.0781841
   130   6 C      146   1 H                                       1.0783328
   132   7 N      147   1 H                                       1.0147758
   133   6 C      148   1 H                                       1.0856364
   135   6 C      149   1 H                                       1.0787218
   136   6 C      150   1 H                                       1.0784273
   151   6 C      152   6 C                                       1.4089179
   152   6 C      153   6 C                                       1.4198619
   153   6 C      154   6 C                                       1.3685987
   154   6 C      155   6 C                                       1.4220545
   152   6 C      156   7 N                                       1.3620522
   155   6 C      156   7 N                                       1.3680016
   155   6 C      157   6 C                                       1.3909564
   157   6 C      158   6 C                                       1.3864851
   158   6 C      159   6 C                                       1.4523951
   159   6 C      160   6 C                                       1.3492444
   158   6 C      161   7 N                                       1.3610164
   160   6 C      162   6 C                                       1.4512690
   161   7 N      162   6 C                                       1.3466312
   162   6 C      163   6 C                                       1.4111057
   163   6 C      164   6 C                                       1.4089285
   164   6 C      165   6 C                                       1.4198833
   165   6 C      166   6 C                                       1.3685812
   166   6 C      167   6 C                                       1.4220671
   164   6 C      168   7 N                                       1.3620528
   167   6 C      168   7 N                                       1.3680495
   167   6 C      169   6 C                                       1.3909102
   169   6 C      170   6 C                                       1.3865237
   170   6 C      171   6 C                                       1.4523874
   171   6 C      172   6 C                                       1.3492538
   151   6 C      173   6 C                                       1.4110355
   172   6 C      173   6 C                                       1.4512433
   170   6 C      174   7 N                                       1.3609634
   173   6 C      174   7 N                                       1.3466560
   153   6 C      175   1 H                                       1.0781859
   154   6 C      176   1 H                                       1.0783311
   156   7 N      177   1 H                                       1.0147943
   157   6 C      178   1 H                                       1.0856552
   159   6 C      179   1 H                                       1.0787203
   160   6 C      180   1 H                                       1.0784236
   165   6 C      181   1 H                                       1.0781830
   166   6 C      182   1 H                                       1.0783312
   168   7 N      183   1 H                                       1.0147981
   169   6 C      184   1 H                                       1.0856559
   171   6 C      185   1 H                                       1.0787203
   172   6 C      186   1 H                                       1.0784276
   187   6 C      188   6 C                                       1.4089306
   188   6 C      189   6 C                                       1.4198835
   189   6 C      190   6 C                                       1.3685794
   190   6 C      191   6 C                                       1.4220666
   188   6 C      192   7 N                                       1.3620490
   191   6 C      192   7 N                                       1.3680495
   191   6 C      193   6 C                                       1.3909105
   193   6 C      194   6 C                                       1.3865247
   194   6 C      195   6 C                                       1.4523835
   195   6 C      196   6 C                                       1.3492559
   194   6 C      197   7 N                                       1.3609655
   196   6 C      198   6 C                                       1.4512459
   197   7 N      198   6 C                                       1.3466585
   198   6 C      199   6 C                                       1.4110548
   199   6 C      200   6 C                                       1.4089064
   200   6 C      201   6 C                                       1.4198595
   201   6 C      202   6 C                                       1.3685973
   202   6 C      203   6 C                                       1.4220563
   200   6 C      204   7 N                                       1.3620531
   203   6 C      204   7 N                                       1.3680036
   203   6 C      205   6 C                                       1.3909569
   205   6 C      206   6 C                                       1.3864868
   206   6 C      207   6 C                                       1.4523976 (max)
   207   6 C      208   6 C                                       1.3492458
   187   6 C      209   6 C                                       1.4110987
   208   6 C      209   6 C                                       1.4512678
   206   6 C      210   7 N                                       1.3610131
   209   6 C      210   7 N                                       1.3466340
   189   6 C      211   1 H                                       1.0781831
   190   6 C      212   1 H                                       1.0783309
   192   7 N      213   1 H                                       1.0147979
   193   6 C      214   1 H                                       1.0856555
   195   6 C      215   1 H                                       1.0787199
   196   6 C      216   1 H                                       1.0784246
   201   6 C      217   1 H                                       1.0781869
   202   6 C      218   1 H                                       1.0783311
   204   7 N      219   1 H                                       1.0147938
   205   6 C      220   1 H                                       1.0856560
   207   6 C      221   1 H                                       1.0787210
   208   6 C      222   1 H                                       1.0784240
   223   6 C      224   6 C                                       1.4088367
   224   6 C      225   6 C                                       1.4199520
   225   6 C      226   6 C                                       1.3685389
   226   6 C      227   6 C                                       1.4220747
   224   6 C      228   7 N                                       1.3619910
   227   6 C      228   7 N                                       1.3681414
   227   6 C      229   6 C                                       1.3907695
   229   6 C      230   6 C                                       1.3866142
   230   6 C      231   6 C                                       1.4523473
   231   6 C      232   6 C                                       1.3492608
   230   6 C      233   7 N                                       1.3608451
   232   6 C      234   6 C                                       1.4512445
   233   7 N      234   6 C                                       1.3467517
   234   6 C      235   6 C                                       1.4107894
   235   6 C      236   6 C                                       1.4087796
   236   6 C      237   6 C                                       1.4198550
   237   6 C      238   6 C                                       1.3686043
   238   6 C      239   6 C                                       1.4219795
   236   6 C      240   7 N                                       1.3620293
   239   6 C      240   7 N                                       1.3679318
   239   6 C      241   6 C                                       1.3909704
   241   6 C      242   6 C                                       1.3863570
   242   6 C      243   6 C                                       1.4523531
   243   6 C      244   6 C                                       1.3492137
   223   6 C      245   6 C                                       1.4111269
   244   6 C      245   6 C                                       1.4513484
   242   6 C      246   7 N                                       1.3611171
   245   6 C      246   7 N                                       1.3465001
   225   6 C      247   1 H                                       1.0781836
   226   6 C      248   1 H                                       1.0783330
   228   7 N      249   1 H                                       1.0147767
   229   6 C      250   1 H                                       1.0856360
   231   6 C      251   1 H                                       1.0787219
   232   6 C      252   1 H                                       1.0784275
   237   6 C      253   1 H                                       1.0781900
   238   6 C      254   1 H                                       1.0783287
   240   7 N      255   1 H                                       1.0147715
   241   6 C      256   1 H                                       1.0856283
   243   6 C      257   1 H                                       1.0787205
   244   6 C      258   1 H                                       1.0784170

 * 4 distinct bonds (by element types)

   Z      Z             #   av. dist./Å        max./Å        min./Å
   1 H    6 C          62     1.0800372     1.0856560     1.0781830
   6 C    6 C         136     1.3780906     1.4523976     1.2250796
   1 H    7 N          12     1.0147179     1.0147981     1.0144628
   6 C    7 N          48     1.3594946     1.3689518     1.3464159


optimized geometry written to: xtbopt.xyz


           -------------------------------------------------
          | TOTAL ENERGY             -453.479907047370 Eh   |
          | GRADIENT NORM               0.000284660277 Eh/α |
          | HOMO-LUMO GAP               0.765513954173 eV   |
           -------------------------------------------------

------------------------------------------------------------------------
 * finished run on 2022/07/26 at 17:06:42.166     
------------------------------------------------------------------------
 total:
 * wall-time:     0 d,  0 h,  5 min,  4.894 sec
 *  cpu-time:     0 d,  0 h,  5 min,  3.284 sec
 * ratio c/w:     0.995 speedup
 SCF:
 * wall-time:     0 d,  0 h,  0 min, 20.521 sec
 *  cpu-time:     0 d,  0 h,  0 min, 20.411 sec
 * ratio c/w:     0.995 speedup
 ANC optimizer:
 * wall-time:     0 d,  0 h,  4 min, 44.148 sec
 *  cpu-time:     0 d,  0 h,  4 min, 42.669 sec
 * ratio c/w:     0.995 speedup

