189
 energy: -342.069514129702 gnorm: 0.000567842914 xtb: 6.5.1 (b24c23e)
Fe          26.04430542984597       -0.02057905326680       -0.08020522951173
C           22.65527011093275       -0.06932410700132       -0.21005660667406
C           23.31428855199805       -1.28040616138938       -0.17613821593133
C           22.64011651601150       -2.54338637726120       -0.17598648887882
C           23.59679081564131       -3.49302169206640       -0.05297203178634
C           24.85633585917619       -2.80881818392069        0.00236923494523
N           24.66939459479506       -1.45462188801356       -0.06979349801379
C           26.08032492302396       -3.45112421651379        0.15334596066782
C           26.09985035063717       -4.93052912477187        0.26069369135236
C           25.68273685136936       -5.72647332208176       -0.80596779188680
C           25.70865725269081       -7.10929902129105       -0.70903754395402
C           26.14775724075514       -7.71163099777916        0.46765591164493
O           26.18653115247555       -9.06189032714528        0.60637128368600
C           26.56339709245341       -6.92701218732603        1.54196627089315
C           26.54232288488529       -5.54790442377477        1.43286072559259
C           27.28862178689452       -2.77038591496540        0.19104637789626
C           28.56264255258188       -3.42204073262144        0.26348186044401
C           29.50353821326706       -2.45066088956732        0.19228641093347
N           27.45380786031465       -1.40936175872154        0.08529180483261
C           28.80273452894548       -1.21015979706918        0.07836310991778
C           29.45370595742040        0.02412079805132       -0.02887854532585
C           28.77198111618845        1.24355174458327       -0.10992365743713
C           29.44076079937064        2.50178256313730       -0.21968950607997
C           28.47656291651177        3.45285873745510       -0.23656197034125
C           27.22075697569484        2.77095697603914       -0.13322183337244
N           27.41921308329148        1.41194330238271       -0.07205096449505
C           25.99302940253270        3.41804581973761       -0.11516074097493
C           25.97460523742938        4.90020110291849       -0.13853708770021
C           26.54834712571741        5.63328054081787        0.90314365178401
C           26.53507336675738        7.01661590480987        0.88678973075439
C           25.95107914129058        7.68973492205217       -0.18490105890741
O           25.96024178174549        9.04742269186429       -0.17179779949042
C           25.37916591383652        6.97188330889984       -1.23275035190635
C           25.38974169464560        5.58596932487590       -1.20349389919365
C           24.78156648163867        2.73547025632720       -0.09648468243435
C           23.50095628531622        3.38141770845732       -0.07219964045685
C           22.56745561424074        2.40234185448141       -0.12113980130628
C           23.27807360434206        1.16011395562515       -0.15425191877507
N           24.63095684977842        1.37477009490282       -0.11647831156851
H           21.57234023233369       -0.08487916944267       -0.26239001093082
H           21.57097733004868       -2.66603199688140       -0.24711078426821
H           23.47226992501491       -4.56212111825132        0.00527924936196
H           25.35257693272516       -5.25872027514365       -1.72679205496738
H           25.39104343287541       -7.72413258045076       -1.54436919464034
H           25.87837136367322       -9.50749465273515       -0.19414360804867
H           26.89901354224645       -7.40906286967519        2.45182061559880
H           26.85741734802639       -4.93660481052123        2.27106288358731
H           28.70808851992731       -4.48722333628465        0.33932306572205
H           30.57691352192694       -2.54974897076190        0.20947282454163
H           30.51014666539841        2.62498744046278       -0.27913882719403
H           28.59472483487406        4.52040037004658       -0.32552288073889
H           26.99360086972382        5.10937701068195        1.74149704040769
H           26.97273506729227        7.58776760642814        1.69616408174672
H           25.53058610712018        9.41054294895939       -0.95787644578594
H           24.93030242085254        7.49986990587869       -2.06727567160998
H           24.95629851235655        5.02845881223188       -2.02633862666915
H           23.34801144220265        4.44703901796747       -0.01807417079491
H           21.49274330061687        2.49255081515155       -0.12561748793649
Fe          63.14054601102165       -0.00639899486762       -0.04262904705456
C           66.52470664284701        0.03393015015847       -0.20133159964130
C           65.85703260593738        1.22607413693666       -0.39169877941901
C           66.51860109869084        2.47128780450397       -0.63944595580314
C           65.55805528963415        3.42527122943536       -0.64871384002332
C           64.30838754028917        2.75908222809103       -0.42032370970445
N           64.50407867455517        1.41209684362279       -0.27779766710017
C           63.09218163186176        3.41903615322120       -0.27486224352422
C           63.06992712721405        4.89866992927088       -0.37761089035970
C           63.39508314411514        5.52946174888286       -1.57838721047169
C           63.36623199775752        6.91168789457280       -1.68176860763090
C           63.01687168969196        7.68043451918422       -0.57394770321090
O           62.97836987750184        9.03650826513057       -0.63024971814161
C           62.69439830984935        7.06191329440099        0.63269083616167
C           62.71789707708757        5.68148032574331        0.72413106581390
C           61.89611600283165        2.75259920224699       -0.05068475276913
C           60.62595387689053        3.40816791348224        0.05061048482846
C           59.68802576130517        2.43435242492415        0.13189591907356
N           61.73162985641562        1.38760822152159       -0.01010569160839
C           60.38636141051023        1.18850961017627        0.07745903262691
C           59.73505618716508       -0.05115168221357        0.04572618708267
C           60.42016341643399       -1.27228731621853        0.01733551183795
C           59.75847991234838       -2.53849371219435       -0.01805677887047
C           60.72508232794917       -3.48340300738619        0.07419387080403
C           61.97474617645244       -2.78914772524496        0.16889037196795
N           61.77143371760554       -1.43142327646839        0.09934516024527
C           63.20067330588999       -3.42024237632556        0.32989296442046
C           63.22190184239162       -4.89261804686631        0.49322529847723
C           62.57005181117625       -5.49466902588187        1.57263089589322
C           62.58545739070862       -6.86860221804352        1.73279021955446
C           63.24990238365135       -7.66566675952759        0.80214971156748
O           63.24026446703130       -9.01059352285896        0.98629746787111
C           63.89988284071429       -7.07983346982754       -0.28181225648215
C           63.88706127618079       -5.70153756111735       -0.42880842287266
C           64.40809442582815       -2.72874392059894        0.32861143903934
C           65.68852936556620       -3.35034632511508        0.50643924431308
C           66.62057962105214       -2.38298347655328        0.33633282049847
C           65.90834332073858       -1.16895962510532        0.07565907784253
N           64.55576241941262       -1.38603348288313        0.10722966728856
H           67.60755809994646        0.04654651558240       -0.25582356364552
H           67.58327630630494        2.58305910513472       -0.77026382630820
H           65.67511547552039        4.48842446313091       -0.78247899587763
H           63.65493055443464        4.93135253314085       -2.44467776615156
H           63.61204329690624        7.39715399601785       -2.62014510539669
H           63.21867892259795        9.36001489111937       -1.50886359465144
H           62.42841764071318        7.67249472628957        1.48666774319654
H           62.47659030819219        5.20021565062844        1.66523119468914
H           60.47876574219507        4.47573391991198        0.03959930718632
H           58.61753888052390        2.53489916584122        0.21078748065965
H           58.69184774412020       -2.67143464206451       -0.10127182082594
H           60.61242767533493       -4.55525681902270        0.06811242941628
H           62.06216518768836       -4.87375815555486        2.30208366169069
H           62.08785268860578       -7.33744463871525        2.57267981051453
H           63.72856167011882       -9.46611468547303        0.28739863846257
H           64.41095990273099       -7.70439087916801       -1.00664461314576
H           64.38147114719833       -5.24809903626293       -1.28068588536447
H           65.84237714300559       -4.39235082746336        0.73554077136660
H           67.69494145686153       -2.46369933218986        0.38508256565249
C           30.85513314915749        0.03898724176094       -0.04241352479916
C           32.08105876333494        0.04775313665534       -0.04951471903131
C           33.42116251194364        0.05280380464571       -0.05630398432545
C           34.65340961701621        0.05317750606138       -0.05911316458062
C           35.98854702615346        0.05148746435778       -0.06014049959410
C           37.22100324657607        0.04710735162840       -0.05949119383692
C           38.56070779832496        0.04151626939489       -0.05930266248251
C           39.78705190956385        0.03545620898795       -0.06018596785271
C           49.40510325580221       -0.06931065555489        0.01387944220498
C           50.63196909697155       -0.08182747793732        0.02628476134613
C           51.97025916643160       -0.09418037366657        0.03635691279919
C           53.20341722744433       -0.09827809024671        0.04377206657508
C           54.53721651597927       -0.09820613594324        0.04919712862942
C           55.77023306662229       -0.09363188731659        0.05499936653095
C           57.10885352471703       -0.08291815038958        0.05298044423742
C           58.33546607797575       -0.06934252364163        0.04972388262749
Fe          44.59722123277735       -0.00261915616406       -0.04795589043083
C           41.18695613120670        0.02781580590592       -0.06077388741444
C           41.86410368493247        0.97893557411279        0.71342637955754
C           41.20120572032107        1.93511040863755        1.54223211284255
C           42.16217690534511        2.75958521115982        2.02704427340530
C           43.40684853983184        2.30779447047477        1.48200293131753
N           43.21159758660789        1.18595356347167        0.71465911101717
C           44.61919294779125        2.96646430751258        1.65535567975220
C           44.62911658651903        4.24788195894192        2.39711634146040
C           45.38560732061018        4.38701669072087        3.56392007787141
C           45.39296173473387        5.57920829966495        4.26512216838283
C           44.64686032315060        6.66054380248232        3.79879553410432
O           44.68122578089760        7.81653818116369        4.50834882397535
C           43.89246125273277        6.53818155989750        2.63383172296940
C           43.88204420769277        5.33613070793537        1.94410340005117
C           45.82273769427140        2.47131201483332        1.16741773162933
C           47.07761588313466        3.15152042552352        1.28281306922879
C           48.02664026472272        2.30143311990134        0.81930967311419
N           46.00042377385154        1.24044515870192        0.58396469187111
C           47.34610608203657        1.11348239591422        0.41143877285317
C           48.00696807357106       -0.04944606356470       -0.00771801435876
C           47.32411627692174       -1.18949095708702       -0.45309535496359
C           47.98040879228523       -2.39175422976599       -0.85873898000904
C           47.02139536338047       -3.20278326827058       -1.36946997086080
C           45.78446139844496       -2.48700007689878       -1.27878977706605
N           45.98116755569634       -1.27167120480738       -0.67030183386661
C           44.57939887650372       -2.94242510241312       -1.80122214812836
C           44.57604262990517       -4.20872552430470       -2.56855207828244
C           43.79944180748408       -5.29102191829968       -2.15257180393798
C           43.79958567267700       -6.47849761733680       -2.86724727051676
C           44.57390914005241       -6.59190944261453       -4.01992370414555
O           44.59956318830009       -7.73365195377630       -4.75267208127331
C           45.35038159392545       -5.51652009932618       -4.44891213237807
C           45.35282025460136       -4.33922634536197       -3.72298821173822
C           43.37851558315947       -2.26288000315555       -1.63039108497367
C           42.12921221221020       -2.68651189557666       -2.18750889843362
C           41.17800891224613       -1.86039604237098       -1.68651619643089
C           41.85220324909735       -0.92732510502303       -0.84072015961363
N           43.19678308510015       -1.15101826065914       -0.84474377791260
H           40.13823317387025        1.96128194648008        1.72023699249942
H           42.04723085307912        3.59555661028128        2.69751915031113
H           45.95621305073207        3.54232324827041        3.93331133576100
H           45.97037202366855        5.68702778930526        5.17496770558945
H           44.12789762677014        8.49748786296575        4.10256923373742
H           43.31759372928914        7.38372009404479        2.27168962791081
H           43.30415159387146        5.24578770637171        1.03109147759208
H           47.20701960872741        4.15056341156612        1.66586076140247
H           49.09229245342830        2.45148613139269        0.75496369177441
H           49.03835073303957       -2.57604546299946       -0.76346143966915
H           47.13234914226416       -4.19822569591352       -1.76745275258034
H           43.20651907978905       -5.20856248247526       -1.24851157449540
H           43.20161625845505       -7.31979135791964       -2.53375639743697
H           44.02634831757263       -8.41203704017573       -4.37092151463031
H           45.94359185144451       -5.61726943669782       -5.34934186178948
H           45.94759092270561       -3.49885927334258       -4.06298803472905
H           42.00435455452777       -3.50735947989760       -2.87467257067096
H           40.11501279115253       -1.86962154991072       -1.86609500808431
