160
 energy: -293.408282066146 gnorm: 1.340370775537 xtb: 6.5.1 (b24c23e)
Co          18.96910900000000        0.02791500000000        0.02943100000000
C           15.59545200000000       -0.08171700000000       -0.08062100000000
C           16.26835800000000       -0.89650000000000       -0.89907300000000
C           15.63965700000000       -1.82692400000000       -1.83360000000000
C           16.60048000000000       -2.46822900000000       -2.47778300000000
C           17.88360100000000       -1.97452000000000       -1.98192800000000
N           17.68941600000000       -0.97895900000000       -0.98195000000000
C           19.07184000000000       -2.40539200000000       -2.41468900000000
C           20.37152400000000       -1.91397400000000       -1.92104200000000
C           21.65120700000000       -2.41216700000000       -2.42116600000000
C           22.60695700000000       -1.77092800000000       -1.77705500000000
N           20.52514300000000       -1.00503600000000       -1.00822300000000
C           21.93643100000000       -0.85518800000000       -0.85753300000000
C           22.54516100000000       -0.00877600000000       -0.00743200000000
C           21.79734700000000        0.89715500000000        0.90230600000000
C           22.36875200000000        1.74414000000000        1.75290500000000
C           21.30666100000000        2.44149900000000        2.45330300000000
C           20.16030300000000        1.97537700000000        1.98521200000000
N           20.37277700000000        0.97875900000000        0.98428800000000
C           18.84500800000000        2.44578300000000        2.45779300000000
C           17.67813500000000        1.98836200000000        1.99846200000000
C           16.37031900000000        2.43766600000000        2.44994500000000
C           15.48929100000000        1.74303000000000        1.75233100000000
C           16.23620000000000        0.85424000000000        0.85946000000000
N           17.51754900000000        0.99102000000000        0.99668000000000
H           14.51234100000000       -0.10424100000000       -0.10317300000000
H           14.57823900000000       -1.97663600000000       -1.98392700000000
H           16.44681500000000       -3.22420200000000       -3.23708600000000
H           19.09153800000000       -3.16987700000000       -3.18253000000000
H           21.80208700000000       -3.16829800000000       -3.18046100000000
H           23.66863000000000       -1.91771300000000       -1.92425400000000
H           23.42838300000000        1.89639100000000        1.90580000000000
H           21.42646900000000        3.20060700000000        3.21571800000000
H           18.82837800000000        3.21067200000000        3.22608300000000
H           16.14658000000000        3.18474500000000        3.20041300000000
H           14.41363400000000        1.82598600000000        1.83582800000000
Co          69.96256300000000       -0.06072300000000       -0.00484600000000
C           73.33622000000000        0.09442900000000       -0.01250400000000
C           72.66331400000000        1.24788100000000       -0.06981800000000
C           73.29201500000001        2.56498100000000       -0.13520400000000
C           72.33119200000000        3.47284100000000       -0.18030900000000
C           71.04807000000000        2.77397100000000       -0.14563700000000
N           71.24225600000000        1.36464500000000       -0.07565400000000
C           69.85983200000000        3.38390300000000       -0.17590800000000
C           68.56014700000000        2.68821400000000       -0.14132800000000
C           67.28046500000001        3.39327300000000       -0.17614200000000
C           66.32471500000000        2.48551100000000       -0.13104600000000
N           68.40652900000001        1.40161400000000       -0.07754600000000
C           66.99524099999999        1.18936900000000       -0.06688100000000
C           66.38651100000000       -0.00877600000000       -0.00743200000000
C           67.13432500000000       -1.29107800000000        0.05609300000000
C           66.56292000000001       -2.48998100000000        0.11552600000000
C           67.62501100000000       -3.47713300000000        0.16450600000000
C           68.77136900000001       -2.81735300000000        0.13181300000000
N           68.55889500000001       -1.40660800000000        0.06184200000000
C           70.08666299999999       -3.48332400000000        0.16494600000000
C           71.25353699999999       -2.83587400000000        0.13287900000000
C           72.56135300000000       -3.47203800000000        0.16460100000000
C           73.44238000000000       -2.48877500000000        0.11584700000000
C           72.69547199999998       -1.23050200000000        0.05326800000000
N           71.41412300000000       -1.42401600000000        0.06276000000000
H           74.41933100000000        0.12626600000000       -0.01403300000000
H           74.35343200000000        2.77688200000000       -0.14569200000000
H           72.48485700000001        4.54298800000000       -0.23343200000000
H           69.84013400000001        4.46609100000000       -0.22962100000000
H           67.12958500000001        4.46353200000000       -0.22915300000000
H           65.26304200000000        2.69314100000000       -0.14118900000000
H           65.50328900000000       -2.70548900000000        0.12620500000000
H           67.50520299999999       -4.55169300000000        0.21782200000000
H           70.10329400000001       -4.56611300000000        0.21871800000000
H           72.78509199999999       -4.52966100000000        0.21717200000000
H           74.51803799999999       -2.60632400000000        0.12180800000000
C           29.31198699999999       -0.00876900000000        0.00136000000000
C           28.10304800000000       -0.02222400000000       -0.00708700000000
C           26.68151900000000       -0.01340500000000       -0.01907000000000
C           25.46984900000000       -0.00596600000000       -0.00820800000000
C           30.72859100000000       -0.01544400000000        0.00189300000000
C           31.94928700000000       -0.00596600000000       -0.00820800000000
C           45.06928000000000       -0.00876900000000        0.00136000000000
C           43.86034100000000       -0.02222400000000       -0.00708700000000
C           42.43881200000000       -0.01340500000000       -0.01907000000000
C           41.22714200000000       -0.00596600000000       -0.00820800000000
C           46.48588400000000       -0.01544400000000        0.00189300000000
C           47.70658000000000       -0.00596600000000       -0.00820800000000
C           60.82657300000000       -0.00876900000000        0.00136000000000
C           59.61763400000000       -0.02222400000000       -0.00708700000000
C           58.19610500000000       -0.01340500000000       -0.01907000000000
C           56.98443500000000       -0.00596600000000       -0.00820800000000
C           62.24317700000000       -0.01544400000000        0.00189300000000
C           63.46387299999999       -0.00596600000000       -0.00820800000000
Co          36.54470700000000       -0.04366100000000       -0.03845800000000
C           33.11125500000000        0.01056100000000        0.00975500000000
C           33.77778900000000        0.88399400000000        0.78698600000000
C           33.15347600000000        1.87598500000000        1.66967500000000
C           34.11184800000000        2.55455200000000        2.27355200000000
C           35.39305700000000        2.03432300000000        1.81068500000000
N           35.20096599999999        0.97874500000000        0.87137100000000
C           36.57544100000000        2.49937500000000        2.22456100000000
C           37.88511700000000        1.99618800000000        1.77682800000000
C           39.15176000000000        2.54111500000000        2.26183600000000
C           40.12394000000000        1.87568300000000        1.66967000000000
N           38.06109400000000        1.03674600000000        0.92297300000000
C           39.47630899999999        0.89802500000000        0.79957200000000
C           40.10535800000000        0.01056100000000        0.00975500000000
C           39.37543400000000       -0.95497500000000       -0.84955000000000
C           39.96217800000000       -1.84577400000000       -1.64242400000000
C           38.91210700000000       -2.59309900000000       -2.30743000000000
C           37.75792599999999       -2.10970800000000       -1.87709700000000
N           37.95223800000000       -1.05357800000000       -0.93716500000000
C           36.45284899999999       -2.61969300000000       -2.33077000000000
C           35.27366500000000       -2.15202200000000       -1.91452000000000
C           33.98655400000000       -2.65396900000000       -2.36104900000000
C           33.07998500000000       -1.93833400000000       -1.72425500000000
C           33.78767400000000       -0.97592700000000       -0.86799600000000
N           35.07518000000000       -1.09801000000000       -0.97670200000000
H           32.09610600000000        2.04670900000000        1.82154000000000
H           33.95658400000000        3.35488400000000        2.98572600000000
H           36.58185100000000        3.30904000000000        2.94505600000000
H           39.28290500000000        3.34353500000000        2.97595600000000
H           41.18174400000000        2.04507400000000        1.82045800000000
H           41.02448200000000       -1.99687500000000       -1.77700000000000
H           39.04469700000000       -3.39567900000000       -3.02170400000000
H           36.45437800000000       -3.42980800000000       -3.05163200000000
H           33.79205300000000       -3.44943800000000       -3.06881800000000
H           32.01062300000000       -2.05930800000000       -1.83182700000000
Co          52.30200000000000       -0.04366100000000       -0.03845800000000
C           48.86854800000000        0.01056100000000        0.00975500000000
C           49.53508200000000        0.88399400000000        0.78698600000000
C           48.91076899999999        1.87598500000000        1.66967500000000
C           49.86913999999999        2.55455200000000        2.27355200000000
C           51.15035000000000        2.03432300000000        1.81068500000000
N           50.95825900000000        0.97874500000000        0.87137100000000
C           52.33273399999999        2.49937500000000        2.22456100000000
C           53.64240999999999        1.99618800000000        1.77682800000000
C           54.90905300000000        2.54111500000000        2.26183600000000
C           55.88123300000000        1.87568300000000        1.66967000000000
N           53.81838700000000        1.03674600000000        0.92297300000000
C           55.23360200000000        0.89802500000000        0.79957200000000
C           55.86265099999999        0.01056100000000        0.00975500000000
C           55.13272700000000       -0.95497500000000       -0.84955000000000
C           55.71947099999999       -1.84577400000000       -1.64242400000000
C           54.66940000000000       -2.59309900000000       -2.30743000000000
C           53.51521900000000       -2.10970800000000       -1.87709700000000
N           53.70953100000000       -1.05357800000000       -0.93716500000000
C           52.21014200000000       -2.61969300000000       -2.33077000000000
C           51.03095800000000       -2.15202200000000       -1.91452000000000
C           49.74384700000000       -2.65396900000000       -2.36104900000000
C           48.83727800000000       -1.93833400000000       -1.72425500000000
C           49.54496700000000       -0.97592700000000       -0.86799600000000
N           50.83247300000000       -1.09801000000000       -0.97670200000000
H           47.85339900000000        2.04670900000000        1.82154000000000
H           49.71387699999999        3.35488400000000        2.98572600000000
H           52.33914400000000        3.30904000000000        2.94505600000000
H           55.04019800000000        3.34353500000000        2.97595600000000
H           56.93903700000000        2.04507400000000        1.82045800000000
H           56.78177500000000       -1.99687500000000       -1.77700000000000
H           54.80199000000000       -3.39567900000000       -3.02170400000000
H           52.21167100000000       -3.42980800000000       -3.05163200000000
H           49.54934600000000       -3.44943800000000       -3.06881800000000
H           47.76791600000000       -2.05930800000000       -1.83182700000000
160
 energy: -293.814041826550 gnorm: 0.473887970588 xtb: 6.5.1 (b24c23e)
Co          18.97873119202063        0.02268078202077        0.02417088801234
C           15.59632454927921       -0.07155174362827       -0.07041066356951
C           16.27523451033182       -0.89632402232665       -0.89889654559386
C           15.63923628528210       -1.82235432556962       -1.82901015568762
C           16.60710321000026       -2.46820776468220       -2.47776223082953
C           17.88349605225989       -1.96892350023923       -1.97630539120239
N           17.68047552762939       -0.98331655898066       -0.98632412499612
C           19.08612393344085       -2.40364688840654       -2.41293551178030
C           20.36402066493546       -1.92261614570451       -1.92971911684996
C           21.64147732647215       -2.41662907273628       -2.42564741122843
C           22.60704824494582       -1.76572567020760       -1.77183371136769
N           20.52620526586466       -1.00053893010109       -1.00369557275590
C           21.94171231915963       -0.85176767511090       -0.85410640958892
C           22.52878838292065        0.00060838278012        0.00192577989914
C           21.79198596693664        0.88579759890100        0.89089427181577
C           22.36980484151009        1.75556496561453        1.76437789190317
C           21.32511132831140        2.44230139197653        2.45410905128250
C           20.14725651167388        1.96732063894807        1.97712337145837
N           20.36871711588621        0.97908866031343        0.98463123001377
C           18.85796757888727        2.44022402574906        2.45220856607666
C           17.67865567513713        1.98589981843465        1.99598945776673
C           16.37572876890210        2.43654520421977        2.44881861616220
C           15.48253126118003        1.73576884828872        1.74503797552773
C           16.22267687467608        0.84761082825587        0.85280245237773
N           17.52347567980636        0.99314614192597        0.99881427068898
H           14.51287339295737       -0.10165131021319       -0.10057147613876
H           14.57846287911953       -1.97262344862013       -1.97989704505511
H           16.45265265808013       -3.22381165036728       -3.23669471929802
H           19.09545612898494       -3.16907395647031       -3.18172437014926
H           21.79727651276806       -3.16973947189006       -3.18190962581970
H           23.66818730078822       -1.91268081179198       -1.91920381247068
H           23.42876516379225        1.89797040396502        1.90738455576858
H           21.43070323815190        3.20034333114770        3.21545251106573
H           18.83421907620422        3.20808052911789        3.22347823161823
H           16.15214454267635        3.18375905358575        3.19942145614988
H           14.41142205686045        1.82247042921622        1.83229629415733
Co          69.95293162494463       -0.05331141794082       -0.00521653577862
C           73.33534700624672        0.08004441073136       -0.01178945884231
C           72.65644316721219        1.24763009164939       -0.06980621496510
C           73.29243423669284        2.55851045763932       -0.13488264616181
C           72.32456651801343        3.47281007139465       -0.18030794835656
C           71.04817328961998        2.76605195461618       -0.14524355806817
N           71.25118046909922        1.37079484301003       -0.07595588844429
C           69.84555065787944        3.38143014070018       -0.17578398540738
C           68.56764318975878        2.70044259116688       -0.14193548298309
C           67.29018914287150        3.39958876358042       -0.17645565417326
C           66.32461907440270        2.47815857568043       -0.13068076996459
N           68.40546871460107        1.39523913329061       -0.07722595925769
C           66.98994340415828        1.18453942307431       -0.06664315640778
C           66.40291227558720       -0.02199384879779       -0.00678493166775
C           67.13965935000049       -1.27500591373686        0.05529545872087
C           66.56185718382781       -2.50614054646508        0.11632759279070
C           67.60657740966722       -3.47827090830854        0.16456241927336
C           68.78441097859373       -2.80595967212304        0.13124908752000
N           68.56296819036751       -1.40706001783273        0.06187146309599
C           70.07370771330575       -3.47545569934153        0.16455453801773
C           71.25301542986315       -2.83239393871024        0.13270627097042
C           72.55594371602515       -3.47045214828143        0.16452179796657
C           73.44913926119381       -2.47849839650337        0.11533707731466
C           72.70899182946225       -1.22112408661637        0.05280282337201
N           71.40820031549308       -1.42702393830423        0.06290943518067
H           74.41879790820005        0.12260080956559       -0.01385096621952
H           74.35320701833145        2.77120150989672       -0.14541020010399
H           72.47901862221190        4.54243439722841       -0.23340525485529
H           69.83621565831635        4.46495280958499       -0.22956489020642
H           67.13439499100544        4.46557005133857       -0.22925549115314
H           65.26348251829577        2.68601835595038       -0.14083737605580
H           65.50290815524718       -2.70772567898948        0.12631474266581
H           67.50097119004647       -4.55131618498395        0.21780261932637
H           70.09745273390305       -4.56244254648071        0.21853479980193
H           72.77952738002571       -4.52826381529444        0.21710170596721
H           74.52024881262695       -2.60134654878350        0.12156036933415
C           29.31193743989861       -0.00925623084731        0.00105730225052
C           28.08657695810128       -0.02199097274428       -0.00744668448490
C           26.68611867636675       -0.01342580774685       -0.01852495901699
C           25.46335190612225       -0.00600182069118       -0.00821714035768
C           30.67736966243248       -0.01550347693493        0.00233119899107
C           31.87996620523445       -0.00976159126328       -0.01238567127004
C           45.07825635380896       -0.00912247920063        0.00099144046999
C           43.85527488361375       -0.02230362052594       -0.00710692133465
C           42.50195857240711       -0.01511024871949       -0.02088485160603
C           41.30518288182574       -0.01379469349907       -0.01502941549702
C           46.43524244315291       -0.01545417388546        0.00244418234459
C           47.63896093896111       -0.00979500644231       -0.01244416874527
C           60.84470142330056       -0.00897156678105        0.00123418719136
C           59.62041396823444       -0.02214876416578       -0.00712404409935
C           58.25937254845223       -0.01522552393621       -0.02090767215521
C           57.06409009179266       -0.01380049934431       -0.01505846085242
C           62.24227482725156       -0.01512819508988        0.00182396831196
C           63.46677359897470       -0.00629802238179       -0.00802341860968
Co          36.54753879711400       -0.04142670366809       -0.03645980771669
C           33.16672391049288        0.00107074207270        0.00149359921470
C           33.80822415294607        0.89367076114064        0.79561539754475
C           33.15440943713556        1.86929028707606        1.66369628493099
C           34.11954763637967        2.55554008509939        2.27443446517565
C           35.39321493803956        2.03062414650470        1.80739683230175
N           35.19961401078219        0.98681831609051        0.87858652375176
C           36.59007581763447        2.49919179485107        2.22438862017098
C           37.87448137832725        2.00993091172883        1.78905486734178
C           39.13951941804250        2.54780229549055        2.26779082410409
C           40.11987903933182        1.86931573157311        1.66400369500831
N           38.05631403210417        1.03614196674687        0.92248606824143
C           39.44321421673067        0.90957806366611        0.80992514120644
C           40.02748180080833        0.00253193850081        0.00260886247106
C           39.34323067397316       -0.95317436440563       -0.84790049448481
C           39.96017586999564       -1.85801025429177       -1.65330473745212
C           38.92958163619072       -2.59488367881566       -2.30902102690786
C           37.74288353365291       -2.10261777327572       -1.87078224219057
N           37.94372197938030       -1.05750682969874       -0.94065163950589
C           36.46559455229915       -2.61467371810762       -2.32630807894143
C           35.27520693724445       -2.15128661703432       -1.91386432227154
C           33.99234265391431       -2.65336487572758       -2.36051102244644
C           33.07392284693582       -1.92978611667795       -1.71665850406417
C           33.79254284143753       -0.97707302573753       -0.86901251455792
N           35.08737084149659       -1.10358404186051       -0.98164233222419
H           32.09630851231776        2.04047062146976        1.81598834156325
H           33.96211264610982        3.35467451311081        2.98554167922805
H           36.58530544356264        3.30893226360114        2.94495848447196
H           39.27829076255753        3.34568717410887        2.97787193928556
H           41.17984915363616        2.03871752261942        1.81480278160143
H           41.02384266016345       -1.99776516786360       -1.77778823922824
H           39.04910543756389       -3.39574024620035       -3.02175973195229
H           36.45980427821311       -3.42746883894651       -3.04955206189849
H           33.79724235852715       -3.44839277255302       -3.06788716073181
H           32.00830116531782       -2.05419539208267       -1.82727765108768
Co          52.30504537735398       -0.04166714396322       -0.03667361996484
C           48.92399862246902        0.00057143426562        0.00106452161693
C           49.56655999124705        0.89405047249415        0.79594554183722
C           48.91181553245407        1.86953771216049        1.66391514993169
C           49.87670981919720        2.55575723313427        2.27462743573690
C           51.15091410706989        2.03126392276685        1.80797034810671
N           50.95552315887981        0.98673442801062        0.87851011940655
C           52.34614325671917        2.49926565352796        2.22445383376783
C           53.63242172397334        2.00942885925264        1.78860999994264
C           54.89678964550175        2.54764965486892        2.26765445127293
C           55.87718630119227        1.86913480938840        1.66384009042958
N           53.81311576743487        1.03638662077245        0.92270688140840
C           55.20108888344799        0.90912103775458        0.80951862363589
C           55.78465053950747        0.00278864552144        0.00281791301559
C           55.10033071445753       -0.95280311667040       -0.84756610253232
C           55.71732626707288       -1.85801842097301       -1.65331168297136
C           54.68695623137562       -2.59491225435464       -2.30904646974853
C           53.50032298947355       -2.10269955837348       -1.87085495544944
N           53.70129638646032       -1.05751322022425       -0.94065531332239
C           52.22279218614575       -2.61468454541123       -2.32631779992631
C           51.03260228567131       -2.15132956029812       -1.91389953415692
C           49.74963172330830       -2.65336630644261       -2.36051219326588
C           48.83118240428930       -1.92985568617937       -1.71672175343785
C           49.54974255271643       -0.97711469692422       -0.86906049013267
N           50.84457295786517       -1.10359276883677       -0.98164820566967
H           47.85358821628974        2.04048094900502        1.81599783501807
H           49.71930868452226        3.35477373357326        2.98563019165090
H           52.34243259225951        3.30897200237778        2.94499293648659
H           55.03550579803242        3.34561982981482        2.97781299241982
H           56.93710071174694        2.03871019512797        1.81479792215821
H           56.78105829795227       -1.99774457978242       -1.77776984225286
H           54.80640663118780       -3.39574049720921       -3.02175996153410
H           52.21706814906496       -3.42747085824382       -3.04955500134808
H           49.55452592619304       -3.44839820291546       -3.06789194614456
H           47.76555366224493       -2.05421997133819       -1.82729943707570
160
 energy: -293.946505900055 gnorm: 0.223826121433 xtb: 6.5.1 (b24c23e)
Co          18.99691812720086        0.01308938700976        0.01451821957049
C           15.59941986608644       -0.05869650679643       -0.05749820508071
C           16.28387209923568       -0.89374340858966       -0.89630286309344
C           15.64351349038051       -1.81408284265497       -1.82070241488888
C           16.61918044502532       -2.46451619627678       -2.47405537498794
C           17.88687067736146       -1.96125689213048       -1.96860050349246
N           17.66853245190932       -0.98973083843353       -0.99276763656213
C           19.10501816668281       -2.39883812042506       -2.40810025427213
C           20.35564930166214       -1.93120070750118       -1.93832624147888
C           21.62864567927635       -2.41871963667116       -2.42774593795303
C           22.59973400742839       -1.75792854081983       -1.76401592091948
N           20.52570541637388       -0.99486929781586       -0.99797316940328
C           21.94151833473393       -0.84750564308330       -0.84986266000534
C           22.49353669811399        0.01909914018591        0.02032044427629
C           21.78345929887049        0.87805455912167        0.88307965515316
C           22.36734873896395        1.76994441620339        1.77880872849446
C           21.34904405927823        2.43888977265239        2.45068802677804
C           20.13983617946018        1.95584785398356        1.96561511818385
N           20.36507423036531        0.98017810774864        0.98574802440621
C           18.88113732950052        2.42691367459751        2.43884040857929
C           17.68284266907168        1.97666994474418        1.98672297074562
C           16.38507724617894        2.42786599613711        2.44010085787835
C           15.47789167668417        1.72421132277957        1.73342902123734
C           16.20898728424374        0.83873596104507        0.84389196316764
N           17.53145136053113        0.99234299850762        0.99801347845861
H           14.51552184407316       -0.09534124989577       -0.09423255437918
H           14.58185680387911       -1.96152312937783       -1.96874896794881
H           16.46905165349127       -3.22067138730699       -3.23354311180685
H           19.10533038806624       -3.16523109973352       -3.17786739690135
H           21.78586340431215       -3.17140977693309       -3.18358893341250
H           23.66306515262940       -1.89923897704912       -1.90571943358263
H           23.42884893631781        1.90100489243120        1.91042406784998
H           21.44068394703221        3.19768804622212        3.21278549223896
H           18.85303900067425        3.19694193606181        3.21228345179433
H           16.16771570846380        3.17699679539042        3.19262593759992
H           14.40766222485082        1.81320163677264        1.82298406605328
Co          69.93479859529204       -0.03977991674758       -0.00591003912693
C           73.33227555122482        0.06185480797687       -0.01088488474481
C           72.64782729086227        1.24396075206818       -0.06962252695231
C           73.28814707108432        2.54678449490281       -0.13429940685857
C           72.31246649014734        3.46756621749528       -0.18004736524039
C           71.04477912087965        2.75519324074691       -0.14470127934988
N           71.26309682964632        1.37978612932348       -0.07639659528163
C           69.82666579783576        3.37459656951848       -0.17544045057465
C           68.57596584801952        2.71252201150755       -0.14253167266095
C           67.30299486132344        3.40254396519502       -0.17660219947574
C           66.33189234686165        2.46716033738956       -0.13013334965609
N           68.40582439756642        1.38716397000729       -0.07681178827610
C           66.99002964300354        1.17853974017394       -0.06634570309452
C           66.43764305004986       -0.04798499694371       -0.00550752347309
C           67.14810722420971       -1.26398421739228        0.05474775446244
C           66.56428921473727       -2.52641544936610        0.11733286828612
C           67.58270753920621       -3.47342929282493        0.16432380851287
C           68.79183852714107       -2.78970367232578        0.13044949665438
N           68.56651445710537       -1.40853053960223        0.06195947172503
C           70.05055699267378       -3.45661574530126        0.16361883361135
C           71.24883429482909       -2.81934017512613        0.13206124481930
C           72.54659562601057       -3.45816838133900        0.16391302424459
C           73.45378769724863       -2.46214349181536        0.11452570016545
C           72.72270889237630       -1.20857548917661        0.05218307144551
N           71.40027683418307       -1.42587635631178        0.06286124181210