160
 energy: -294.466360026165 gnorm: 0.000862310445 xtb: 6.5.1 (b24c23e)
Co          20.40453780733312       -0.02004092982674       -0.02003992397105
C           16.99612867790514       -0.01191558593082       -0.07926469900481
C           17.66296325951281       -0.87397578791099       -0.92140210454853
C           16.99687730313871       -1.77219942533469       -1.81777143884094
C           17.96411516365244       -2.46242734935008       -2.46413889193251
C           19.21677602291100       -1.97938917682228       -1.96343410088157
N           19.02489909143237       -1.00629870803006       -1.01727745612921
C           20.43726492799037       -2.44450884126282       -2.40260398044433
C           21.64333318230680       -1.97082276301948       -1.94017251720325
C           22.90660808047065       -2.44607451239357       -2.41640339812784
C           23.85711357005578       -1.75116383807932       -1.74901502621473
N           21.81530092070614       -0.99398891402206       -0.98626698319823
C           23.16907146584652       -0.85917079516130       -0.86685318849784
C           23.83322263606233        0.01632319247024       -0.00519173567142
C           23.14369142095131        0.86918103425276        0.85908415802158
C           23.80503185994417        1.76189997125086        1.76071244323874
C           22.83434476603889        2.41236556399290        2.44379411467475
C           21.58553073366704        1.91546596302467        1.95163234769820
N           21.78638037408605        0.96625499317868        0.97577444827547
C           20.36552934359732        2.35525103467393        2.41122787523238
C           19.15885017326524        1.89654703176707        1.92914155541087
C           17.89162240876282        2.37421936982559        2.39739248279564
C           16.94460471171344        1.71566855102053        1.69083991597544
C           17.63745064647479        0.83484951951524        0.79750519518584
N           18.99570048427656        0.95176216146193        0.94947366166711
H           15.91272416400561       -0.00594170797752       -0.10127102496702
H           15.92578627024216       -1.84793141193012       -1.91897330875556
H           17.86407406919349       -3.22999994224208       -3.21517146723508
H           20.44818319319159       -3.22033768370207       -3.15926103389150
H           23.02704055368353       -3.21138834236792       -3.16650443706702
H           24.92985983517771       -1.82193522109519       -1.83033397060655
H           24.87531544040836        1.86068040827799        1.84558486946312
H           22.93199259643741        3.16329853172280        3.21155623810873
H           20.35320279586736        3.10957512530285        3.18931356318106
H           17.76874646092657        3.11977734026745        3.16697936145618
H           15.87105944876472        1.79910581919168        1.75214355328604
Co          68.50711707193406       -0.00097513335846       -0.01358217355295
C           71.91489179737901        0.04261357794460        0.05812566675249
C           71.24683943112190        1.24364575566987       -0.03141847072837
C           71.91146557024278        2.51132600021458       -0.10354921473895
C           70.94338139948999        3.45207167524262       -0.18971046204894
C           69.69126865596100        2.75580300523470       -0.16331842530880
N           69.88479282589540        1.40166995365691       -0.07046232354134
C           68.47033558071303        3.39254708853694       -0.20552559667478
C           67.26515225898279        2.73054082953841       -0.15329417198595
C           66.00116418547067        3.40170025302880       -0.16897795656669
C           65.05191852221685        2.43943489711558       -0.10034874698245
N           67.09513917924416        1.36736339292560       -0.07655013092247
C           65.74105909549236        1.18656130936751       -0.04889516095461
C           65.07890113522147       -0.04132204894448       -0.00642036851721
C           65.76936365487697       -1.25379472597210        0.01785466713926
C           65.10994110493854       -2.52323634719055        0.04615640161509
C           66.08197509509058       -3.46472589132275        0.07001829748031
C           67.32989197922723       -2.76394003275334        0.05961876966175
N           67.12750934463179       -1.40348612835263        0.02479216275166
C           68.55057602636936       -3.39814228104778        0.09493032574947
C           69.75563562863861       -2.73055624821595        0.10509439638839
C           71.02341601819957       -3.39575886016163        0.16485358128349
C           71.96874750070459       -2.42832372384935        0.16502464774872
C           71.27474872159770       -1.17610745431112        0.09964419769852
N           69.91709273164578       -1.36959565056327        0.06635823525347
H           72.99805242585307        0.05662033540821        0.08639046299797
H           72.98239721526595        2.63847648833503       -0.09041731348540
H           71.04239162321093        4.52366721364189       -0.26128813279647
H           68.45787351212493        4.47415446046889       -0.27247027554427
H           65.87945765692032        4.47176391871409       -0.22404917835531
H           63.97913259086677        2.54630703371022       -0.08880004599466
H           64.03976865457349       -2.65448249177454        0.04723834029913
H           65.98574491913087       -4.53849125188370        0.09606444901503
H           68.56409875057641       -4.48139816194136        0.12483942383603
H           71.14768413278250       -4.46644194073739        0.20274052011362
H           73.04206492427296       -2.52787892106762        0.20135019893786
C           29.03251347394102        0.02638284251690        0.00246781031702
C           27.80343490429484        0.02956137271733        0.00259136941795
C           26.46038770419318        0.03144173680212       -0.00037969212769
C           25.23600101987993        0.03191372011284       -0.00423097371533
C           30.37524554000991        0.02066767748785        0.00017500960355
C           31.59994645573810        0.01362118674291       -0.00524642715661
C           45.06956210894860       -0.03127900850009       -0.02507824534589
C           43.83994319223859       -0.03115984805805       -0.02451463695132
C           42.49809963479088       -0.02873200007596       -0.02267345480624
C           41.27304339371560       -0.03000133856126       -0.02211826042406
C           46.41139740637978       -0.03316275505352       -0.02373473337449
C           47.63638312965887       -0.03197085925016       -0.02217689843439
C           61.10684896244164       -0.06587888810655       -0.00515983046261
C           59.87838071855055       -0.06402250927654       -0.00988968038697
C           58.53447676897162       -0.06141645099832       -0.01255796916952
C           57.31032994917765       -0.05399555759541       -0.01263551659101
C           62.45100440106340       -0.06245587552992       -0.00421872866369
C           63.67463100466958       -0.05598157839839       -0.00140075209919
Co          36.43699547981367       -0.01934287325592       -0.00230452969812
C           33.00166964323278        0.00475707864286       -0.00565961562671
C           33.68537331348116        0.90963141349119        0.81051178890287
C           33.01714550939365        1.85206303275881        1.65379375405533
C           33.98357611014303        2.55396271691555        2.29152033941677
C           35.23444050631049        2.03420887930877        1.83157428569989
N           35.04147087742997        1.02248133535680        0.92078048703980
C           36.45263668230798        2.50974656329822        2.26281781777816
C           37.66453680735984        2.02455504027565        1.82646410334544
C           38.92198777955347        2.53397325777745        2.28046343404887
C           39.87950112004122        1.82400430428415        1.63845317149001
N           37.84524985949924        1.01075560170808        0.91476329592093
C           39.19938101024675        0.88659708593139        0.79882524421852
C           39.87214045954171       -0.02631790482595       -0.01813595637784
C           39.18841693738765       -0.93957629069045       -0.82544704558129
C           39.85704827065808       -1.88757470282546       -1.66237952459971
C           38.89081896608586       -2.60042473393420       -2.28796566605970
C           37.63960797979431       -2.08068800093431       -1.82836792888561
N           37.83278989084502       -1.05910785680913       -0.92799548108967
C           36.42166911358312       -2.55975243320526       -2.25465673718570
C           35.20942444461503       -2.06638393923741       -1.82661288958783
C           33.95225841373968       -2.57215465995995       -2.28503619390496
C           32.99451412945005       -1.85100516091390       -1.65572589236883
C           33.67422129019481       -0.91178208313748       -0.81806849012813
N           35.02884287344281       -1.04479800101404       -0.92431527732898
H           31.94627024993599        1.94825891571970        1.73308227133257
H           33.88080030710603        3.35259218689011        3.00874155626792
H           36.45735449876593        3.31567707927874        2.98766075891146
H           39.03478558928019        3.33170839628515        2.99717276496119
H           40.95149425988549        1.91116418479889        1.71294817456453
H           40.92798757826193       -1.97963346565860       -1.74580932245499
H           38.99384519194231       -3.40570433608253       -2.99768039944980
H           36.41629828775466       -3.37243602661441       -2.97192560954606
H           33.83970928776053       -3.37470284673341       -2.99639732370936
H           31.92254521171647       -1.93213346721565       -1.73713625895471
Co          52.47233988285979       -0.03337730229362       -0.02791223052515
C           49.03740005674680       -0.03259130466755       -0.02309953202050
C           49.71691047290329        0.87859419001963        0.78993077197766
C           49.04395242604780        1.82035089357563        1.63056259652637
C           50.00678097735425        2.53813471873109        2.25557049451114
C           51.26050076277146        2.02812074576638        1.79169241952634
N           51.07198167270645        1.00515882371971        0.89165387660141
C           52.47587301574463        2.52198648832392        2.20748136319505
C           53.69031081026234        2.03976814560705        1.77237327301425
C           54.94519047427351        2.56336881634068        2.21688071501374
C           55.90619385933890        1.84309301349383        1.59169731783331
N           53.87525842655040        1.00991890798283        0.88082540899301
C           55.23093685262845        0.88623975718051        0.77044504356258
C           55.90724168865971       -0.04719210079865       -0.01812574451526
C           55.22833631286209       -0.97220646220240       -0.81425349572363
C           55.90062009211670       -1.92864654535637       -1.63841490220940
C           54.93752123643165       -2.63405277776583       -2.27717407127676
C           53.68435829841440       -2.10389174453413       -1.83561368539405
N           53.87235855043171       -1.08339611122047       -0.93404415453998
C           52.46852047726190       -2.57623594830954       -2.27756846116955
C           51.25463526794614       -2.08343407239394       -1.85627699974404
C           49.99940006509600       -2.59066711386833       -2.31908915963083
C           49.03864059218148       -1.87870902196268       -1.68433667626447
C           49.71436508866012       -0.94189974949351       -0.84037807505066
N           51.06909176297189       -1.06738159791830       -0.94780398247970
H           47.97261480199175        1.90574480524015        1.71595061358626
H           49.90002841426816        3.34172406168565        2.96665268393687
H           52.47770640015325        3.33823488739484        2.92067949591417
H           55.05403701478024        3.37557016643734        2.91778251126144
H           56.97779178569490        1.93442551387551        1.66694741794294
H           56.97183516522690       -2.02890337917338       -1.70749033000407
H           55.04390366365467       -3.44079838348875       -2.98472776627282
H           52.46787720223755       -3.38654867723814       -2.99750393270419
H           49.89031264077949       -3.38918269387820       -3.03551361997606
H           47.96702930805969       -1.96450067547457       -1.76577337148752
