      -----------------------------------------------------------      
     |                   =====================                   |     
     |                           x T B                           |     
     |                   =====================                   |     
     |                         S. Grimme                         |     
     |          Mulliken Center for Theoretical Chemistry        |     
     |                    University of Bonn                     |     
      -----------------------------------------------------------      

   * xtb version 6.5.1 (b24c23e) compiled by 'conda@728c89f4b128' on 2022-07-12

   xtb is free software: you can redistribute it and/or modify it under
   the terms of the GNU Lesser General Public License as published by
   the Free Software Foundation, either version 3 of the License, or
   (at your option) any later version.
   
   xtb is distributed in the hope that it will be useful,
   but WITHOUT ANY WARRANTY; without even the implied warranty of
   MERCHANTABILITY or FITNESS FOR A PARTICULAR PURPOSE.  See the
   GNU Lesser General Public License for more details.
   
   Cite this work as:
   * C. Bannwarth, E. Caldeweyher, S. Ehlert, A. Hansen, P. Pracht,
     J. Seibert, S. Spicher, S. Grimme, WIREs Comput. Mol. Sci., 2020, 11,
     e01493. DOI: 10.1002/wcms.1493
   
   for GFN2-xTB:
   * C. Bannwarth, S. Ehlert and S. Grimme., J. Chem. Theory Comput., 2019,
     15, 1652-1671. DOI: 10.1021/acs.jctc.8b01176
   for GFN1-xTB:
   * S. Grimme, C. Bannwarth, P. Shushkov, J. Chem. Theory Comput., 2017,
     13, 1989-2009. DOI: 10.1021/acs.jctc.7b00118
   for GFN0-xTB:
   * P. Pracht, E. Caldeweyher, S. Ehlert, S. Grimme, ChemRxiv, 2019, preprint.
     DOI: 10.26434/chemrxiv.8326202.v1
   for GFN-FF:
   * S. Spicher and S. Grimme, Angew. Chem. Int. Ed., 2020, 59, 15665-15673.
     DOI: 10.1002/anie.202004239
   
   for ALPB and GBSA implicit solvation:
   * S. Ehlert, M. Stahn, S. Spicher, S. Grimme, J. Chem. Theory Comput.,
     2021, 17, 4250-4261. DOI: 10.1021/acs.jctc.1c00471
   
   for DFT-D4:
   * E. Caldeweyher, C. Bannwarth and S. Grimme, J. Chem. Phys., 2017,
     147, 034112. DOI: 10.1063/1.4993215
   * E. Caldeweyher, S. Ehlert, A. Hansen, H. Neugebauer, S. Spicher,
     C. Bannwarth and S. Grimme, J. Chem. Phys., 2019, 150, 154122.
     DOI: 10.1063/1.5090222
   * E. Caldeweyher, J.-M. Mewes, S. Ehlert and S. Grimme, Phys. Chem. Chem. Phys.
     2020, 22, 8499-8512. DOI: 10.1039/D0CP00502A
   
   for sTDA-xTB:
   * S. Grimme and C. Bannwarth, J. Chem. Phys., 2016, 145, 054103.
     DOI: 10.1063/1.4959605
   
   in the mass-spec context:
   * V. Asgeirsson, C. Bauer and S. Grimme, Chem. Sci., 2017, 8, 4879.
     DOI: 10.1039/c7sc00601b
   * J. Koopman and S. Grimme, ACS Omega 2019, 4, 12, 15120-15133.
     DOI: 10.1021/acsomega.9b02011
   
   for metadynamics refer to:
   * S. Grimme, J. Chem. Theory Comput., 2019, 155, 2847-2862
     DOI: 10.1021/acs.jctc.9b00143
   
   for SPH calculations refer to:
   * S. Spicher and S. Grimme, J. Chem. Theory Comput., 2021, 17, 1701-1714
     DOI: 10.1021/acs.jctc.0c01306
   
   with help from (in alphabetical order)
   P. Atkinson, C. Bannwarth, F. Bohle, G. Brandenburg, E. Caldeweyher
   M. Checinski, S. Dohm, S. Ehlert, S. Ehrlich, I. Gerasimov, C. Hölzer
   A. Katbashev, J. Koopman, C. Lavigne, S. Lehtola, F. März, M. Müller,
   F. Musil, H. Neugebauer, J. Pisarek, C. Plett, P. Pracht, F. Pultar,
   J. Seibert, P. Shushkov, S. Spicher, M. Stahn, M. Steiner, T. Strunk,
   J. Stückrath, T. Rose, and J. Unsleber
   
 * started run on 2022/07/30 at 05:03:47.653     

           -------------------------------------------------
          |                Calculation Setup                |
           -------------------------------------------------

          program call               : xtb Ni_Ph2Me_C6_3.xyz --gfn 1 --opt -T 48
          hostname                   : cx3-15-15.cx3.hpc.ic.ac.uk
          coordinate file            : Ni_Ph2Me_C6_3.xyz
          omp threads                :                     1

   ID    Z sym.   atoms
    1   28 Ni     1, 69, 149
    2    6 C      2-6, 8-11, 13-31, 34-41, 70-74, 76-79, 81-99, 102-109,
                  137-148, 150-154, 156-159, 161-179, 182-189
    3    7 N      7, 12, 32, 33, 75, 80, 100, 101, 155, 160, 180, 181
    4    1 H      42-68, 110-136, 190-215

molecular fragmentation (1/2 indicates fragments):
111111111111111111111111111111111111111111111111111111111111111111112222
222222222222222222222222222222222222222222222222222222222222222222222222
22222222222222222222222222222222222222222222222222222222222222222222222
# atoms in fragment 1/2:    68   147
 fragment masses (1/2) :      574.32     1291.76
CMA distance (Bohr)    :  45.480
constraining FC (au)   :  0.0500
########################################################################
[WARNING] Please study the warnings concerning your input carefully
-1- prog_main_parseArguments: Unknown option '-T' provided
########################################################################

           -------------------------------------------------
          |                 G F N 1 - x T B                 |
           -------------------------------------------------

        Reference                      10.1021/acs.jctc.7b00118
      * Hamiltonian:
        H0-scaling (s, p, d)           1.850000    2.250000    2.000000
        zeta-weighting                 0.000000
      * Dispersion:
        s8                             2.400000
        a1                             0.630000
        a2                             5.000000
        s9                             0.000000
      * Repulsion:
        kExp                           1.500000
        rExp                           1.000000
      * Coulomb:
        alpha                          2.000000
        third order                    atomic
        anisotropic                    false
      * Halogen bond correction:
        rad-scale                      1.300000
        damping                        0.440000


          ...................................................
          :                      SETUP                      :
          :.................................................:
          :  # basis functions                 718          :
          :  # atomic orbitals                 715          :
          :  # shells                          433          :
          :  # electrons                       650          :
          :  # halogen bonds                     0          :
          :  max. iterations                   250          :
          :  Hamiltonian                  GFN1-xTB          :
          :  restarted?                      false          :
          :  GBSA solvation                  false          :
          :  PC potential                    false          :
          :  electronic temp.          300.0000000     K    :
          :  accuracy                    1.0000000          :
          :  -> integral cutoff          0.2500000E+02      :
          :  -> integral neglect         0.1000000E-07      :
          :  -> SCF convergence          0.1000000E-05 Eh   :
          :  -> wf. convergence          0.2000000E-04 e    :
          :  Broyden damping             0.4000000          :
          ...................................................

 iter      E             dE          RMSdq      gap      omega  full diag
   1   -351.6068668 -0.351607E+03  0.104E+01    0.22       0.0  T
   2   -314.8753815  0.367315E+02  0.869E+00    0.06       1.0  T
   3   -188.3838627  0.126492E+03  0.972E+00    0.14       1.0  T
   4    950.6570876  0.113904E+04  0.159E+01    0.06       1.0  T
   5   1741.4379369  0.790781E+03  0.179E+01    0.10       1.0  T
   6    164.7033560 -0.157673E+04  0.118E+01    0.16       1.0  T
   7   -148.0995792 -0.312803E+03  0.846E+00    0.01       1.0  T
   8   -314.9983771 -0.166899E+03  0.565E+00    0.03       1.0  T
   9   -346.7814137 -0.317830E+02  0.345E+00    0.19       1.0  T
  10   -349.2444958 -0.246308E+01  0.304E+00    0.36       1.0  T
  11   -351.0277324 -0.178324E+01  0.251E+00    0.25       1.0  T
  12   -347.5419495  0.348578E+01  0.279E+00    0.07       1.0  T
  13   -349.5147914 -0.197284E+01  0.257E+00    0.10       1.0  T
  14   -349.6722801 -0.157489E+00  0.211E+00    0.09       1.0  T
  15   -349.6246184  0.476617E-01  0.201E+00    0.09       1.0  T
  16   -350.8791243 -0.125451E+01  0.176E+00    0.03       1.0  T
  17   -351.2423120 -0.363188E+00  0.168E+00    0.20       1.0  T
  18   -351.2897020 -0.473900E-01  0.163E+00    0.21       1.0  T
  19   -351.2451833  0.445187E-01  0.161E+00    0.18       1.0  T
  20   -352.3223734 -0.107719E+01  0.784E-01    0.54       1.0  T
  21   -351.8818715  0.440502E+00  0.126E+00    0.02       1.0  T
  22   -352.3709794 -0.489108E+00  0.672E-01    0.44       1.0  T
  23   -352.4158692 -0.448898E-01  0.430E-01    0.61       1.0  T
  24   -352.4317548 -0.158857E-01  0.348E-01    0.67       1.0  T
  25   -352.4439375 -0.121827E-01  0.291E-01    0.67       1.0  T
  26   -352.4507288 -0.679129E-02  0.242E-01    0.68       1.0  T
  27   -352.4587612 -0.803238E-02  0.193E-01    0.71       1.0  T
  28   -352.4641892 -0.542804E-02  0.147E-01    0.74       1.0  T
  29   -352.4677793 -0.359012E-02  0.110E-01    0.77       1.0  T
  30   -352.4704478 -0.266843E-02  0.686E-02    0.76       1.0  T
  31   -352.4711802 -0.732436E-03  0.533E-02    0.75       1.0  T
  32   -352.4715200 -0.339769E-03  0.430E-02    0.73       1.0  T
  33   -352.4717412 -0.221226E-03  0.338E-02    0.73       1.0  T
  34   -352.4719588 -0.217567E-03  0.254E-02    0.73       1.0  T
  35   -352.4720352 -0.764158E-04  0.229E-02    0.74       1.0  T
  36   -352.4720860 -0.508134E-04  0.214E-02    0.75       1.0  T
  37   -352.4721273 -0.413003E-04  0.216E-02    0.77       1.0  T
  38   -352.4722144 -0.871459E-04  0.221E-02    0.82       1.0  T
  39   -352.4723339 -0.119492E-03  0.179E-02    0.86       1.0  T
  40   -352.4724473 -0.113404E-03  0.127E-02    0.86       1.0  T
  41   -352.4724942 -0.468618E-04  0.104E-02    0.86       1.0  T
  42   -352.4725185 -0.243538E-04  0.816E-03    0.86       1.0  T
  43   -352.4725354 -0.169015E-04  0.653E-03    0.86       1.0  T
  44   -352.4725466 -0.111616E-04  0.512E-03    0.86       1.3  T
  45   -352.4725516 -0.500194E-05  0.427E-03    0.86       1.6  T
  46   -352.4725548 -0.317675E-05  0.388E-03    0.86       1.8  T
  47   -352.4725579 -0.310941E-05  0.343E-03    0.86       2.0  T
  48   -352.4725608 -0.289536E-05  0.288E-03    0.86       2.4  T
  49   -352.4725655 -0.472479E-05  0.158E-03    0.86       4.3  T
  50   -352.4725673 -0.180764E-05  0.751E-04    0.85       9.1  T
  51   -352.4725680 -0.642439E-06  0.429E-04    0.85      15.9  T
  52   -352.4725681 -0.110258E-06  0.355E-04    0.85      19.2  T
  53   -352.4725681 -0.730175E-07  0.166E-04    0.85      41.1  T
  54   -352.4725682 -0.806824E-08  0.114E-04    0.85      59.9  T

   *** convergence criteria satisfied after 54 iterations ***

         #    Occupation            Energy/Eh            Energy/eV
      -------------------------------------------------------------
         1        2.0000           -0.7804493             -21.2371
       ...           ...                  ...                  ...
       319        2.0000           -0.3921435             -10.6708
       320        2.0000           -0.3917409             -10.6598
       321        2.0000           -0.3911458             -10.6436
       322        2.0000           -0.3860734             -10.5056
       323        2.0000           -0.3848044             -10.4711
       324        2.0000           -0.3824646             -10.4074
       325        2.0000           -0.3706477             -10.0858 (HOMO)
       326        0.0000           -0.3392306              -9.2309 (LUMO)
       327                         -0.3367874              -9.1645
       328                         -0.3347524              -9.1091
       329                         -0.3343776              -9.0989
       330                         -0.3319031              -9.0315
       ...                                ...                  ...
       715                          3.1748908              86.3932
      -------------------------------------------------------------
                  HL-Gap            0.0314171 Eh            0.8549 eV
             Fermi-level           -0.3549809 Eh           -9.6595 eV

 SCC (total)                   0 d,  0 h,  0 min,  9.474 sec
 SCC setup                      ...        0 min,  0.014 sec (  0.143%)
 Dispersion                     ...        0 min,  0.009 sec (  0.092%)
 classical contributions        ...        0 min,  0.003 sec (  0.032%)
 integral evaluation            ...        0 min,  0.242 sec (  2.555%)
 iterations                     ...        0 min,  8.608 sec ( 90.856%)
 molecular gradient             ...        0 min,  0.566 sec (  5.977%)
 printout                       ...        0 min,  0.033 sec (  0.346%)

         :::::::::::::::::::::::::::::::::::::::::::::::::::::
         ::                     SUMMARY                     ::
         :::::::::::::::::::::::::::::::::::::::::::::::::::::
         :: total energy            -346.451944022319 Eh    ::
         :: gradient norm              1.749399460819 Eh/a0 ::
         :: HOMO-LUMO gap              0.854902535289 eV    ::
         ::.................................................::
         :: SCC energy              -352.472568154369 Eh    ::
         :: -> electrostatic           0.156793477397 Eh    ::
         :: repulsion energy           6.202085323372 Eh    ::
         :: dispersion energy         -0.181461191323 Eh    ::
         :: halogen bond corr.         0.000000000000 Eh    ::
         :: add. restraining           0.000000000000 Eh    ::
         :: total charge              -0.000000000007 e     ::
         :::::::::::::::::::::::::::::::::::::::::::::::::::::

      ----------------------------------------------------------- 
     |                   =====================                   |
     |                        A N C O P T                        |
     |                   =====================                   |
     |               Approximate Normal Coordinate               |
     |                Rational Function Optimizer                |
      ----------------------------------------------------------- 

          ...................................................
          :                      SETUP                      :
          :.................................................:
          :   optimization level            normal          :
          :   max. optcycles                   645          :
          :   ANC micro-cycles                  20          :
          :   degrees of freedom               639          :
          :.................................................:
          :   RF solver                   davidson          :
          :   write xtbopt.log                true          :
          :   linear?                        false          :
          :   energy convergence         0.5000000E-05 Eh   :
          :   grad. convergence          0.1000000E-02 Eh/α :
          :   maximium RF displ.         1.0000000          :
          :   Hlow (freq-cutoff)         0.1000000E-01      :
          :   Hmax (freq-cutoff)         5.0000000          :
          :   S6 in model hess.         20.0000000          :
          ...................................................

generating ANC from model Hessian ...
Using Lindh-Hessian (1995)
 Shifting diagonal of input Hessian by    1.0031508210470129E-002
 Lowest  eigenvalues of input Hessian
    0.010000    0.010016    0.010021    0.010022    0.010024    0.010026
    0.010028    0.000000    0.000000    0.000000    0.000000    0.000000
    0.000000    0.010032    0.010042    0.010045    0.010114    0.010132
 Highest eigenvalues
    2.409198    2.499608    2.697908    2.708043    3.700350    3.868686


........................................................................
.............................. CYCLE    1 ..............................
........................................................................
   1   -352.4725682 -0.352473E+03  0.984E-05    0.85       0.0  T
   2   -352.4725682 -0.101932E-08  0.614E-05    0.85     111.0  T
   3   -352.4725682 -0.179472E-08  0.234E-05    0.85     291.5  T
     SCC iter.                  ...        0 min,  0.487 sec
     gradient                   ...        0 min,  0.572 sec
 * total energy  :  -346.4519440 Eh     change       -0.3627292E-08 Eh
   gradient norm :     1.7494004 Eh/α   predicted     0.0000000E+00 (-100.00%)
   displ. norm   :     0.5285060 α      lambda       -0.8381994E+00
   maximum displ.:     0.2524974 α      in ANC's #639, #638, #544, ...

........................................................................
.............................. CYCLE    2 ..............................
........................................................................
   1   -352.5242943 -0.352524E+03  0.181E-01    1.11       0.0  T
   2   -352.5294163 -0.512203E-02  0.110E-01    1.04       1.0  T
   3   -352.5331493 -0.373293E-02  0.352E-02    1.10       1.0  T
   4   -352.5333444 -0.195136E-03  0.229E-02    1.09       1.0  T
   5   -352.5334197 -0.752656E-04  0.127E-02    1.10       1.0  T
   6   -352.5334730 -0.533218E-04  0.364E-03    1.10       1.9  T
   7   -352.5334784 -0.542900E-05  0.111E-03    1.10       6.1  T
   8   -352.5334787 -0.327779E-06  0.316E-04    1.10      21.6  T
   9   -352.5334788 -0.232383E-07  0.112E-04    1.10      60.7  T
  10   -352.5334788 -0.478809E-08  0.601E-05    1.10     113.5  T
     SCC iter.                  ...        0 min,  1.601 sec
     gradient                   ...        0 min,  0.567 sec
 * total energy  :  -346.9046985 Eh     change       -0.4527545E+00 Eh
   gradient norm :     0.4256821 Eh/α   predicted    -0.5361765E+00 (  18.43%)
   displ. norm   :     0.5991897 α      lambda       -0.1729193E+00
   maximum displ.:     0.2282287 α      in ANC's #216, #221, #121, ...

........................................................................
.............................. CYCLE    3 ..............................
........................................................................
   1   -352.5641738 -0.352564E+03  0.110E-01    1.11       0.0  T
   2   -352.5661891 -0.201533E-02  0.746E-02    1.12       1.0  T
   3   -352.5680868 -0.189767E-02  0.265E-02    1.12       1.0  T
   4   -352.5681971 -0.110327E-03  0.193E-02    1.12       1.0  T
   5   -352.5682760 -0.789120E-04  0.829E-03    1.12       1.0  T
   6   -352.5683121 -0.361120E-04  0.265E-03    1.12       2.6  T
   7   -352.5683152 -0.306574E-05  0.622E-04    1.12      11.0  T
   8   -352.5683153 -0.101667E-06  0.325E-04    1.12      21.0  T
   9   -352.5683154 -0.510997E-07  0.161E-04    1.12      42.3  T
  10   -352.5683154 -0.191832E-07  0.415E-05    1.12     164.4  T
     SCC iter.                  ...        0 min,  1.604 sec
     gradient                   ...        0 min,  0.572 sec
 * total energy  :  -347.0424599 Eh     change       -0.1377614E+00 Eh
   gradient norm :     0.2520217 Eh/α   predicted    -0.1175011E+00 ( -14.71%)
   displ. norm   :     0.7328356 α      lambda       -0.1274456E+00
   maximum displ.:     0.2598402 α      in ANC's #216, #120, #121, ...

........................................................................
.............................. CYCLE    4 ..............................
........................................................................
   1   -352.6116651 -0.352612E+03  0.122E-01    1.16       0.0  T
   2   -352.6133951 -0.172994E-02  0.834E-02    1.17       1.0  T
   3   -352.6157025 -0.230739E-02  0.312E-02    1.17       1.0  T
   4   -352.6159268 -0.224312E-03  0.253E-02    1.16       1.0  T
   5   -352.6161359 -0.209117E-03  0.836E-03    1.17       1.0  T
   6   -352.6161617 -0.257705E-04  0.284E-03    1.16       2.4  T
   7   -352.6161657 -0.400365E-05  0.820E-04    1.16       8.3  T
   8   -352.6161660 -0.289654E-06  0.472E-04    1.16      14.4  T
   9   -352.6161661 -0.140131E-06  0.151E-04    1.16      45.2  T
  10   -352.6161661 -0.941981E-08  0.503E-05    1.16     135.6  T
     SCC iter.                  ...        0 min,  1.605 sec
     gradient                   ...        0 min,  0.572 sec
 * total energy  :  -347.1451793 Eh     change       -0.1027194E+00 Eh
   gradient norm :     0.1278165 Eh/α   predicted    -0.9794571E-01 (  -4.65%)
   displ. norm   :     0.8365215 α      lambda       -0.8796935E-01
   maximum displ.:     0.2864067 α      in ANC's #120, #121, #216, ...

........................................................................
.............................. CYCLE    5 ..............................
........................................................................
   1   -352.6327957 -0.352633E+03  0.824E-02    1.16       0.0  T
   2   -352.6329664 -0.170687E-03  0.747E-02    1.16       1.0  T
   3   -352.6341757 -0.120930E-02  0.282E-02    1.16       1.0  T
   4   -352.6339260  0.249673E-03  0.284E-02    1.16       1.0  T
   5   -352.6342494 -0.323425E-03  0.611E-03    1.16       1.1  T
   6   -352.6342744 -0.250014E-04  0.173E-03    1.16       4.0  T
   7   -352.6342762 -0.175791E-05  0.515E-04    1.16      13.2  T
   8   -352.6342764 -0.146417E-06  0.308E-04    1.16      22.2  T
   9   -352.6342764 -0.574884E-07  0.926E-05    1.16      73.7  T
  10   -352.6342764 -0.202647E-08  0.365E-05    1.16     186.9  T
     SCC iter.                  ...        0 min,  1.605 sec
     gradient                   ...        0 min,  0.570 sec
 * total energy  :  -347.2192244 Eh     change       -0.7404506E-01 Eh
   gradient norm :     0.0963769 Eh/α   predicted    -0.7476377E-01 (   0.97%)
   displ. norm   :     0.8084048 α      lambda       -0.5768605E-01
   maximum displ.:     0.3045178 α      in ANC's #120, #121, #52, ...

........................................................................
.............................. CYCLE    6 ..............................
........................................................................
   1   -352.6550009 -0.352655E+03  0.553E-02    1.12       0.0  T
   2   -352.6548947  0.106209E-03  0.606E-02    1.13       1.0  T
   3   -352.6556856 -0.790957E-03  0.249E-02    1.13       1.0  T
   4   -352.6553826  0.302980E-03  0.235E-02    1.13       1.0  T
   5   -352.6556930 -0.310397E-03  0.328E-03    1.13       2.1  T
   6   -352.6556987 -0.567009E-05  0.791E-04    1.13       8.6  T
   7   -352.6556990 -0.331161E-06  0.239E-04    1.13      28.5  T
   8   -352.6556991 -0.339849E-07  0.125E-04    1.13      54.7  T
   9   -352.6556991 -0.108212E-07  0.431E-05    1.13     158.1  T
     SCC iter.                  ...        0 min,  1.444 sec
     gradient                   ...        0 min,  0.570 sec
 * total energy  :  -347.2621478 Eh     change       -0.4292343E-01 Eh
   gradient norm :     0.0800231 Eh/α   predicted    -0.4769248E-01 (  11.11%)
   displ. norm   :     0.6951590 α      lambda       -0.3267786E-01
   maximum displ.:     0.2659626 α      in ANC's #52, #121, #120, ...

........................................................................
.............................. CYCLE    7 ..............................
........................................................................
   1   -352.7077085 -0.352708E+03  0.258E-02    1.14       0.0  T
   2   -352.7077396 -0.311406E-04  0.220E-02    1.14       1.0  T
   3   -352.7079045 -0.164921E-03  0.837E-03    1.14       1.0  T
   4   -352.7078940  0.105263E-04  0.810E-03    1.14       1.0  T
   5   -352.7079213 -0.272730E-04  0.191E-03    1.14       3.6  T
   6   -352.7079225 -0.119139E-05  0.418E-04    1.14      16.3  T
   7   -352.7079226 -0.675319E-07  0.155E-04    1.14      44.1  T
   8   -352.7079226 -0.101667E-07  0.849E-05    1.14      80.3  T
     SCC iter.                  ...        0 min,  1.292 sec
     gradient                   ...        0 min,  0.570 sec
 * total energy  :  -347.2884565 Eh     change       -0.2630868E-01 Eh
   gradient norm :     0.0483639 Eh/α   predicted    -0.2423466E-01 (  -7.88%)
   displ. norm   :     0.7624525 α      lambda       -0.2262424E-01
   maximum displ.:     0.3639584 α      in ANC's #52, #32, #121, ...

........................................................................
.............................. CYCLE    8 ..............................
........................................................................
   1   -352.7605254 -0.352761E+03  0.225E-02    1.14       0.0  T
   2   -352.7605501 -0.247797E-04  0.187E-02    1.15       1.0  T
   3   -352.7606532 -0.103044E-03  0.753E-03    1.15       1.0  T
   4   -352.7606415  0.116479E-04  0.693E-03    1.15       1.0  T
   5   -352.7606640 -0.224377E-04  0.150E-03    1.15       4.6  T
   6   -352.7606648 -0.804432E-06  0.302E-04    1.15      22.6  T
   7   -352.7606648 -0.384380E-07  0.121E-04    1.15      56.6  T
   8   -352.7606648 -0.613420E-08  0.616E-05    1.15     110.8  T
     SCC iter.                  ...        0 min,  1.283 sec
     gradient                   ...        0 min,  0.575 sec
 * total energy  :  -347.3054075 Eh     change       -0.1695105E-01 Eh
   gradient norm :     0.0362010 Eh/α   predicted    -0.1788826E-01 (   5.53%)
   displ. norm   :     0.8230887 α      lambda       -0.1759595E-01
   maximum displ.:     0.3985712 α      in ANC's #52, #32, #92, ...

........................................................................
.............................. CYCLE    9 ..............................
........................................................................
   1   -352.7952018 -0.352795E+03  0.188E-02    1.16       0.0  T
   2   -352.7952425 -0.406143E-04  0.152E-02    1.16       1.0  T
   3   -352.7952962 -0.537572E-04  0.667E-03    1.16       1.0  T
   4   -352.7952820  0.141844E-04  0.602E-03    1.16       1.1  T
   5   -352.7953006 -0.185748E-04  0.167E-03    1.16       4.1  T
   6   -352.7953017 -0.106739E-05  0.438E-04    1.16      15.6  T
   7   -352.7953018 -0.136093E-06  0.167E-04    1.16      40.9  T
   8   -352.7953018 -0.234280E-07  0.487E-05    1.16     140.1  T
     SCC iter.                  ...        0 min,  1.284 sec
     gradient                   ...        0 min,  0.573 sec
 * total energy  :  -347.3139702 Eh     change       -0.8562664E-02 Eh
   gradient norm :     0.0427926 Eh/α   predicted    -0.1475840E-01 (  72.36%)
   displ. norm   :     0.6639220 α      lambda       -0.1387453E-01
   maximum displ.:     0.3417038 α      in ANC's #52, #32, #15, ...

........................................................................
.............................. CYCLE   10 ..............................
........................................................................
   1   -352.8393432 -0.352839E+03  0.190E-02    1.17       0.0  T
   2   -352.8393652 -0.220353E-04  0.160E-02    1.17       1.0  T
   3   -352.8394029 -0.376676E-04  0.694E-03    1.17       1.0  T
   4   -352.8393847  0.181730E-04  0.574E-03    1.17       1.2  T
   5   -352.8394048 -0.200546E-04  0.108E-03    1.17       6.3  T
   6   -352.8394055 -0.701788E-06  0.252E-04    1.17      27.1  T
   7   -352.8394055 -0.386377E-07  0.995E-05    1.17      68.6  T
   8   -352.8394055 -0.799525E-08  0.337E-05    1.17     202.5  T
     SCC iter.                  ...        0 min,  1.290 sec
     gradient                   ...        0 min,  0.574 sec
 * total energy  :  -347.3219364 Eh     change       -0.7966180E-02 Eh
   gradient norm :     0.0370401 Eh/α   predicted    -0.9995176E-02 (  25.47%)
   displ. norm   :     0.6486181 α      lambda       -0.1130819E-01
   maximum displ.:     0.3570516 α      in ANC's #32, #52, #15, ...

........................................................................
.............................. CYCLE   11 ..............................
........................................................................
   1   -352.8731237 -0.352873E+03  0.252E-02    1.14       0.0  T
   2   -352.8731658 -0.421173E-04  0.259E-02    1.14       1.0  T
   3   -352.8732982 -0.132346E-03  0.100E-02    1.14       1.0  T
   4   -352.8732518  0.463511E-04  0.992E-03    1.14       1.0  T
   5   -352.8733004 -0.485992E-04  0.215E-03    1.14       3.2  T
   6   -352.8733018 -0.133767E-05  0.475E-04    1.14      14.3  T
   7   -352.8733019 -0.143001E-06  0.194E-04    1.14      35.2  T
   8   -352.8733019 -0.326330E-07  0.483E-05    1.14     141.3  T
     SCC iter.                  ...        0 min,  1.284 sec
     gradient                   ...        0 min,  0.573 sec
 * total energy  :  -347.3264360 Eh     change       -0.4499599E-02 Eh
   gradient norm :     0.0482203 Eh/α   predicted    -0.8032816E-02 (  78.52%)
   displ. norm   :     0.5591037 α      lambda       -0.8332835E-02
   maximum displ.:     0.3436226 α      in ANC's #32, #52, #15, ...

........................................................................
.............................. CYCLE   12 ..............................
........................................................................
   1   -352.8999749 -0.352900E+03  0.124E-02    1.16       0.0  T
   2   -352.8999856 -0.106920E-04  0.116E-02    1.16       1.0  T
   3   -352.9000124 -0.268335E-04  0.438E-03    1.16       1.6  T
   4   -352.9000035  0.888298E-05  0.437E-03    1.16       1.6  T
   5   -352.9000132 -0.966530E-05  0.102E-03    1.16       6.7  T
   6   -352.9000135 -0.332978E-06  0.232E-04    1.16      29.4  T
   7   -352.9000136 -0.363851E-07  0.970E-05    1.16      70.3  T
   8   -352.9000136 -0.778647E-08  0.240E-05    1.16     284.4  T
     SCC iter.                  ...        0 min,  1.286 sec
     gradient                   ...        0 min,  0.572 sec
 * total energy  :  -347.3326200 Eh     change       -0.6184050E-02 Eh
   gradient norm :     0.0261003 Eh/α   predicted    -0.5468835E-02 ( -11.57%)
   displ. norm   :     0.7307146 α      lambda       -0.7582012E-02
   maximum displ.:     0.4529287 α      in ANC's #32, #52, #15, ...

........................................................................
.............................. CYCLE   13 ..............................
........................................................................
   1   -352.9180280 -0.352918E+03  0.147E-02    1.17       0.0  T
   2   -352.9180466 -0.185848E-04  0.151E-02    1.17       1.0  T
   3   -352.9180868 -0.402106E-04  0.610E-03    1.17       1.1  T
   4   -352.9180727  0.141288E-04  0.536E-03    1.17       1.3  T
   5   -352.9180872 -0.145439E-04  0.116E-03    1.17       5.9  T
   6   -352.9180878 -0.544040E-06  0.234E-04    1.17      29.2  T
   7   -352.9180878 -0.236281E-07  0.115E-04    1.17      59.1  T
   8   -352.9180878 -0.120121E-07  0.315E-05    1.17     216.7  T
     SCC iter.                  ...        0 min,  1.288 sec
     gradient                   ...        0 min,  0.577 sec
 * total energy  :  -347.3355708 Eh     change       -0.2950764E-02 Eh
   gradient norm :     0.0429407 Eh/α   predicted    -0.5815190E-02 (  97.07%)
   displ. norm   :     0.5996373 α      lambda       -0.8064823E-02
   maximum displ.:     0.3776197 α      in ANC's #32, #52, #15, ...

........................................................................
.............................. CYCLE   14 ..............................
........................................................................
   1   -352.9394448 -0.352939E+03  0.859E-03    1.16       0.0  T
   2   -352.9394497 -0.493235E-05  0.721E-03    1.16       1.0  T
   3   -352.9394589 -0.923020E-05  0.317E-03    1.16       2.2  T
   4   -352.9394549  0.408197E-05  0.283E-03    1.16       2.4  T
   5   -352.9394595 -0.459830E-05  0.668E-04    1.16      10.2  T
   6   -352.9394597 -0.230969E-06  0.147E-04    1.16      46.4  T
   7   -352.9394597 -0.148917E-07  0.606E-05    1.16     112.5  T
     SCC iter.                  ...        0 min,  1.125 sec
     gradient                   ...        0 min,  0.580 sec
 * total energy  :  -347.3403649 Eh     change       -0.4794141E-02 Eh
   gradient norm :     0.0306642 Eh/α   predicted    -0.5482331E-02 (  14.35%)
   displ. norm   :     0.6184621 α      lambda       -0.5627546E-02
   maximum displ.:     0.4029494 α      in ANC's #32, #15, #52, ...

........................................................................
.............................. CYCLE   15 ..............................
........................................................................
   1   -352.9625620 -0.352963E+03  0.138E-02    1.16       0.0  T
   2   -352.9625745 -0.124779E-04  0.136E-02    1.16       1.0  T
   3   -352.9626093 -0.348210E-04  0.517E-03    1.16       1.3  T
   4   -352.9625967  0.125310E-04  0.520E-03    1.16       1.3  T
   5   -352.9626100 -0.133035E-04  0.107E-03    1.16       6.3  T
   6   -352.9626104 -0.363387E-06  0.248E-04    1.16      27.5  T
   7   -352.9626104 -0.356042E-07  0.105E-04    1.16      65.0  T
   8   -352.9626105 -0.926764E-08  0.263E-05    1.16     259.1  T
     SCC iter.                  ...        0 min,  1.285 sec
     gradient                   ...        0 min,  0.578 sec
 * total energy  :  -347.3432316 Eh     change       -0.2866717E-02 Eh
   gradient norm :     0.0280626 Eh/α   predicted    -0.3890028E-02 (  35.70%)
   displ. norm   :     0.6491859 α      lambda       -0.5170450E-02
   maximum displ.:     0.4436703 α      in ANC's #32, #15, #52, ...

........................................................................
.............................. CYCLE   16 ..............................
........................................................................
   1   -352.9843790 -0.352984E+03  0.837E-03    1.16       0.0  T
   2   -352.9843830 -0.403046E-05  0.695E-03    1.16       1.0  T
   3   -352.9843919 -0.884718E-05  0.292E-03    1.16       2.3  T
   4   -352.9843884  0.347130E-05  0.268E-03    1.16       2.5  T
   5   -352.9843924 -0.404094E-05  0.583E-04    1.16      11.7  T
   6   -352.9843926 -0.146015E-06  0.122E-04    1.16      55.9  T
   7   -352.9843926 -0.699390E-08  0.604E-05    1.16     112.8  T
     SCC iter.                  ...        0 min,  1.130 sec
     gradient                   ...        0 min,  0.578 sec
 * total energy  :  -347.3463077 Eh     change       -0.3076023E-02 Eh
   gradient norm :     0.0269165 Eh/α   predicted    -0.3674751E-02 (  19.46%)
   displ. norm   :     0.6170374 α      lambda       -0.4639989E-02
   maximum displ.:     0.4231855 α      in ANC's #32, #15, #23, ...

........................................................................
.............................. CYCLE   17 ..............................
........................................................................
   1   -352.9964039 -0.352996E+03  0.962E-03    1.15       0.0  T
   2   -352.9964066 -0.270332E-05  0.939E-03    1.15       1.0  T
   3   -352.9964299 -0.233452E-04  0.325E-03    1.15       2.1  T
   4   -352.9964246  0.535110E-05  0.333E-03    1.15       2.0  T
   5   -352.9964305 -0.593260E-05  0.636E-04    1.15      10.7  T
   6   -352.9964306 -0.107331E-06  0.123E-04    1.15      55.3  T
   7   -352.9964306 -0.601409E-08  0.535E-05    1.15     127.5  T
     SCC iter.                  ...        0 min,  1.127 sec
     gradient                   ...        0 min,  0.580 sec
 * total energy  :  -347.3493796 Eh     change       -0.3071982E-02 Eh
   gradient norm :     0.0161569 Eh/α   predicted    -0.3203302E-02 (   4.27%)
   displ. norm   :     0.6646077 α      lambda       -0.3098047E-02
   maximum displ.:     0.4593250 α      in ANC's #32, #15, #23, ...

........................................................................
.............................. CYCLE   18 ..............................
........................................................................
   1   -353.0108015 -0.353011E+03  0.600E-03    1.13       0.0  T
   2   -353.0108031 -0.158273E-05  0.475E-03    1.14       1.4  T
   3   -353.0108089 -0.580701E-05  0.183E-03    1.14       3.7  T
   4   -353.0108079  0.100870E-05  0.163E-03    1.14       4.2  T
   5   -353.0108093 -0.141600E-05  0.426E-04    1.14      16.0  T
   6   -353.0108094 -0.851899E-07  0.834E-05    1.14      81.8  T
   7   -353.0108094 -0.392038E-08  0.317E-05    1.14     215.4  T
     SCC iter.                  ...        0 min,  1.122 sec
     gradient                   ...        0 min,  0.583 sec
 * total energy  :  -347.3519000 Eh     change       -0.2520379E-02 Eh
   gradient norm :     0.0162906 Eh/α   predicted    -0.2233229E-02 ( -11.39%)
   displ. norm   :     0.7603700 α      lambda       -0.3307053E-02
   maximum displ.:     0.5203058 α      in ANC's #32, #15, #23, ...

........................................................................
.............................. CYCLE   19 ..............................
........................................................................
   1   -353.0273147 -0.353027E+03  0.673E-03    1.13       0.0  T
   2   -353.0273192 -0.454666E-05  0.534E-03    1.13       1.3  T
   3   -353.0273243 -0.508189E-05  0.217E-03    1.13       3.1  T
   4   -353.0273234  0.921744E-06  0.171E-03    1.13       4.0  T
   5   -353.0273244 -0.993216E-06  0.463E-04    1.13      14.7  T
   6   -353.0273245 -0.167563E-06  0.115E-04    1.13      59.3  T
   7   -353.0273245 -0.763566E-08  0.275E-05    1.13     248.1  T
     SCC iter.                  ...        0 min,  1.127 sec
     gradient                   ...        0 min,  0.578 sec
 * total energy  :  -347.3543722 Eh     change       -0.2472182E-02 Eh
   gradient norm :     0.0113306 Eh/α   predicted    -0.2609531E-02 (   5.56%)
   displ. norm   :     0.7612634 α      lambda       -0.2536984E-02
   maximum displ.:     0.5149519 α      in ANC's #32, #15, #23, ...

........................................................................
.............................. CYCLE   20 ..............................
........................................................................
   1   -353.0405041 -0.353041E+03  0.479E-03    1.12       0.0  T
   2   -353.0405060 -0.196507E-05  0.315E-03    1.12       2.2  T
   3   -353.0405081 -0.203283E-05  0.155E-03    1.12       4.4  T
   4   -353.0405080  0.784088E-07  0.918E-04    1.12       7.4  T
   5   -353.0405082 -0.260177E-06  0.380E-04    1.12      17.9  T
   6   -353.0405084 -0.120191E-06  0.588E-05    1.12     116.0  T
   7   -353.0405084 -0.130763E-08  0.228E-05    1.12     299.5  T
     SCC iter.                  ...        0 min,  1.129 sec
     gradient                   ...        0 min,  0.580 sec
 * total energy  :  -347.3563452 Eh     change       -0.1972948E-02 Eh
   gradient norm :     0.0174099 Eh/α   predicted    -0.2003605E-02 (   1.55%)
   displ. norm   :     0.7222252 α      lambda       -0.2330775E-02
   maximum displ.:     0.4695882 α      in ANC's #32, #15, #23, ...
 * RMSD in coord.:     0.6690659 α      energy gain  -0.9044011E+00 Eh

generating ANC from model Hessian ...
Using Lindh-Hessian (1995)
 Shifting diagonal of input Hessian by    1.0012807487677428E-002
 Lowest  eigenvalues of input Hessian
    0.010000    0.010001    0.010004    0.010005    0.010008    0.010012
    0.000000    0.000000    0.000000    0.000000    0.000000    0.000000
    0.010021    0.010022    0.010043    0.010075    0.010115    0.010121
 Highest eigenvalues
    2.201865    2.210579    2.613327    2.619148    2.931207    2.933041


........................................................................
.............................. CYCLE   21 ..............................
........................................................................
   1   -353.0497933 -0.353050E+03  0.846E-03    1.11       0.0  T
   2   -353.0497971 -0.380831E-05  0.807E-03    1.11       1.0  T
   3   -353.0498117 -0.145769E-04  0.284E-03    1.11       2.4  T
   4   -353.0498079  0.379378E-05  0.289E-03    1.11       2.4  T
   5   -353.0498120 -0.415897E-05  0.589E-04    1.11      11.6  T
   6   -353.0498122 -0.114163E-06  0.116E-04    1.11      58.7  T
   7   -353.0498122 -0.492889E-08  0.601E-05    1.11     113.5  T
     SCC iter.                  ...        0 min,  1.126 sec
     gradient                   ...        0 min,  0.580 sec
 * total energy  :  -347.3579326 Eh     change       -0.1587475E-02 Eh
   gradient norm :     0.0182598 Eh/α   predicted     0.0000000E+00 (-100.00%)
   displ. norm   :     0.1907521 α      lambda       -0.7337845E-03
   maximum displ.:     0.1137178 α      in ANC's #32, #14, #22, ...

........................................................................
.............................. CYCLE   22 ..............................
........................................................................
   1   -353.0533598 -0.353053E+03  0.283E-03    1.12       0.0  T
   2   -353.0533606 -0.713769E-06  0.271E-03    1.12       2.5  T
   3   -353.0533621 -0.158230E-05  0.100E-03    1.12       6.8  T
   4   -353.0533618  0.378071E-06  0.917E-04    1.12       7.4  T
   5   -353.0533622 -0.392162E-06  0.285E-04    1.12      23.9  T
   6   -353.0533622 -0.266774E-07  0.425E-05    1.12     160.4  T
   7   -353.0533622 -0.423370E-09  0.190E-05    1.12     359.3  T
     SCC iter.                  ...        0 min,  1.124 sec
     gradient                   ...        0 min,  0.578 sec
 * total energy  :  -347.3585055 Eh     change       -0.5729032E-03 Eh
   gradient norm :     0.0086778 Eh/α   predicted    -0.3803026E-03 ( -33.62%)
   displ. norm   :     0.4979483 α      lambda       -0.1377086E-02
   maximum displ.:     0.2664635 α      in ANC's #32, #14, #31, ...

........................................................................
.............................. CYCLE   23 ..............................
........................................................................
   1   -353.0597579 -0.353060E+03  0.593E-03    1.13       0.0  T
   2   -353.0597611 -0.322098E-05  0.510E-03    1.13       1.3  T
   3   -353.0597667 -0.552181E-05  0.189E-03    1.13       3.6  T
   4   -353.0597653  0.132673E-05  0.183E-03    1.13       3.7  T
   5   -353.0597668 -0.150411E-05  0.602E-04    1.13      11.3  T
   6   -353.0597669 -0.114588E-06  0.911E-05    1.13      74.9  T
   7   -353.0597670 -0.139215E-08  0.431E-05    1.13     158.3  T
     SCC iter.                  ...        0 min,  1.130 sec
     gradient                   ...        0 min,  0.582 sec
 * total energy  :  -347.3591969 Eh     change       -0.6914024E-03 Eh
   gradient norm :     0.0153441 Eh/α   predicted    -0.8592708E-03 (  24.28%)
   displ. norm   :     0.4096132 α      lambda       -0.1020809E-02
   maximum displ.:     0.2329586 α      in ANC's #32, #14, #22, ...

........................................................................
.............................. CYCLE   24 ..............................
........................................................................
   1   -353.0624221 -0.353062E+03  0.230E-03    1.14       0.0  T
   2   -353.0624228 -0.676766E-06  0.114E-03    1.14       6.0  T
   3   -353.0624230 -0.191403E-06  0.705E-04    1.14       9.7  T
   4   -353.0624230 -0.710127E-07  0.408E-04    1.14      16.7  T
   5   -353.0624231 -0.373668E-07  0.234E-04    1.14      29.2  T
   6   -353.0624231 -0.297551E-07  0.413E-05    1.14     165.1  T
   7   -353.0624231 -0.501473E-09  0.192E-05    1.14     355.7  T
     SCC iter.                  ...        0 min,  1.124 sec
     gradient                   ...        0 min,  0.580 sec
 * total energy  :  -347.3596756 Eh     change       -0.4786973E-03 Eh
   gradient norm :     0.0190316 Eh/α   predicted    -0.5960430E-03 (  24.51%)
   displ. norm   :     0.3685914 α      lambda       -0.1074264E-02
   maximum displ.:     0.1998881 α      in ANC's #14, #32, #22, ...

........................................................................
.............................. CYCLE   25 ..............................
........................................................................
   1   -353.0627787 -0.353063E+03  0.301E-03    1.13       0.0  T
   2   -353.0627798 -0.115368E-05  0.309E-03    1.13       2.2  T
   3   -353.0627817 -0.185838E-05  0.112E-03    1.13       6.1  T
   4   -353.0627814  0.270598E-06  0.814E-04    1.13       8.4  T
   5   -353.0627817 -0.276954E-06  0.215E-04    1.13      31.7  T
   6   -353.0627817 -0.262950E-07  0.525E-05    1.13     130.0  T
   7   -353.0627817 -0.129359E-08  0.148E-05    1.13     462.1  T
     SCC iter.                  ...        0 min,  1.123 sec
     gradient                   ...        0 min,  0.576 sec
 * total energy  :  -347.3600355 Eh     change       -0.3598688E-03 Eh
   gradient norm :     0.0147660 Eh/α   predicted    -0.6101091E-03 (  69.54%)
   displ. norm   :     0.2995586 α      lambda       -0.1055150E-02
   maximum displ.:     0.1678267 α      in ANC's #14, #32, #22, ...

........................................................................
.............................. CYCLE   26 ..............................
........................................................................
   1   -353.0660410 -0.353066E+03  0.295E-03    1.13       0.0  T
   2   -353.0660417 -0.682301E-06  0.244E-03    1.13       2.8  T
   3   -353.0660427 -0.101075E-05  0.105E-03    1.13       6.5  T
   4   -353.0660424  0.352149E-06  0.821E-04    1.13       8.3  T
   5   -353.0660427 -0.373190E-06  0.253E-04    1.13      27.0  T
   6   -353.0660428 -0.308128E-07  0.436E-05    1.13     156.5  T
   7   -353.0660428 -0.619821E-09  0.186E-05    1.13     365.9  T
     SCC iter.                  ...        0 min,  1.124 sec
     gradient                   ...        0 min,  0.582 sec
 * total energy  :  -347.3606174 Eh     change       -0.5818557E-03 Eh
   gradient norm :     0.0087834 Eh/α   predicted    -0.5749184E-03 (  -1.19%)
   displ. norm   :     0.3886386 α      lambda       -0.9426082E-03
   maximum displ.:     0.2263695 α      in ANC's #14, #32, #31, ...

........................................................................
.............................. CYCLE   27 ..............................
........................................................................
   1   -353.0706578 -0.353071E+03  0.237E-03    1.12       0.0  T
   2   -353.0706582 -0.385709E-06  0.147E-03    1.12       4.6  T
   3   -353.0706586 -0.399080E-06  0.747E-04    1.12       9.1  T
   4   -353.0706585  0.354631E-07  0.529E-04    1.12      12.9  T
   5   -353.0706587 -0.129347E-06  0.203E-04    1.12      33.6  T
   6   -353.0706587 -0.241875E-07  0.352E-05    1.12     193.7  T
   7   -353.0706587 -0.277396E-09  0.194E-05    1.12     352.2  T
     SCC iter.                  ...        0 min,  1.120 sec
     gradient                   ...        0 min,  0.580 sec
 * total energy  :  -347.3610420 Eh     change       -0.4246580E-03 Eh
   gradient norm :     0.0070077 Eh/α   predicted    -0.5424928E-03 (  27.75%)
   displ. norm   :     0.3846999 α      lambda       -0.5934470E-03
   maximum displ.:     0.2341726 α      in ANC's #14, #32, #22, ...

........................................................................
.............................. CYCLE   28 ..............................
........................................................................
   1   -353.0752617 -0.353075E+03  0.170E-03    1.12       0.0  T
   2   -353.0752619 -0.151872E-06  0.109E-03    1.12       6.2  T
   3   -353.0752621 -0.162572E-06  0.644E-04    1.12      10.6  T
   4   -353.0752621 -0.586874E-08  0.389E-04    1.12      17.5  T
   5   -353.0752621 -0.764061E-07  0.112E-04    1.12      60.9  T
   6   -353.0752621 -0.891947E-08  0.184E-05    1.12     371.4  T
     SCC iter.                  ...        0 min,  0.964 sec
     gradient                   ...        0 min,  0.580 sec
 * total energy  :  -347.3614655 Eh     change       -0.4235321E-03 Eh
   gradient norm :     0.0050911 Eh/α   predicted    -0.3406380E-03 ( -19.57%)
   displ. norm   :     0.4534918 α      lambda       -0.4900672E-03
   maximum displ.:     0.2838179 α      in ANC's #14, #32, #22, ...

........................................................................
.............................. CYCLE   29 ..............................
........................................................................
   1   -353.0805469 -0.353081E+03  0.200E-03    1.11       0.0  T
   2   -353.0805472 -0.317801E-06  0.134E-03    1.11       5.1  T
   3   -353.0805478 -0.509271E-06  0.640E-04    1.11      10.7  T
   4   -353.0805478 -0.289347E-07  0.457E-04    1.11      14.9  T
   5   -353.0805478 -0.618125E-07  0.185E-04    1.11      36.9  T
   6   -353.0805479 -0.229454E-07  0.258E-05    1.11     264.2  T
     SCC iter.                  ...        0 min,  0.966 sec
     gradient                   ...        0 min,  0.582 sec
 * total energy  :  -347.3618215 Eh     change       -0.3559424E-03 Eh
   gradient norm :     0.0036997 Eh/α   predicted    -0.2954297E-03 ( -17.00%)
   displ. norm   :     0.4171839 α      lambda       -0.3473638E-03
   maximum displ.:     0.2722231 α      in ANC's #14, #22, #32, ...

........................................................................
.............................. CYCLE   30 ..............................
........................................................................
   1   -353.0857857 -0.353086E+03  0.202E-03    1.11       0.0  T
   2   -353.0857861 -0.396853E-06  0.130E-03    1.11       5.2  T
   3   -353.0857867 -0.538422E-06  0.613E-04    1.11      11.1  T
   4   -353.0857867 -0.501853E-07  0.448E-04    1.11      15.2  T
   5   -353.0857868 -0.557753E-07  0.193E-04    1.11      35.4  T
   6   -353.0857868 -0.214100E-07  0.272E-05    1.11     251.2  T
     SCC iter.                  ...        0 min,  0.967 sec
     gradient                   ...        0 min,  0.582 sec
 * total energy  :  -347.3621010 Eh     change       -0.2795012E-03 Eh
   gradient norm :     0.0038460 Eh/α   predicted    -0.2039119E-03 ( -27.04%)
   displ. norm   :     0.3750356 α      lambda       -0.2921260E-03
   maximum displ.:     0.2529021 α      in ANC's #14, #22, #24, ...

........................................................................
.............................. CYCLE   31 ..............................
........................................................................
   1   -353.0912662 -0.353091E+03  0.170E-03    1.11       0.0  T
   2   -353.0912665 -0.302327E-06  0.102E-03    1.11       6.7  T
   3   -353.0912668 -0.258027E-06  0.554E-04    1.11      12.3  T
   4   -353.0912668 -0.507025E-07  0.404E-04    1.11      16.9  T
   5   -353.0912669 -0.562688E-07  0.153E-04    1.11      44.6  T
   6   -353.0912669 -0.113889E-07  0.250E-05    1.11     272.3  T
     SCC iter.                  ...        0 min,  0.966 sec
     gradient                   ...        0 min,  0.584 sec
 * total energy  :  -347.3623538 Eh     change       -0.2528391E-03 Eh
   gradient norm :     0.0036997 Eh/α   predicted    -0.1666085E-03 ( -34.10%)
   displ. norm   :     0.3743837 α      lambda       -0.2832004E-03
   maximum displ.:     0.2555240 α      in ANC's #14, #22, #24, ...

........................................................................
.............................. CYCLE   32 ..............................
........................................................................
   1   -353.0957479 -0.353096E+03  0.119E-03    1.11       0.0  T
   2   -353.0957480 -0.121168E-06  0.744E-04    1.11       9.2  T
   3   -353.0957481 -0.117189E-06  0.398E-04    1.11      17.1  T
   4   -353.0957482 -0.179696E-07  0.297E-04    1.11      23.0  T
   5   -353.0957482 -0.326706E-07  0.987E-05    1.11      69.1  T
   6   -353.0957482 -0.555104E-08  0.177E-05    1.11     386.4  T
     SCC iter.                  ...        0 min,  0.965 sec
     gradient                   ...        0 min,  0.585 sec
 * total energy  :  -347.3626075 Eh     change       -0.2537043E-03 Eh
   gradient norm :     0.0034677 Eh/α   predicted    -0.1614525E-03 ( -36.36%)
   displ. norm   :     0.4362384 α      lambda       -0.3254341E-03
   maximum displ.:     0.2926316 α      in ANC's #14, #22, #24, ...

........................................................................
.............................. CYCLE   33 ..............................
........................................................................
   1   -353.0987633 -0.353099E+03  0.947E-04    1.11       0.0  T
   2   -353.0987633 -0.968826E-07  0.529E-04    1.11      12.9  T
   3   -353.0987634 -0.375534E-07  0.288E-04    1.11      23.7  T
   4   -353.0987634  0.224560E-08  0.203E-04    1.11      33.5  T
   5   -353.0987634 -0.163421E-07  0.687E-05    1.11      99.3  T
   6   -353.0987634 -0.310712E-08  0.185E-05    1.11     368.9  T
     SCC iter.                  ...        0 min,  0.966 sec
     gradient                   ...        0 min,  0.581 sec
 * total energy  :  -347.3629024 Eh     change       -0.2948653E-03 Eh
   gradient norm :     0.0031819 Eh/α   predicted    -0.1936848E-03 ( -34.31%)
   displ. norm   :     0.5225310 α      lambda       -0.3762603E-03
   maximum displ.:     0.3456452 α      in ANC's #14, #22, #24, ...

........................................................................
.............................. CYCLE   34 ..............................
........................................................................
   1   -353.0999626 -0.353100E+03  0.104E-03    1.11       0.0  T
   2   -353.0999627 -0.130838E-06  0.433E-04    1.11      15.8  T
   3   -353.0999627 -0.217542E-07  0.289E-04    1.11      23.6  T
   4   -353.0999628 -0.208002E-07  0.168E-04    1.11      40.6  T
   5   -353.0999628 -0.991946E-08  0.817E-05    1.11      83.4  T
     SCC iter.                  ...        0 min,  0.808 sec
     gradient                   ...        0 min,  0.608 sec
 * total energy  :  -347.3632439 Eh     change       -0.3415332E-03 Eh
   gradient norm :     0.0033430 Eh/α   predicted    -0.2394996E-03 ( -29.88%)
   displ. norm   :     0.5868816 α      lambda       -0.4037455E-03
   maximum displ.:     0.3864818 α      in ANC's #14, #22, #24, ...

........................................................................
.............................. CYCLE   35 ..............................
........................................................................
   1   -353.0991174 -0.353099E+03  0.124E-03    1.11       0.0  T
   2   -353.0991176 -0.174172E-06  0.542E-04    1.11      12.6  T
   3   -353.0991176 -0.559220E-07  0.363E-04    1.11      18.8  T
   4   -353.0991177 -0.738947E-07  0.188E-04    1.11      36.2  T
   5   -353.0991177 -0.965525E-08  0.915E-05    1.11      74.5  T
     SCC iter.                  ...        0 min,  0.808 sec
     gradient                   ...        0 min,  0.584 sec
 * total energy  :  -347.3636087 Eh     change       -0.3647512E-03 Eh
   gradient norm :     0.0035113 Eh/α   predicted    -0.2714054E-03 ( -25.59%)
   displ. norm   :     0.6155865 α      lambda       -0.3939901E-03
   maximum displ.:     0.4066597 α      in ANC's #14, #22, #24, ...

........................................................................
.............................. CYCLE   36 ..............................
........................................................................
   1   -353.0968170 -0.353097E+03  0.130E-03    1.11       0.0  T
   2   -353.0968171 -0.161441E-06  0.645E-04    1.11      10.6  T
   3   -353.0968172 -0.889872E-07  0.415E-04    1.11      16.4  T
   4   -353.0968173 -0.969163E-07  0.236E-04    1.11      28.9  T
   5   -353.0968173 -0.157596E-07  0.963E-05    1.11      70.8  T
   6   -353.0968173 -0.356295E-08  0.283E-05    1.11     240.9  T
     SCC iter.                  ...        0 min,  0.968 sec
     gradient                   ...        0 min,  0.582 sec
 * total energy  :  -347.3639580 Eh     change       -0.3492709E-03 Eh
   gradient norm :     0.0033617 Eh/α   predicted    -0.2716505E-03 ( -22.22%)
   displ. norm   :     0.6024029 α      lambda       -0.3367143E-03
   maximum displ.:     0.4020101 α      in ANC's #14, #22, #24, ...

........................................................................
.............................. CYCLE   37 ..............................
........................................................................
   1   -353.0939050 -0.353094E+03  0.120E-03    1.11       0.0  T
   2   -353.0939051 -0.129514E-06  0.609E-04    1.11      11.2  T
   3   -353.0939052 -0.515690E-07  0.402E-04    1.11      17.0  T
   4   -353.0939052 -0.626492E-07  0.249E-04    1.11      27.4  T
   5   -353.0939053 -0.226424E-07  0.832E-05    1.11      82.0  T
   6   -353.0939053 -0.301810E-08  0.296E-05    1.11     230.8  T
     SCC iter.                  ...        0 min,  0.966 sec
     gradient                   ...        0 min,  0.583 sec
 * total energy  :  -347.3642477 Eh     change       -0.2897414E-03 Eh
   gradient norm :     0.0029073 Eh/α   predicted    -0.2294558E-03 ( -20.81%)
   displ. norm   :     0.5359568 α      lambda       -0.2443833E-03
   maximum displ.:     0.3638981 α      in ANC's #14, #24, #22, ...

........................................................................
.............................. CYCLE   38 ..............................
........................................................................
   1   -353.0913904 -0.353091E+03  0.990E-04    1.11       0.0  T
   2   -353.0913905 -0.857201E-07  0.509E-04    1.11      13.4  T
   3   -353.0913905 -0.232260E-07  0.332E-04    1.11      20.5  T
   4   -353.0913905 -0.265219E-07  0.210E-04    1.11      32.4  T
   5   -353.0913905 -0.191936E-07  0.671E-05    1.11     101.7  T
   6   -353.0913905 -0.237594E-08  0.270E-05    1.11     252.3  T
     SCC iter.                  ...        0 min,  0.971 sec
     gradient                   ...        0 min,  0.582 sec
 * total energy  :  -347.3644533 Eh     change       -0.2055574E-03 Eh
   gradient norm :     0.0024542 Eh/α   predicted    -0.1572926E-03 ( -23.48%)
   displ. norm   :     0.4267280 α      lambda       -0.1607469E-03
   maximum displ.:     0.2961492 α      in ANC's #14, #24, #22, ...

........................................................................
.............................. CYCLE   39 ..............................
........................................................................
   1   -353.0901266 -0.353090E+03  0.759E-04    1.11       0.0  T
   2   -353.0901267 -0.605078E-07  0.368E-04    1.11      18.5  T
   3   -353.0901267 -0.123229E-07  0.227E-04    1.11      30.0  T
   4   -353.0901267 -0.446772E-08  0.148E-04    1.11      46.1  T
   5   -353.0901267 -0.967589E-08  0.566E-05    1.11     120.4  T
     SCC iter.                  ...        0 min,  0.806 sec
     gradient                   ...        0 min,  0.584 sec
 * total energy  :  -347.3645893 Eh     change       -0.1360449E-03 Eh
   gradient norm :     0.0021517 Eh/α   predicted    -0.9501174E-04 ( -30.16%)
   displ. norm   :     0.3271259 α      lambda       -0.1146855E-03
   maximum displ.:     0.2320479 α      in ANC's #14, #24, #22, ...

........................................................................
.............................. CYCLE   40 ..............................
........................................................................
   1   -353.0901965 -0.353090E+03  0.577E-04    1.11       0.0  T
   2   -353.0901966 -0.320193E-07  0.285E-04    1.11      23.9  T
   3   -353.0901966 -0.844722E-08  0.184E-04    1.11      37.1  T
   4   -353.0901966 -0.115000E-07  0.118E-04    1.11      57.8  T
     SCC iter.                  ...        0 min,  0.646 sec
     gradient                   ...        0 min,  0.585 sec
 * total energy  :  -347.3646908 Eh     change       -0.1015005E-03 Eh
   gradient norm :     0.0018991 Eh/α   predicted    -0.6348185E-04 ( -37.46%)
   displ. norm   :     0.4361789 α      lambda       -0.1052451E-03
   maximum displ.:     0.3123149 α      in ANC's #14, #24, #25, ...

........................................................................
.............................. CYCLE   41 ..............................
........................................................................
   1   -353.0915877 -0.353092E+03  0.795E-04    1.11       0.0  T
   2   -353.0915877 -0.513510E-07  0.458E-04    1.11      14.9  T
   3   -353.0915878 -0.500479E-07  0.265E-04    1.11      25.7  T
   4   -353.0915878 -0.312242E-07  0.174E-04    1.11      39.2  T
   5   -353.0915878 -0.100276E-07  0.577E-05    1.11     118.2  T
     SCC iter.                  ...        0 min,  0.807 sec
     gradient                   ...        0 min,  0.584 sec
 * total energy  :  -347.3648294 Eh     change       -0.1386196E-03 Eh
   gradient norm :     0.0017316 Eh/α   predicted    -0.5707385E-04 ( -58.83%)
   displ. norm   :     0.4262637 α      lambda       -0.1018668E-03
   maximum displ.:     0.3025352 α      in ANC's #14, #24, #25, ...

........................................................................
.............................. CYCLE   42 ..............................
........................................................................
   1   -353.0933165 -0.353093E+03  0.721E-04    1.11       0.0  T
   2   -353.0933166 -0.357309E-07  0.456E-04    1.11      14.9  T
   3   -353.0933166 -0.452129E-07  0.251E-04    1.11      27.2  T
   4   -353.0933166 -0.972506E-08  0.182E-04    1.11      37.5  T
   5   -353.0933166 -0.149673E-07  0.504E-05    1.11     135.4  T
     SCC iter.                  ...        0 min,  0.806 sec
     gradient                   ...        0 min,  0.582 sec
 * total energy  :  -347.3649639 Eh     change       -0.1344752E-03 Eh
   gradient norm :     0.0014794 Eh/α   predicted    -0.5504768E-04 ( -59.06%)
   displ. norm   :     0.4786811 α      lambda       -0.1075415E-03
   maximum displ.:     0.3328814 α      in ANC's #14, #24, #25, ...
 * RMSD in coord.:     0.5655805 α      energy gain  -0.8618740E-02 Eh

generating ANC from model Hessian ...
Using Lindh-Hessian (1995)
 Shifting diagonal of input Hessian by    1.0014076459287232E-002
 Lowest  eigenvalues of input Hessian
    0.010000    0.010002    0.010005    0.010007    0.010009    0.010012
    0.000000    0.000000    0.000000    0.000000    0.000000    0.000000
    0.010030    0.010035    0.010036    0.010097    0.010116    0.010129
 Highest eigenvalues
    2.229044    2.230531    2.649286    2.651988    2.977142    2.979989


........................................................................
.............................. CYCLE   43 ..............................
........................................................................
   1   -353.0964412 -0.353096E+03  0.832E-04    1.11       0.0  T
   2   -353.0964413 -0.474903E-07  0.543E-04    1.11      12.6  T
   3   -353.0964414 -0.581173E-07  0.292E-04    1.11      23.4  T
   4   -353.0964414 -0.293909E-08  0.206E-04    1.11      33.2  T
   5   -353.0964414 -0.216997E-07  0.537E-05    1.11     127.0  T
   6   -353.0964414 -0.127238E-08  0.169E-05    1.11     402.8  T
     SCC iter.                  ...        0 min,  0.969 sec
     gradient                   ...        0 min,  0.584 sec
 * total energy  :  -347.3651018 Eh     change       -0.1378691E-03 Eh
   gradient norm :     0.0015279 Eh/α   predicted     0.0000000E+00 (-100.00%)
   displ. norm   :     0.0666943 α      lambda       -0.2391561E-05
   maximum displ.:     0.0361991 α      in ANC's #14, #20, #32, ...

........................................................................
.............................. CYCLE   44 ..............................
........................................................................
   1   -353.0962446 -0.353096E+03  0.409E-04    1.11       0.0  T
   2   -353.0962446 -0.144001E-07  0.222E-04    1.11      30.8  T
   3   -353.0962446 -0.484948E-08  0.138E-04    1.11      49.3  T
   4   -353.0962446 -0.443362E-08  0.980E-05    1.11      69.6  T
     SCC iter.                  ...        0 min,  0.651 sec
     gradient                   ...        0 min,  0.587 sec
 * total energy  :  -347.3651346 Eh     change       -0.3280322E-04 Eh
   gradient norm :     0.0010477 Eh/α   predicted    -0.1339952E-04 ( -59.15%)
   displ. norm   :     0.2625027 α      lambda       -0.8425687E-04
   maximum displ.:     0.1341927 α      in ANC's #14, #20, #23, ...

........................................................................
.............................. CYCLE   45 ..............................
........................................................................
   1   -353.0961110 -0.353096E+03  0.125E-03    1.11       0.0  T
   2   -353.0961111 -0.151256E-06  0.669E-04    1.11      10.2  T
   3   -353.0961112 -0.852762E-07  0.404E-04    1.11      16.9  T
   4   -353.0961113 -0.620683E-07  0.262E-04    1.11      26.0  T
   5   -353.0961113 -0.237528E-07  0.975E-05    1.11      69.9  T
   6   -353.0961113 -0.302924E-08  0.255E-05    1.11     267.1  T
     SCC iter.                  ...        0 min,  0.969 sec
     gradient                   ...        0 min,  0.584 sec
 * total energy  :  -347.3652064 Eh     change       -0.7183916E-04 Eh
   gradient norm :     0.0027522 Eh/α   predicted    -0.4341890E-04 ( -39.56%)
   displ. norm   :     0.2892860 α      lambda       -0.1376986E-03
   maximum displ.:     0.1463102 α      in ANC's #14, #20, #32, ...

........................................................................
.............................. CYCLE   46 ..............................
........................................................................
   1   -353.0968278 -0.353097E+03  0.992E-04    1.11       0.0  T
   2   -353.0968279 -0.124751E-06  0.495E-04    1.11      13.8  T
   3   -353.0968280 -0.568759E-07  0.278E-04    1.11      24.6  T
   4   -353.0968280 -0.277371E-07  0.184E-04    1.11      37.0  T
   5   -353.0968280 -0.113597E-07  0.778E-05    1.11      87.7  T
     SCC iter.                  ...        0 min,  0.807 sec
     gradient                   ...        0 min,  0.589 sec
 * total energy  :  -347.3652448 Eh     change       -0.3843936E-04 Eh
   gradient norm :     0.0043193 Eh/α   predicted    -0.7461129E-04 (  94.10%)
   displ. norm   :     0.1022523 α      lambda       -0.9648574E-04
   maximum displ.:     0.0526670 α      in ANC's #14, #20, #23, ...

........................................................................
.............................. CYCLE   47 ..............................
........................................................................
   1   -353.0985310 -0.353099E+03  0.592E-04    1.11       0.0  T
   2   -353.0985310 -0.241128E-07  0.324E-04    1.11      21.1  T
   3   -353.0985310 -0.983391E-11  0.197E-04    1.11      34.6  T
   4   -353.0985310  0.447756E-09  0.144E-04    1.11      47.5  T
     SCC iter.                  ...        0 min,  0.649 sec
     gradient                   ...        0 min,  0.582 sec
 * total energy  :  -347.3653063 Eh     change       -0.6140772E-04 Eh
   gradient norm :     0.0029875 Eh/α   predicted    -0.4874813E-04 ( -20.62%)
   displ. norm   :     0.1695239 α      lambda       -0.9760301E-04
   maximum displ.:     0.0872465 α      in ANC's #14, #20, #23, ...

........................................................................
.............................. CYCLE   48 ..............................
........................................................................
   1   -353.1006105 -0.353101E+03  0.878E-04    1.11       0.0  T
   2   -353.1006106 -0.581059E-07  0.485E-04    1.11      14.1  T
   3   -353.1006106 -0.169526E-07  0.307E-04    1.11      22.2  T
   4   -353.1006106 -0.327119E-07  0.219E-04    1.11      31.2  T
   5   -353.1006107 -0.199327E-07  0.623E-05    1.11     109.5  T
   6   -353.1006107 -0.147162E-08  0.199E-05    1.11     342.2  T
     SCC iter.                  ...        0 min,  0.973 sec
     gradient                   ...        0 min,  0.585 sec
 * total energy  :  -347.3653438 Eh     change       -0.3752352E-04 Eh
   gradient norm :     0.0028839 Eh/α   predicted    -0.5020445E-04 (  33.79%)
   displ. norm   :     0.1950447 α      lambda       -0.9293101E-04
   maximum displ.:     0.1035407 α      in ANC's #14, #20, #23, ...

........................................................................
.............................. CYCLE   49 ..............................
........................................................................
   1   -353.1015559 -0.353102E+03  0.592E-04    1.11       0.0  T
   2   -353.1015559 -0.355672E-07  0.301E-04    1.11      22.6  T
   3   -353.1015559 -0.192286E-07  0.167E-04    1.11      40.9  T
   4   -353.1015559 -0.126586E-07  0.120E-04    1.11      56.7  T
     SCC iter.                  ...        0 min,  0.646 sec
     gradient                   ...        0 min,  0.586 sec
 * total energy  :  -347.3654127 Eh     change       -0.6894693E-04 Eh
   gradient norm :     0.0022563 Eh/α   predicted    -0.4823748E-04 ( -30.04%)
   displ. norm   :     0.3156559 α      lambda       -0.9695580E-04
   maximum displ.:     0.1677340 α      in ANC's #14, #20, #23, ...

........................................................................
.............................. CYCLE   50 ..............................
........................................................................
   1   -353.1017065 -0.353102E+03  0.752E-04    1.11       0.0  T
   2   -353.1017065 -0.400730E-07  0.387E-04    1.11      17.6  T
   3   -353.1017066 -0.289224E-07  0.244E-04    1.11      27.9  T
   4   -353.1017066 -0.280145E-07  0.149E-04    1.11      45.6  T
   5   -353.1017066 -0.714192E-08  0.549E-05    1.11     124.1  T
     SCC iter.                  ...        0 min,  0.810 sec
     gradient                   ...        0 min,  0.585 sec
 * total energy  :  -347.3654878 Eh     change       -0.7509673E-04 Eh
   gradient norm :     0.0018148 Eh/α   predicted    -0.5330871E-04 ( -29.01%)
   displ. norm   :     0.5766665 α      lambda       -0.8479810E-04
   maximum displ.:     0.3068487 α      in ANC's #14, #20, #23, ...

........................................................................
.............................. CYCLE   51 ..............................
........................................................................
   1   -353.1013402 -0.353101E+03  0.123E-03    1.11       0.0  T
   2   -353.1013403 -0.104202E-06  0.670E-04    1.11      10.2  T
   3   -353.1013404 -0.121509E-06  0.393E-04    1.11      17.4  T
   4   -353.1013405 -0.722439E-07  0.242E-04    1.11      28.2  T
   5   -353.1013405 -0.188284E-07  0.912E-05    1.11      74.8  T
   6   -353.1013405 -0.245211E-08  0.251E-05    1.11     271.5  T
     SCC iter.                  ...        0 min,  0.965 sec
     gradient                   ...        0 min,  0.585 sec
 * total energy  :  -347.3655740 Eh     change       -0.8614409E-04 Eh
   gradient norm :     0.0025830 Eh/α   predicted    -0.4866749E-04 ( -43.50%)
   displ. norm   :     0.2450578 α      lambda       -0.4845349E-04
   maximum displ.:     0.1313679 α      in ANC's #14, #20, #23, ...

........................................................................
.............................. CYCLE   52 ..............................
........................................................................
   1   -353.1019179 -0.353102E+03  0.402E-04    1.11       0.0  T
   2   -353.1019180 -0.146675E-07  0.244E-04    1.11      27.9  T
   3   -353.1019180 -0.167216E-07  0.121E-04    1.11      56.1  T
   4   -353.1019180 -0.389639E-08  0.957E-05    1.11      71.3  T
     SCC iter.                  ...        0 min,  0.647 sec
     gradient                   ...        0 min,  0.585 sec
 * total energy  :  -347.3656154 Eh     change       -0.4146997E-04 Eh
   gradient norm :     0.0022286 Eh/α   predicted    -0.2568357E-04 ( -38.07%)
   displ. norm   :     0.3717301 α      lambda       -0.7909053E-04
   maximum displ.:     0.1980168 α      in ANC's #14, #20, #23, ...

........................................................................
.............................. CYCLE   53 ..............................
........................................................................
   1   -353.1026754 -0.353103E+03  0.902E-04    1.11       0.0  T
   2   -353.1026755 -0.113495E-06  0.387E-04    1.11      17.6  T
   3   -353.1026755 -0.224595E-07  0.201E-04    1.11      33.9  T
   4   -353.1026755 -0.656422E-08  0.161E-04    1.11      42.3  T
   5   -353.1026755 -0.120922E-07  0.474E-05    1.11     143.9  T
     SCC iter.                  ...        0 min,  0.807 sec
     gradient                   ...        0 min,  0.581 sec
 * total energy  :  -347.3656731 Eh     change       -0.5762474E-04 Eh
   gradient norm :     0.0015376 Eh/α   predicted    -0.4501214E-04 ( -21.89%)
   displ. norm   :     0.4534703 α      lambda       -0.4385807E-04
   maximum displ.:     0.2403070 α      in ANC's #14, #23, #20, ...

........................................................................
.............................. CYCLE   54 ..............................
........................................................................
   1   -353.1019984 -0.353102E+03  0.119E-03    1.11       0.0  T
   2   -353.1019986 -0.211349E-06  0.416E-04    1.11      16.4  T
   3   -353.1019987 -0.267608E-07  0.208E-04    1.11      32.9  T
   4   -353.1019987 -0.541922E-08  0.139E-04    1.11      49.2  T
   5   -353.1019987 -0.434159E-08  0.633E-05    1.11     107.8  T
     SCC iter.                  ...        0 min,  0.804 sec
     gradient                   ...        0 min,  0.583 sec
 * total energy  :  -347.3657066 Eh     change       -0.3350596E-04 Eh
   gradient norm :     0.0016352 Eh/α   predicted    -0.2393529E-04 ( -28.56%)
   displ. norm   :     0.1062136 α      lambda       -0.1594033E-04
   maximum displ.:     0.0532336 α      in ANC's #14, #23, #11, ...

........................................................................
.............................. CYCLE   55 ..............................
........................................................................
   1   -353.1020890 -0.353102E+03  0.357E-04    1.11       0.0  T
   2   -353.1020890 -0.142155E-07  0.174E-04    1.11      39.2  T
   3   -353.1020891 -0.580400E-08  0.928E-05    1.11      73.5  T
     SCC iter.                  ...        0 min,  0.487 sec
     gradient                   ...        0 min,  0.583 sec
 * total energy  :  -347.3657223 Eh     change       -0.1577996E-04 Eh
   gradient norm :     0.0012227 Eh/α   predicted    -0.8011493E-05 ( -49.23%)
   displ. norm   :     0.1213433 α      lambda       -0.2277087E-04
   maximum displ.:     0.0561969 α      in ANC's #32, #23, #14, ...

........................................................................
.............................. CYCLE   56 ..............................
........................................................................
   1   -353.1022329 -0.353102E+03  0.623E-04    1.11       0.0  T
   2   -353.1022330 -0.438361E-07  0.339E-04    1.11      20.1  T
   3   -353.1022330 -0.233534E-07  0.172E-04    1.11      39.7  T
   4   -353.1022330 -0.268847E-08  0.138E-04    1.11      49.5  T
     SCC iter.                  ...        0 min,  0.644 sec
     gradient                   ...        0 min,  0.583 sec
 * total energy  :  -347.3657458 Eh     change       -0.2345545E-04 Eh
   gradient norm :     0.0011763 Eh/α   predicted    -0.1146316E-04 ( -51.13%)
   displ. norm   :     0.1538310 α      lambda       -0.1859002E-04
   maximum displ.:     0.0687198 α      in ANC's #32, #23, #14, ...

........................................................................
.............................. CYCLE   57 ..............................
........................................................................
   1   -353.1008745 -0.353101E+03  0.516E-04    1.11       0.0  T
   2   -353.1008745 -0.179400E-07  0.312E-04    1.11      21.9  T
   3   -353.1008745 -0.195591E-07  0.171E-04    1.11      40.0  T
   4   -353.1008745 -0.570446E-08  0.129E-04    1.11      53.0  T
     SCC iter.                  ...        0 min,  0.648 sec
     gradient                   ...        0 min,  0.585 sec
 * total energy  :  -347.3657627 Eh     change       -0.1691024E-04 Eh
   gradient norm :     0.0015014 Eh/α   predicted    -0.9396126E-05 ( -44.44%)
   displ. norm   :     0.1448497 α      lambda       -0.1400043E-04
   maximum displ.:     0.0586847 α      in ANC's #23, #32, #14, ...

........................................................................
.............................. CYCLE   58 ..............................
........................................................................
   1   -353.0995192 -0.353100E+03  0.442E-04    1.11       0.0  T
   2   -353.0995192 -0.141936E-07  0.250E-04    1.11      27.3  T
   3   -353.0995192 -0.863940E-08  0.143E-04    1.11      47.7  T
   4   -353.0995192 -0.364338E-08  0.969E-05    1.11      70.4  T
     SCC iter.                  ...        0 min,  0.646 sec
     gradient                   ...        0 min,  0.582 sec
 * total energy  :  -347.3657768 Eh     change       -0.1407768E-04 Eh
   gradient norm :     0.0012532 Eh/α   predicted    -0.7067552E-05 ( -49.80%)
   displ. norm   :     0.1413019 α      lambda       -0.1294864E-04
   maximum displ.:     0.0591344 α      in ANC's #23, #11, #14, ...

........................................................................
.............................. CYCLE   59 ..............................
........................................................................
   1   -353.0988757 -0.353099E+03  0.523E-04    1.11       0.0  T
   2   -353.0988757 -0.277364E-07  0.248E-04    1.11      27.5  T
   3   -353.0988757 -0.155767E-07  0.140E-04    1.11      48.7  T
   4   -353.0988757 -0.102038E-07  0.859E-05    1.11      79.4  T
     SCC iter.                  ...        0 min,  0.649 sec
     gradient                   ...        0 min,  0.587 sec
 * total energy  :  -347.3657926 Eh     change       -0.1578305E-04 Eh
   gradient norm :     0.0010022 Eh/α   predicted    -0.6533274E-05 ( -58.61%)
   displ. norm   :     0.2419362 α      lambda       -0.2202435E-04
   maximum displ.:     0.1030849 α      in ANC's #23, #11, #14, ...

........................................................................
.............................. CYCLE   60 ..............................
........................................................................
   1   -353.0979653 -0.353098E+03  0.796E-04    1.11       0.0  T
   2   -353.0979654 -0.750873E-07  0.368E-04    1.11      18.6  T
   3   -353.0979654 -0.298085E-07  0.188E-04    1.11      36.2  T
   4   -353.0979654 -0.164375E-07  0.144E-04    1.11      47.3  T
     SCC iter.                  ...        0 min,  0.647 sec
     gradient                   ...        0 min,  0.583 sec
 * total energy  :  -347.3658172 Eh     change       -0.2467095E-04 Eh
   gradient norm :     0.0014662 Eh/α   predicted    -0.1130363E-04 ( -54.18%)
   displ. norm   :     0.2793690 α      lambda       -0.2035782E-04
   maximum displ.:     0.1206708 α      in ANC's #23, #11, #14, ...

........................................................................
.............................. CYCLE   61 ..............................
........................................................................
   1   -353.0979794 -0.353098E+03  0.557E-04    1.11       0.0  T
   2   -353.0979794 -0.436405E-07  0.251E-04    1.11      27.2  T
   3   -353.0979794 -0.765237E-08  0.118E-04    1.11      57.9  T
[...]
   181   7 N    3.400 --   163 C    1.237   166 C    1.206   149 Ni   0.661
   182   6 C    3.988 --   183 C    1.399   189 C    1.393   156 C    1.025
                           186 C    0.102
   183   6 C    3.987 --   184 C    1.414   182 C    1.399   207 H    0.972
                           187 C    0.104
   184   6 C    3.988 --   186 C    1.419   183 C    1.414   185 C    1.020
                           189 C    0.103
   185   6 C    3.995 --   184 C    1.020   208 H    0.984   210 H    0.981
                           209 H    0.971
   186   6 C    3.989 --   184 C    1.419   187 C    1.412   211 H    0.972
                           182 C    0.102
   187   6 C    3.988 --   189 C    1.420   186 C    1.412   188 C    1.020
                           183 C    0.104
   188   6 C    3.995 --   187 C    1.020   213 H    0.984   212 H    0.981
                           214 H    0.971
   189   6 C    3.987 --   187 C    1.420   182 C    1.393   215 H    0.972
                           184 C    0.103
   190   1 H    1.002 --   152 C    0.973
   191   1 H    1.005 --   153 C    0.973
   192   1 H    1.005 --   158 C    0.973
   193   1 H    1.002 --   159 C    0.973
   194   1 H    1.002 --   164 C    0.973
   195   1 H    1.005 --   165 C    0.973
   196   1 H    1.003 --   169 C    0.972
   197   1 H    1.004 --   171 C    0.983
   198   1 H    1.006 --   171 C    0.971
   199   1 H    1.004 --   171 C    0.982
   200   1 H    1.000 --   172 C    0.972
   201   1 H    1.004 --   174 C    0.984
   202   1 H    1.004 --   174 C    0.981
   203   1 H    1.006 --   174 C    0.971
   204   1 H    1.003 --   175 C    0.972
   205   1 H    1.005 --   177 C    0.973
   206   1 H    1.002 --   178 C    0.973
   207   1 H    1.003 --   183 C    0.972
   208   1 H    1.004 --   185 C    0.984
   209   1 H    1.006 --   185 C    0.971
   210   1 H    1.004 --   185 C    0.981
   211   1 H    1.000 --   186 C    0.972
   212   1 H    1.004 --   188 C    0.981
   213   1 H    1.004 --   188 C    0.984
   214   1 H    1.006 --   188 C    0.971
   215   1 H    1.003 --   189 C    0.972
 ---------------------------------------------------------------------------

Topologies differ in total number of bonds
Writing topology from bond orders to xtbtopo.mol

 dipole moment from electron density (au)
     X       Y       Z   
   0.0506  -0.0344   0.0254  total (Debye):    0.168

           -------------------------------------------------
          |                Geometry Summary                 |
           -------------------------------------------------

      molecular mass/u    :     1866.0840479
   center of mass at/Å    :       44.4075801      -0.0011575      -0.0383190
  moments of inertia/u·Å² :        0.3613724E+05   0.3183178E+06   0.3377231E+06
rotational constants/cm⁻¹ :        0.4664891E-03   0.5295849E-04   0.4991554E-04

 * 206 selected distances

     #   Z          #   Z                                           value/Å
     2   6 C        3   6 C                                       1.3795601
     3   6 C        4   6 C                                       1.4308823
     4   6 C        5   6 C                                       1.3536346
     5   6 C        6   6 C                                       1.4336575
     3   6 C        7   7 N                                       1.3720596
     6   6 C        7   7 N                                       1.3730860
     6   6 C        8   6 C                                       1.3886075
     8   6 C        9   6 C                                       1.3884922
     9   6 C       10   6 C                                       1.4313856
    10   6 C       11   6 C                                       1.3546328
     9   6 C       12   7 N                                       1.3766006
    11   6 C       13   6 C                                       1.4281166
    12   7 N       13   6 C                                       1.3677639
    13   6 C       14   6 C                                       1.3977361
    14   6 C       15   6 C                                       1.3978516
    15   6 C       16   6 C                                       1.4280941
    16   6 C       17   6 C                                       1.3545615
    17   6 C       18   6 C                                       1.4315955
    18   6 C       19   6 C                                       1.3878516
    20   6 C       21   6 C                                       1.3928756
    21   6 C       22   6 C                                       1.3918391
    22   6 C       24   6 C                                       1.3904963
    24   6 C       25   6 C                                       1.3929046
    20   6 C       27   6 C                                       1.3944708
    25   6 C       27   6 C                                       1.3898120
    19   6 C       28   6 C                                       1.3885953
    28   6 C       29   6 C                                       1.4335804
    29   6 C       30   6 C                                       1.3534930
     2   6 C       31   6 C                                       1.3793138
    30   6 C       31   6 C                                       1.4310892
    28   6 C       32   7 N                                       1.3727128
    31   6 C       32   7 N                                       1.3724374
    15   6 C       33   7 N                                       1.3672763
    18   6 C       33   7 N                                       1.3771417
    34   6 C       35   6 C                                       1.3941678
    35   6 C       36   6 C                                       1.3905942
    36   6 C       38   6 C                                       1.3918761
    38   6 C       39   6 C                                       1.3915490
    34   6 C       41   6 C                                       1.3938893
    39   6 C       41   6 C                                       1.3908858
     2   6 C       42   1 H                                       1.0838476
     4   6 C       43   1 H                                       1.0784656
     5   6 C       44   1 H                                       1.0778640
    10   6 C       45   1 H                                       1.0777192
    11   6 C       46   1 H                                       1.0780371
    16   6 C       47   1 H                                       1.0780706
    17   6 C       48   1 H                                       1.0777320
    21   6 C       49   1 H                                       1.0845207
    23   6 C       50   1 H                                       1.0900190
    23   6 C       51   1 H                                       1.0924248
    23   6 C       52   1 H                                       1.0903785
    24   6 C       53   1 H                                       1.0852116
    26   6 C       54   1 H                                       1.0898265
    26   6 C       55   1 H                                       1.0908731
    26   6 C       56   1 H                                       1.0921015
    27   6 C       57   1 H                                       1.0844846
    29   6 C       58   1 H                                       1.0778682
    30   6 C       59   1 H                                       1.0784605
    35   6 C       60   1 H                                       1.0845148
    37   6 C       61   1 H                                       1.0903654
    37   6 C       62   1 H                                       1.0900588
    37   6 C       63   1 H                                       1.0924106
    38   6 C       64   1 H                                       1.0852023
    40   6 C       65   1 H                                       1.0924219
    40   6 C       66   1 H                                       1.0902410
    40   6 C       67   1 H                                       1.0901441
    41   6 C       68   1 H                                       1.0845208
    70   6 C       71   6 C                                       1.3794416
    71   6 C       72   6 C                                       1.4309524
    72   6 C       73   6 C                                       1.3535360
    73   6 C       74   6 C                                       1.4336936 (max)
    71   6 C       75   7 N                                       1.3721162
    74   6 C       75   7 N                                       1.3730783
    74   6 C       76   6 C                                       1.3884423
    76   6 C       77   6 C                                       1.3884107
    77   6 C       78   6 C                                       1.4315603
    78   6 C       79   6 C                                       1.3543923
    77   6 C       80   7 N                                       1.3764535
    79   6 C       81   6 C                                       1.4283238
    80   7 N       81   6 C                                       1.3681254
    81   6 C       82   6 C                                       1.3969189
    82   6 C       83   6 C                                       1.3968440
    83   6 C       84   6 C                                       1.4283159
    84   6 C       85   6 C                                       1.3543641
    85   6 C       86   6 C                                       1.4317400
    86   6 C       87   6 C                                       1.3878301
    88   6 C       89   6 C                                       1.3928707
    89   6 C       90   6 C                                       1.3918272
    90   6 C       92   6 C                                       1.3905235
    92   6 C       93   6 C                                       1.3928661
    88   6 C       95   6 C                                       1.3944505
    93   6 C       95   6 C                                       1.3898548
    87   6 C       96   6 C                                       1.3883613
    96   6 C       97   6 C                                       1.4336285
    97   6 C       98   6 C                                       1.3534114
    70   6 C       99   6 C                                       1.3792379
    98   6 C       99   6 C                                       1.4311439
    96   6 C      100   7 N                                       1.3728080
    99   6 C      100   7 N                                       1.3724151
    83   6 C      101   7 N                                       1.3676880
    86   6 C      101   7 N                                       1.3768014
   102   6 C      103   6 C                                       1.3941568
   103   6 C      104   6 C                                       1.3905848
   104   6 C      106   6 C                                       1.3918922
   106   6 C      107   6 C                                       1.3915075
   102   6 C      109   6 C                                       1.3938356
   107   6 C      109   6 C                                       1.3909525
    70   6 C      110   1 H                                       1.0838523
    72   6 C      111   1 H                                       1.0784663
    73   6 C      112   1 H                                       1.0778725
    78   6 C      113   1 H                                       1.0777100 (min)
    79   6 C      114   1 H                                       1.0780289
    84   6 C      115   1 H                                       1.0780788
    85   6 C      116   1 H                                       1.0777363
    89   6 C      117   1 H                                       1.0845219
    91   6 C      118   1 H                                       1.0900316
    91   6 C      119   1 H                                       1.0924234
    91   6 C      120   1 H                                       1.0903739
    92   6 C      121   1 H                                       1.0852138
    94   6 C      122   1 H                                       1.0898315
    94   6 C      123   1 H                                       1.0908424
    94   6 C      124   1 H                                       1.0921241
    95   6 C      125   1 H                                       1.0844879
    97   6 C      126   1 H                                       1.0778799
    98   6 C      127   1 H                                       1.0784625
   103   6 C      128   1 H                                       1.0845153
   105   6 C      129   1 H                                       1.0903688
   105   6 C      130   1 H                                       1.0900513
   105   6 C      131   1 H                                       1.0924113
   106   6 C      132   1 H                                       1.0852045
   108   6 C      133   1 H                                       1.0924265
   108   6 C      134   1 H                                       1.0902358
   108   6 C      135   1 H                                       1.0901568
   109   6 C      136   1 H                                       1.0845241
   137   6 C      138   6 C                                       1.2280174
   139   6 C      140   6 C                                       1.2235076
   141   6 C      142   6 C                                       1.2236283
   143   6 C      144   6 C                                       1.2273750
   145   6 C      146   6 C                                       1.2230063
   147   6 C      148   6 C                                       1.2228535
   150   6 C      151   6 C                                       1.3984185
   151   6 C      152   6 C                                       1.4278798
   152   6 C      153   6 C                                       1.3553975
   153   6 C      154   6 C                                       1.4308086
   151   6 C      155   7 N                                       1.3675583
   154   6 C      155   7 N                                       1.3765259
   154   6 C      156   6 C                                       1.3885828
   156   6 C      157   6 C                                       1.3884874
   157   6 C      158   6 C                                       1.4310178
   158   6 C      159   6 C                                       1.3552403
   157   6 C      160   7 N                                       1.3766486
   159   6 C      161   6 C                                       1.4279588
   160   7 N      161   6 C                                       1.3676619
   161   6 C      162   6 C                                       1.3977410
   162   6 C      163   6 C                                       1.3975689
   163   6 C      164   6 C                                       1.4279533
   164   6 C      165   6 C                                       1.3552944
   165   6 C      166   6 C                                       1.4309872
   166   6 C      167   6 C                                       1.3887990
   168   6 C      169   6 C                                       1.3938170
   169   6 C      170   6 C                                       1.3911066
   170   6 C      172   6 C                                       1.3912956
   172   6 C      173   6 C                                       1.3921508
   168   6 C      175   6 C                                       1.3945075
   173   6 C      175   6 C                                       1.3902899
   167   6 C      176   6 C                                       1.3884850
   176   6 C      177   6 C                                       1.4309284
   177   6 C      178   6 C                                       1.3554027
   150   6 C      179   6 C                                       1.3984441
   178   6 C      179   6 C                                       1.4277597
   176   6 C      180   7 N                                       1.3768922
   179   6 C      180   7 N                                       1.3674080
   163   6 C      181   7 N                                       1.3679246
   166   6 C      181   7 N                                       1.3762956
   182   6 C      183   6 C                                       1.3935669
   183   6 C      184   6 C                                       1.3913989
   184   6 C      186   6 C                                       1.3910024
   186   6 C      187   6 C                                       1.3923624
   182   6 C      189   6 C                                       1.3946044
   187   6 C      189   6 C                                       1.3901656
   152   6 C      190   1 H                                       1.0780736
   153   6 C      191   1 H                                       1.0777818
   158   6 C      192   1 H                                       1.0777499
   159   6 C      193   1 H                                       1.0780711
   164   6 C      194   1 H                                       1.0780914
   165   6 C      195   1 H                                       1.0777737
   169   6 C      196   1 H                                       1.0845119
   171   6 C      197   1 H                                       1.0901390
   171   6 C      198   1 H                                       1.0924409
   171   6 C      199   1 H                                       1.0902187
   172   6 C      200   1 H                                       1.0851948
   174   6 C      201   1 H                                       1.0900044
   174   6 C      202   1 H                                       1.0903779
   174   6 C      203   1 H                                       1.0924059
   175   6 C      204   1 H                                       1.0845100
   177   6 C      205   1 H                                       1.0777536
   178   6 C      206   1 H                                       1.0780847
   183   6 C      207   1 H                                       1.0845229
   185   6 C      208   1 H                                       1.0900108
   185   6 C      209   1 H                                       1.0923960
   185   6 C      210   1 H                                       1.0903730
   186   6 C      211   1 H                                       1.0851881
   188   6 C      212   1 H                                       1.0903725
   188   6 C      213   1 H                                       1.0900155
   188   6 C      214   1 H                                       1.0924133
   189   6 C      215   1 H                                       1.0845047

 * 3 distinct bonds (by element types)

   Z      Z             #   av. dist./Å        max./Å        min./Å
   1 H    6 C          80     1.0854825     1.0924409     1.0777100
   6 C    6 C         102     1.3863899     1.4336936     1.2228535
   6 C    7 N          24     1.3723116     1.3771417     1.3672763


optimized geometry written to: xtbopt.xyz


           -------------------------------------------------
          | TOTAL ENERGY             -347.365949482928 Eh   |
          | GRADIENT NORM               0.000360993989 Eh/α |
          | HOMO-LUMO GAP               1.104147805188 eV   |
           -------------------------------------------------

------------------------------------------------------------------------
 * finished run on 2022/07/30 at 05:06:19.534     
------------------------------------------------------------------------
 total:
 * wall-time:     0 d,  0 h,  2 min, 31.880 sec
 *  cpu-time:     0 d,  0 h,  2 min, 31.190 sec
 * ratio c/w:     0.995 speedup
 SCF:
 * wall-time:     0 d,  0 h,  0 min,  9.476 sec
 *  cpu-time:     0 d,  0 h,  0 min,  9.427 sec
 * ratio c/w:     0.995 speedup
 ANC optimizer:
 * wall-time:     0 d,  0 h,  2 min, 22.158 sec
 *  cpu-time:     0 d,  0 h,  2 min, 21.521 sec
 * ratio c/w:     0.996 speedup

