294
 energy: -480.954546758226 gnorm: 0.000957703196 xtb: 6.5.1 (b24c23e)
Cu          38.70387756871416        0.04176317228444       -0.09856499515371
C           35.30295024726635        0.14903434027899       -0.28028597137046
C           35.94721519942349        1.32756504003437        0.06475057906923
C           35.28216262391205        2.55928811118161        0.37994185337376
C           36.24698205100360        3.46262528884565        0.68363926182239
C           37.51170864587785        2.79311058428017        0.54606136270269
N           37.29803596053147        1.49619836003724        0.17657619558951
C           38.75872464299893        3.37731165914566        0.77907177767670
C           39.98428913793857        2.71846542363107        0.67341025766670
C           41.26643887378445        3.33661636931696        0.85853941195522
C           42.20464799794837        2.37844833078144        0.64951003121289
N           40.16263652666584        1.39945059923936        0.34710632564436
C           41.50382165307854        1.17069240173650        0.33145364452432
C           42.12965660405065       -0.05529610566300        0.04249657992839
C           41.46043030880053       -1.24932839677873       -0.28005356072387
C           42.11762791528170       -2.48568616122945       -0.58059260415453
C           41.14627875102723       -3.39433651884681       -0.85057924139166
C           39.88717741610101       -2.71909895838123       -0.71209545025285
C           38.63970000202634       -3.30496185659649       -0.93137274507345
C           38.60975623227436       -4.74919929956602       -1.27737157529584
C           38.12424402819134       -5.16698049797537       -2.51456139956901
C           38.08887460997313       -6.51974554579167       -2.84003889982204
C           37.54664665787221       -6.95992710089286       -4.17313828848288
C           38.53855810500924       -7.45506026242594       -1.91452330055769
C           39.02558951557501       -7.05308127175621       -0.67311936087257
C           39.52060221837917       -8.07864628411539        0.31070651995411
C           39.06181306294139       -5.69913748217118       -0.36156173011208
C           37.41519829887797       -2.63796399844021       -0.85004961881263
C           36.12772868410852       -3.24697816893924       -1.04592318679037
C           35.19642867670985       -2.27698505735658       -0.87018241122267
C           35.90482946696934       -1.06975429368983       -0.55477117688439
N           37.24811845602343       -1.31718794312579       -0.54697677089272
N           40.11230618240788       -1.41166527650339       -0.36851392689209
C           38.78066904071318        4.81055438438517        1.16873358904885
C           38.31953722445821        5.78675850378223        0.28675589033146
C           38.33303678438170        7.12919482684641        0.64945621675863
C           37.85821662999985        8.18291158018075       -0.31440293370557
C           38.80887227532353        7.49134313828829        1.90633473188432
C           39.27207200242920        6.52850515964302        2.79780558859252
C           39.76004141801528        6.92884083023643        4.16394363699054
C           39.25774462205268        5.18924937080759        2.42242951780657
H           34.21923098851520        0.18027134560865       -0.32701370800735
H           34.21251572263053        2.69868690481951        0.37344536137685
H           36.12078153190677        4.49016468908309        0.98474087029746
H           41.42383410201158        4.37447776349185        1.10386570283949
H           43.27766448084795        2.47244662363104        0.69970455011988
H           43.18637817785178       -2.62889077890223       -0.58640948703509
H           41.26705060092795       -4.42795089154867       -1.13195110782121
H           37.78675372985290       -4.42781524647351       -3.23292175482026
H           37.90699703976971       -7.95559517301039       -4.43169323927388
H           36.45519529991233       -6.98971878076141       -4.13819070536576
H           37.83989413436056       -6.26290572712844       -4.95879244374707
H           38.51021851876793       -8.51149408297685       -2.16115652142889
H           39.60561033900849       -7.65194095822445        1.30999875430696
H           38.84411165123203       -8.93335989039237        0.34870232533905
H           40.50515493544450       -8.44122624259603        0.00720669607848
H           39.42710299655168       -5.37353998093786        0.60631143561173
H           35.96420643689030       -4.28715639082337       -1.27761336873277
H           34.12295808277942       -2.35942812756711       -0.93721739444504
H           37.96222633061493        5.49291671684331       -0.69419672235218
H           37.37123302161768        9.00170355553252        0.21601742587582
H           37.15743533034040        7.76304562538934       -1.03612632062192
H           38.70839139015132        8.59362700299822       -0.86384809332026
H           38.81856955455889        8.53757350942415        2.19442610074310
H           38.92220773669964        6.95218253682760        4.86466243499667
H           40.20939447660788        7.92188438150617        4.14020508099049
H           40.49558749680474        6.21659645658362        4.53821118762669
H           39.60446125629883        4.42820013826606        3.11298613890460
Cu          94.53716611989910        0.04493109906987       -0.07322144260173
C           97.93708604084379        0.19919253129327       -0.25301590768678
C           97.28688916950524       -0.46702986508091       -1.28084488411641
C           97.94523292501027       -1.11599594685917       -2.37825948649273
C           96.97598191801592       -1.66651763613191       -3.15063953089293
C           95.71509132974538       -1.34927679143649       -2.53715907530004
N           95.93553402339828       -0.62649324610966       -1.40005571625313
C           94.46550322767064       -1.74280995432554       -3.02095332528262
C           93.24353763667027       -1.45927386474334       -2.40950665730182
C           91.95861375669224       -1.81664945704803       -2.94039619263524
C           91.02500179975347       -1.34597349464368       -2.07517055050830
N           93.07137370901347       -0.77211668781862       -1.23656458947599
C           91.73118771281396       -0.69548213947677       -1.01243306154022
C           91.11118773959907       -0.06784766670585        0.08257896847483
C           91.78643999726516        0.58222973710383        1.13042555318767
C           91.13634073572517        1.21939470718841        2.23607977978237
C           92.11279020762404        1.73317653671647        3.02630722183392
C           93.36799289701058        1.41055015040934        2.40900926966182
C           94.61843284275415        1.78649528843751        2.90159211811954
C           94.65444895509496        2.52299215775735        4.19119891564322
C           95.12781017379268        3.83216363169522        4.24237753452723
C           95.16455147618321        4.52365355891497        5.44972439796491
C           95.69056865212671        5.93297638773800        5.49509145567438
C           94.73024456983089        3.89219186411955        6.61004745284695
C           94.25685257772385        2.58280425481820        6.57527946393007
C           93.77849690410775        1.91958571672561        7.83861440032494
C           94.21770658526835        1.90485787554370        5.36269059382161
C           95.83917635213562        1.52382845263060        2.27624920998006
C           97.12925050115631        1.88826598511319        2.79571153101681
C           98.05548331300169        1.44973731600260        1.90755574002924
C           97.34142709205418        0.80408298362091        0.84350522040202
N           95.99976998167622        0.86136657387842        1.09322461744670
N           93.13559993270601        0.71329722545609        1.25258494951341
C           94.43539562001259       -2.52137071192289       -4.28562023267664
C           94.88260299878550       -1.94845480554006       -5.47526384745054
C           94.85804380433794       -2.67406354953431       -6.66129583376730
C           95.31611720273017       -2.04370116032516       -7.94876842667364
C           94.38580763871175       -3.98336646855002       -6.65020050167884
C           93.93751473444968       -4.56945842430668       -5.47046027260124
C           93.45343498787484       -5.99435022260087       -5.46462154951179
C           93.96242171172251       -3.83241781957394       -4.29110061764091
H           99.02029654457009        0.23915791283984       -0.30469416630907
H           99.01386397944238       -1.14569685974240       -2.52244703255808
H           97.09680123868290       -2.24612958736822       -4.05169295671158
H           91.79624090601251       -2.34779056407040       -3.86431674248669
H           89.95171534069360       -1.42381423625971       -2.14376675936716
H           90.06847087738714        1.26521530771190        2.37869121901309
H           91.99813948309803        2.29311376154957        3.94033176337389
H           95.45386242640517        4.31812124207210        3.32922822943451
H           95.32685732222440        6.45700973833447        6.37893094595694
H           96.78233928389747        5.92084443705506        5.52992789228578
H           95.38769778968043        6.48715187264958        4.60613788009118
H           94.75973874109195        4.42515364059139        7.55490283106677
H           93.70643705798864        0.83976758426991        7.70934832522219
H           94.45768557170852        2.13112995185637        8.66538625511057
H           92.79067420773023        2.29980591837142        8.10800230859492
H           93.86159513184913        0.88121318905277        5.32323751150580
H           97.29755128141950        2.40483539541948        3.72697891630416
H           99.12905175660097        1.54142488841073        1.95947099431482
H           95.23711465217829       -0.92346932324250       -5.47302108932786
H           95.79817415099829       -2.78119152846793       -8.59113124459644
H           96.01640855185317       -1.23070194311151       -7.75670123155453
H           94.45827397432869       -1.63464795822709       -8.48744578585213
H           94.36703526849385       -4.55383444449258       -7.57317368559196
H           94.29461612147341       -6.67089088194930       -5.29665882300531
H           92.99612859270684       -6.25313856273029       -6.41986417482412
H           92.72545323762068       -6.15423300724126       -4.66907540286236
H           93.62680700018403       -4.28191103393239       -3.36287989025430
C           43.53453287879992       -0.08594082560239        0.06937836167675
C           44.75891363897360       -0.10416791589831        0.08427508014887
C           46.10166244295806       -0.11427449283570        0.09549005898320
C           47.33241284936765       -0.12391778248533        0.09649011444139
C           48.67035385175587       -0.12723785460795        0.09235734684964
C           49.90115020295519       -0.12256052264636        0.08502280874719
C           51.24361150223424       -0.11775653949773        0.07152856912194
C           52.46832185279235       -0.11263390485867        0.05319512426209
C           62.15049172415127       -0.04913593369875       -0.06106352663104
C           63.37544099392687       -0.04253655837699       -0.06804639795740
C           64.71778507733657       -0.03484648959286       -0.07063527008508
C           65.94885879948067       -0.03006007649650       -0.06917843151145
C           67.28655051797755       -0.02858069308028       -0.06727527713765
C           68.51763305900813       -0.02942414302372       -0.06087380550335
C           69.86001183782797       -0.03185188733340       -0.05218337983753
C           71.08495371524911       -0.03548166894303       -0.04224983871358
C           80.77000248145899       -0.07742134892556        0.11792212912030
C           81.99446072368039       -0.08226271788928        0.13619333273837
C           83.33781244292534       -0.08683280307133        0.15080885146378
C           84.56835109279912       -0.08747482919878        0.16283628886718
C           85.90718971096307       -0.09364889522784        0.16287853660406
C           87.13772580992857       -0.09350174948454        0.16461912231989
C           88.48130617250244       -0.08791160373076        0.14661001342425
C           89.70544319081688       -0.08278622752391        0.12590850755103
Cu          57.30908295895945       -0.08241513973854       -0.01794119379716
C           53.87273687933467       -0.10384379078831        0.03269441488616
C           54.51235104650801        1.14236785091883       -0.09935830604121
C           53.82701966650851        2.39768979393309       -0.16693338485925
C           54.77587484364271        3.35844822303100       -0.30694045555812
C           56.04725951032679        2.69346379890523       -0.33352581729811
N           55.85396046401528        1.34427052789414       -0.19705974857408
C           57.28136037514361        3.33349637358057       -0.46256965650498
C           58.52607939066984        2.70237328456937       -0.42123517139609
C           59.78730908667789        3.35929684507623       -0.61369312788310
C           60.75195548168882        2.41131512383085       -0.49601580489425
N           58.74117695399973        1.36696528808306       -0.20465211998083
C           60.08646767871299        1.16956498026369       -0.24113368412505
C           60.74613110510839       -0.05866782169138       -0.05103780820187
C           60.10686462028546       -1.29638769086233        0.14689574336943
C           60.79391333396495       -2.53016541203487        0.38257492773990
C           59.84481764821704       -3.49249487216169        0.50967503922307
C           58.57136359373026       -2.85191640637366        0.34474698013066
C           57.33658753313413       -3.50069732415317        0.40767823354704
C           57.35082601354122       -4.97482448666292        0.58585879908912
C           56.78629441136572       -5.55255994292384        1.72139696860086
C           56.79984138323508       -6.93331615261327        1.89274013027693
C           56.21015837773294       -7.54679200707638        3.13396484630007
C           57.38049606685686       -7.73566499970250        0.91604768299958
C           57.94515077067543       -7.17360813807168       -0.22595648022875
C           58.58067326356894       -8.05471228814193       -1.26731562775152
C           57.93043238726319       -5.79267864718827       -0.38387904542902
C           56.09133031743280       -2.87604822257958        0.31667365960501
C           54.82794407291587       -3.55661904228843        0.32204971882321
C           53.86364653491786       -2.60661103584889        0.21911022334584
C           54.53127817652019       -1.34241861512495        0.14098144812680
N           55.87756478698381       -1.52830664861493        0.19661381566967
N           58.76394383837914       -1.51232112777174        0.13324767662276
C           57.26948262601436        4.80534012621987       -0.65914342346466
C           57.85720479111578        5.64557054020286        0.28489924229912
C           57.84573490120247        7.02525043535571        0.10730310592042
C           58.49448158377214        7.92433251997301        1.12488188345285
C           57.24694094421593        7.56136533844368       -1.02836724416520
C           56.65683554985269        6.73526324988719       -1.98083260020717
C           56.03035195740790        7.32640374104055       -3.21482145224614
C           56.66940796117117        5.35804824640153       -1.78993214125152
H           52.75734047536216        2.51933191095020       -0.10602830167933
H           54.63242339235480        4.42479358209669       -0.37310341692069
H           59.91414320993216        4.40876154562980       -0.82478103073734
H           61.82015581065669        2.53133218459912       -0.58128602289487
H           61.86499008514684       -2.63576095263148        0.44852873478844
H           59.98983589747697       -4.54148672578722        0.71119788521991
H           56.34682115559156       -4.91607345691608        2.48166650821524
H           55.89132574520096       -8.57241698570273        2.94753273731757
H           56.95695329225998       -7.56173117482086        3.93114165855548
H           55.35443115553210       -6.96836299552278        3.48312446811554
H           57.39118951424779       -8.81332766294421        1.04331757110452
H           58.67088456508100       -7.53116761450388       -2.21902406645107
H           57.99298531677120       -8.96104308009700       -1.41714951670284
H           59.58099633802704       -8.35062282384336       -0.94327477347713
H           58.35483641790332       -5.34306174110382       -1.27492004958088
H           54.69948674170345       -4.62515893279486        0.38337067953078
H           52.79413686112429       -2.74087702264974        0.18962367128438
H           58.30897221453059        5.21665453924533        1.17270054812233
H           58.03224738656075        8.91158815873020        1.12319773600752
H           59.55476369076131        8.04447270052723        0.89068546769309
H           58.41524347648754        7.49834703785599        2.12533336520491
H           57.23636239156500        8.63694716675592       -1.17211901960339
H           55.57610442414874        8.29268009206443       -2.99394765498936
H           55.26765381396466        6.66170285494352       -3.62069103661116
H           56.79326595633437        7.47814374051222       -3.98186242495738
H           56.22262204370737        4.70313736768100       -2.53001058964007
Cu          75.92729651455097       -0.05760486779233        0.02421954374445
C           72.48935641406206       -0.04171618494652       -0.02662336301660
C           73.14666855261164        1.19668362498320       -0.14440236751613
C           72.47764249067998        2.45909619550064       -0.23778590547278
C           73.44093248927301        3.40900433374811       -0.35018097857577
C           74.70528241491408        2.73026548294679       -0.33274495370032
N           74.49290862450469        1.38372121282263       -0.19898443266076
C           75.94969985927690        3.35704213173362       -0.42119569110211
C           77.18597516807901        2.71375686759569       -0.33627532636807
C           78.45953252969446        3.35841102109265       -0.48509902314426
C           79.41015977894031        2.40059923460509       -0.33805408930141
N           77.38027890025333        1.37606334772331       -0.11536658697280
C           78.72426265136964        1.16465304622789       -0.10946246808584
C           79.36462669766745       -0.07151973630183        0.09142636348821
C           78.70676606460817       -1.30292163003373        0.26310611189883
C           79.37312206720614       -2.54606056742644        0.50953598899835
C           78.40992893938845       -3.49758663912982        0.60815240005669
C           77.14856948508978       -2.84116521107210        0.41441248947734
C           75.90503636201868       -3.47536862627508        0.44486573753035
C           75.89620179907446       -4.94958155235837        0.62330514810554
C           75.29852953142267       -5.51840363815128        1.74627976780172
C           75.28679409705958       -6.89916459458770        1.91745186114519
C           74.65992313986767       -7.50261613257221        3.14527148663979
C           75.87574140038571       -7.71040940682676        0.95313376020274
C           76.47387692829977       -7.15713067351736       -0.17600367493071
C           77.11823116028543       -8.04728862044856       -1.20414348959796
C           76.48426693891508       -5.77605729444616       -0.33373793721207
C           74.66962136926192       -2.83701813329488        0.32201544772437
C           73.39922976521041       -3.50399670323991        0.29444184552275
C           72.44833521386164       -2.54384689110284        0.16490300739557
C           73.13140029835591       -1.28700153589238        0.10328973704310
N           74.47359616654036       -1.48721250608297        0.19524405173536
N           77.36196109974489       -1.50325808173882        0.21372833416708
C           75.95804019135264        4.82780295947086       -0.62597971865840
C           76.51896795006346        5.67027806476144        0.33211749904778
C           76.52409129775108        7.04873525665713        0.14442392213483
C           77.14405504015448        7.95043079980735        1.17751961960145
C           75.96875336500658        7.58111322862437       -1.01484375331450
C           75.40575162739870        6.75258038684060       -1.98149434686188
C           74.82557953453052        7.33882282075112       -3.24019030354024
C           75.40189316617248        5.37678820662597       -1.78081605341672
H           71.40790257960732        2.59231616435885       -0.21230222083444
H           73.31133276866782        4.47660522312212       -0.42409335405952
H           78.60371538582289        4.40712067820720       -0.68864071236751
H           80.48174162875698        2.50999462934509       -0.38785459011832
H           80.44091345747665       -2.66461649608293        0.60178188884493
H           78.53739609945889       -4.54927862149249        0.80751815552457
H           74.85210257265051       -4.87510118971004        2.49669861498464
H           74.33753624653568       -8.52637593521779        2.95489889942802
H           75.38532401574707       -7.51989116761108        3.96190098026943
H           73.80014722162272       -6.91559983742620        3.46934559655198
H           75.86631845618658       -8.78814086250052        1.07984876325719
H           77.21601590241073       -7.53203236830310       -2.15965656789201
H           76.53255554391721       -8.95537633173018       -1.35077073298168
H           78.11623408055962       -8.33919115059014       -0.86939467130630
H           76.93472001941393       -5.33311304929683       -1.21528491849973
H           73.25760649821368       -4.57101358619918        0.35306552364427
H           71.37865879009168       -2.66682268846487        0.10656911736977
H           76.93610416816395        5.24458063775941        1.23822768027987
H           76.69312288922141        8.94249831768519        1.14951449077531
H           78.21364252611887        8.05697185058510        0.98230040500749
H           77.02266416981502        7.53480807485258        2.17811161367240
H           75.97089515598985        8.65571240525530       -1.16607844713749
H           74.37154307442192        8.31008665305481       -3.04197720754021
H           74.07180512807528        6.67654608955431       -3.66623088276294
H           75.61477970868725        7.47881781626254       -3.98245476998237
H           74.97614727026111        4.71969002114508       -2.53128780660389
