      -----------------------------------------------------------      
     |                   =====================                   |     
     |                           x T B                           |     
     |                   =====================                   |     
     |                         S. Grimme                         |     
     |          Mulliken Center for Theoretical Chemistry        |     
     |                    University of Bonn                     |     
      -----------------------------------------------------------      

   * xtb version 6.5.1 (b24c23e) compiled by 'conda@728c89f4b128' on 2022-07-12

   xtb is free software: you can redistribute it and/or modify it under
   the terms of the GNU Lesser General Public License as published by
   the Free Software Foundation, either version 3 of the License, or
   (at your option) any later version.
   
   xtb is distributed in the hope that it will be useful,
   but WITHOUT ANY WARRANTY; without even the implied warranty of
   MERCHANTABILITY or FITNESS FOR A PARTICULAR PURPOSE.  See the
   GNU Lesser General Public License for more details.
   
   Cite this work as:
   * C. Bannwarth, E. Caldeweyher, S. Ehlert, A. Hansen, P. Pracht,
     J. Seibert, S. Spicher, S. Grimme, WIREs Comput. Mol. Sci., 2020, 11,
     e01493. DOI: 10.1002/wcms.1493
   
   for GFN2-xTB:
   * C. Bannwarth, S. Ehlert and S. Grimme., J. Chem. Theory Comput., 2019,
     15, 1652-1671. DOI: 10.1021/acs.jctc.8b01176
   for GFN1-xTB:
   * S. Grimme, C. Bannwarth, P. Shushkov, J. Chem. Theory Comput., 2017,
     13, 1989-2009. DOI: 10.1021/acs.jctc.7b00118
   for GFN0-xTB:
   * P. Pracht, E. Caldeweyher, S. Ehlert, S. Grimme, ChemRxiv, 2019, preprint.
     DOI: 10.26434/chemrxiv.8326202.v1
   for GFN-FF:
   * S. Spicher and S. Grimme, Angew. Chem. Int. Ed., 2020, 59, 15665-15673.
     DOI: 10.1002/anie.202004239
   
   for ALPB and GBSA implicit solvation:
   * S. Ehlert, M. Stahn, S. Spicher, S. Grimme, J. Chem. Theory Comput.,
     2021, 17, 4250-4261. DOI: 10.1021/acs.jctc.1c00471
   
   for DFT-D4:
   * E. Caldeweyher, C. Bannwarth and S. Grimme, J. Chem. Phys., 2017,
     147, 034112. DOI: 10.1063/1.4993215
   * E. Caldeweyher, S. Ehlert, A. Hansen, H. Neugebauer, S. Spicher,
     C. Bannwarth and S. Grimme, J. Chem. Phys., 2019, 150, 154122.
     DOI: 10.1063/1.5090222
   * E. Caldeweyher, J.-M. Mewes, S. Ehlert and S. Grimme, Phys. Chem. Chem. Phys.
     2020, 22, 8499-8512. DOI: 10.1039/D0CP00502A
   
   for sTDA-xTB:
   * S. Grimme and C. Bannwarth, J. Chem. Phys., 2016, 145, 054103.
     DOI: 10.1063/1.4959605
   
   in the mass-spec context:
   * V. Asgeirsson, C. Bauer and S. Grimme, Chem. Sci., 2017, 8, 4879.
     DOI: 10.1039/c7sc00601b
   * J. Koopman and S. Grimme, ACS Omega 2019, 4, 12, 15120-15133.
     DOI: 10.1021/acsomega.9b02011
   
   for metadynamics refer to:
   * S. Grimme, J. Chem. Theory Comput., 2019, 155, 2847-2862
     DOI: 10.1021/acs.jctc.9b00143
   
   for SPH calculations refer to:
   * S. Spicher and S. Grimme, J. Chem. Theory Comput., 2021, 17, 1701-1714
     DOI: 10.1021/acs.jctc.0c01306
   
   with help from (in alphabetical order)
   P. Atkinson, C. Bannwarth, F. Bohle, G. Brandenburg, E. Caldeweyher
   M. Checinski, S. Dohm, S. Ehlert, S. Ehrlich, I. Gerasimov, C. Hölzer
   A. Katbashev, J. Koopman, C. Lavigne, S. Lehtola, F. März, M. Müller,
   F. Musil, H. Neugebauer, J. Pisarek, C. Plett, P. Pracht, F. Pultar,
   J. Seibert, P. Shushkov, S. Spicher, M. Stahn, M. Steiner, T. Strunk,
   J. Stückrath, T. Rose, and J. Unsleber
   
 * started run on 2022/07/31 at 02:44:47.159     

           -------------------------------------------------
          |                Calculation Setup                |
           -------------------------------------------------

          program call               : xtb NMA_C4_10.xyz --gfn 1 --opt -T 48
          hostname                   : cx3-15-19.cx3.hpc.ic.ac.uk
          coordinate file            : NMA_C4_10.xyz
          omp threads                :                     1

   ID    Z sym.   atoms
    1    6 C      1-5, 7-11, 13-18, 20-25, 27-31, 33-39, 68-72, 74-78, 80-85,
                  87-92, 94-98, 100-106, 135-175, 177-181, 183-188, 190-195,
                  197-201, 203-209, 237-241, 243-247, 249-254, 256-261,
                  263-267, 269-275, 303-307, 309-313, 315-320, 322-327,
                  329-333, 335-341, 369-373, 375-379, 381-386, 388-393,
                  395-399, 401-407, 435-439, 441-445, 447-452, 454-459,
                  461-465, 467-473, 501-505, 507-511, 513-518, 520-525,
                  527-531, 533-539, 567-571, 573-577, 579-584, 586-591,
                  593-597, 599-605, 633-637, 639-643, 645-650, 652-657,
                  659-663, 665-671
    2    7 N      6, 12, 19, 26, 32, 40, 73, 79, 86, 93, 99, 107, 176, 182,
                  189, 196, 202, 210, 242, 248, 255, 262, 268, 276, 308, 314,
                  321, 328, 334, 342, 374, 380, 387, 394, 400, 408, 440, 446,
                  453, 460, 466, 474, 506, 512, 519, 526, 532, 540, 572, 578,
                  585, 592, 598, 606, 638, 644, 651, 658, 664, 672
    3    1 H      41-67, 108-134, 211-236, 277-302, 343-368, 409-434,
                  475-500, 541-566, 607-632, 673-698

molecular fragmentation (1/2 indicates fragments):
111111111111111111111111111111111111111111111111111111111111111111122222
222222222222222222222222222222222222222222222222222222222222222222222222
222222222222222222222222222222222222222222222222222222222222222222222222
222222222222222222222222222222222222222222222222222222222222222222222222
222222222222222222222222222222222222222222222222222222222222222222222222
222222222222222222222222222222222222222222222222222222222222222222222222
222222222222222222222222222222222222222222222222222222222222222222222222
222222222222222222222222222222222222222222222222222222222222222222222222
222222222222222222222222222222222222222222222222222222222222222222222222
22222222222222222222222222222222222222222222222222
# atoms in fragment 1/2:    67   631
 fragment masses (1/2) :      519.62     5100.90
CMA distance (Bohr)    : 135.255
constraining FC (au)   :  0.0500
########################################################################
[WARNING] Please study the warnings concerning your input carefully
-1- prog_main_parseArguments: Unknown option '-T' provided
########################################################################

           -------------------------------------------------
          |                 G F N 1 - x T B                 |
           -------------------------------------------------

        Reference                      10.1021/acs.jctc.7b00118
      * Hamiltonian:
        H0-scaling (s, p, d)           1.850000    2.250000    2.000000
        zeta-weighting                 0.000000
      * Dispersion:
        s8                             2.400000
        a1                             0.630000
        a2                             5.000000
        s9                             0.000000
      * Repulsion:
        kExp                           1.500000
        rExp                           1.000000
      * Coulomb:
        alpha                          2.000000
        third order                    atomic
        anisotropic                    false
      * Halogen bond correction:
        rad-scale                      1.300000
        damping                        0.440000


          ...................................................
          :                      SETUP                      :
          :.................................................:
          :  # basis functions                2268          :
          :  # atomic orbitals                2268          :
          :  # shells                         1396          :
          :  # electrons                      2066          :
          :  # halogen bonds                     0          :
          :  max. iterations                   250          :
          :  Hamiltonian                  GFN1-xTB          :
          :  restarted?                      false          :
          :  GBSA solvation                  false          :
          :  PC potential                    false          :
          :  electronic temp.          300.0000000     K    :
          :  accuracy                    1.0000000          :
          :  -> integral cutoff          0.2500000E+02      :
          :  -> integral neglect         0.1000000E-07      :
          :  -> SCF convergence          0.1000000E-05 Eh   :
          :  -> wf. convergence          0.2000000E-04 e    :
          :  Broyden damping             0.4000000          :
          ...................................................

 iter      E             dE          RMSdq      gap      omega  full diag
   1  -1140.3825201 -0.114038E+04  0.101E+01    0.03       0.0  T
   2  -1140.6261587 -0.243639E+00  0.603E+00    0.09       1.0  T
   3   -806.2761064  0.334350E+03  0.522E+00    0.02       1.0  T
   4    237.8966599  0.104417E+04  0.752E+00    0.02       1.0  T
   5   -252.4875515 -0.490384E+03  0.681E+00    0.01       1.0  T
   6  -1097.3455843 -0.844858E+03  0.236E+00    0.10       1.0  T
   7  -1104.7876612 -0.744208E+01  0.224E+00    0.08       1.0  T
   8  -1134.0981277 -0.293105E+02  0.137E+00    0.02       1.0  T
   9  -1139.4662351 -0.536811E+01  0.794E-01    0.03       1.0  T
  10  -1138.1233701  0.134287E+01  0.899E-01    0.01       1.0  T
  11  -1140.4919675 -0.236860E+01  0.584E-01    0.05       1.0  T
  12  -1140.8621708 -0.370203E+00  0.435E-01    0.11       1.0  T
  13  -1139.6214443  0.124073E+01  0.519E-01    0.08       1.0  T
  14  -1141.3117140 -0.169027E+01  0.415E-01    0.04       1.0  T
  15  -1140.3989307  0.912783E+00  0.533E-01    0.04       1.0  T
  16  -1141.4544497 -0.105552E+01  0.292E-01    0.10       1.0  T
  17  -1141.5305690 -0.761193E-01  0.230E-01    0.08       1.0  T
  18  -1141.4490073  0.815617E-01  0.252E-01    0.04       1.0  T
  19  -1141.5618665 -0.112859E+00  0.183E-01    0.04       1.0  T
  20  -1141.4325945  0.129272E+00  0.203E-01    0.06       1.0  T
  21  -1141.5140448 -0.814502E-01  0.145E-01    0.11       1.0  T
  22  -1141.4503505  0.636943E-01  0.150E-01    0.04       1.0  T
  23  -1141.4445049  0.584560E-02  0.143E-01    0.04       1.0  T
  24  -1141.5273543 -0.828493E-01  0.900E-02    0.07       1.0  T
  25  -1141.5784913 -0.511370E-01  0.759E-02    0.08       1.0  T
  26  -1141.5888267 -0.103355E-01  0.685E-02    0.07       1.0  T
  27  -1141.5989235 -0.100968E-01  0.582E-02    0.06       1.0  T
  28  -1141.6056425 -0.671897E-02  0.509E-02    0.05       1.0  T
  29  -1141.6073881 -0.174557E-02  0.478E-02    0.05       1.0  T
  30  -1141.6102545 -0.286646E-02  0.404E-02    0.05       1.0  T
  31  -1141.6134059 -0.315139E-02  0.322E-02    0.05       1.0  T
  32  -1141.6152828 -0.187691E-02  0.271E-02    0.04       1.0  T
  33  -1141.6161451 -0.862208E-03  0.222E-02    0.04       1.0  T
  34  -1141.6167618 -0.616772E-03  0.180E-02    0.04       1.0  T
  35  -1141.6171467 -0.384847E-03  0.151E-02    0.04       1.0  T
  36  -1141.6176859 -0.539197E-03  0.100E-02    0.04       1.0  T
  37  -1141.6181639 -0.478034E-03  0.524E-03    0.04       1.0  T
  38  -1141.6182039 -0.399710E-04  0.667E-03    0.04       1.0  T
  39  -1141.6181918  0.120731E-04  0.597E-03    0.04       1.0  T
  40  -1141.6182462 -0.544370E-04  0.343E-03    0.04       1.1  T
  41  -1141.6182277  0.185453E-04  0.358E-03    0.04       1.1  T
  42  -1141.6182735 -0.458078E-04  0.236E-03    0.04       1.6  T
  43  -1141.6182719  0.157356E-05  0.213E-03    0.04       1.8  T
  44  -1141.6182854 -0.134497E-04  0.162E-03    0.04       2.3  T
  45  -1141.6182901 -0.468621E-05  0.124E-03    0.04       3.1  T
  46  -1141.6182924 -0.232445E-05  0.772E-04    0.04       4.9  T
  47  -1141.6182934 -0.103033E-05  0.446E-04    0.04       8.5  T
  48  -1141.6182936 -0.181397E-06  0.301E-04    0.04      12.6  T
  49  -1141.6182938 -0.159770E-06  0.240E-04    0.04      15.8  T
  50  -1141.6182938 -0.609052E-07  0.188E-04    0.04      20.1  T
  51  -1141.6182939 -0.641069E-07  0.139E-04    0.04      27.3  T

   *** convergence criteria satisfied after 51 iterations ***

         #    Occupation            Energy/Eh            Energy/eV
      -------------------------------------------------------------
         1        2.0000           -0.7953694             -21.6431
       ...           ...                  ...                  ...
      1027        2.0000           -0.3743054             -10.1854
      1028        2.0000           -0.3724812             -10.1357
      1029        2.0000           -0.3721604             -10.1270
      1030        2.0000           -0.3702780             -10.0758
      1031        1.9999           -0.3666818              -9.9779
      1032        1.9950           -0.3628869              -9.8747
      1033        1.3231           -0.3578307              -9.7371 (HOMO)
      1034        0.5894           -0.3563648              -9.6972 (LUMO)
      1035        0.0534           -0.3537782              -9.6268
      1036        0.0335           -0.3533252              -9.6145
      1037        0.0045           -0.3514084              -9.5623
      1038        0.0009           -0.3499039              -9.5214
       ...           ...                  ...                  ...
      2268                          1.2872842              35.0288
      -------------------------------------------------------------
                  HL-Gap            0.0014659 Eh            0.0399 eV
             Fermi-level           -0.3571939 Eh           -9.7197 eV

 SCC (total)                   0 d,  0 h,  3 min, 28.951 sec
 SCC setup                      ...        0 min,  0.129 sec (  0.062%)
 Dispersion                     ...        0 min,  0.064 sec (  0.031%)
 classical contributions        ...        0 min,  0.012 sec (  0.006%)
 integral evaluation            ...        0 min,  1.467 sec (  0.702%)
 iterations                     ...        3 min, 24.210 sec ( 97.731%)
 molecular gradient             ...        0 min,  2.410 sec (  1.154%)
 printout                       ...        0 min,  0.658 sec (  0.315%)

         :::::::::::::::::::::::::::::::::::::::::::::::::::::
         ::                     SUMMARY                     ::
         :::::::::::::::::::::::::::::::::::::::::::::::::::::
         :: total energy           -1124.489550393444 Eh    ::
         :: gradient norm              1.079653329411 Eh/a0 ::
         :: HOMO-LUMO gap              0.039888153427 eV    ::
         ::.................................................::
         :: SCC energy             -1141.618293885820 Eh    ::
         :: -> electrostatic           0.847396610221 Eh    ::
         :: repulsion energy          17.690174999657 Eh    ::
         :: dispersion energy         -0.561431507281 Eh    ::
         :: halogen bond corr.         0.000000000000 Eh    ::
         :: add. restraining           0.000000000000 Eh    ::
         :: total charge               0.000000000001 e     ::
         :::::::::::::::::::::::::::::::::::::::::::::::::::::

      ----------------------------------------------------------- 
     |                       L-ANC optimizer                     |
      ----------------------------------------------------------- 
          low memory version by Sebastian Ehlert

          ...................................................
          :                      SETUP                      :
          :.................................................:
          :   energy convergence        0.5000000E-05 Eh    :
          :   grad. convergence         0.1000000E-02 Eh/a0 :
          :   optimization log               true           :
          :   writing optlog all                1     steps :
          :   Hessian reset                    20     steps :
          :   maximium step len.        1.0000000     a0    :
          :   LBFGS images                     20           :
          ...................................................
 * calculating model hessian...
Using Lindh-Hessian (1995)
 Shifting diagonal of input Hessian by    1.0006888372809044E-002
 Lowest  eigenvalues of input Hessian
    0.010000    0.010001    0.010002    0.010002    0.010003    0.010004
    0.010004    0.010005    0.010005    0.010005    0.010006    0.010006
    0.010007    0.010007    0.010007    0.010007    0.000000    0.000000
 Highest eigenvalues
    2.598402    2.598403    2.598403    2.598405    2.598405    2.598408


........................................................................
.............................. CYCLE    1 ..............................
........................................................................
   1  -1141.7926617 -0.114179E+04  0.856E-02    0.15       0.0  T
   2  -1141.7919120  0.749694E-03  0.775E-02    0.12       1.0  T
   3  -1141.7906859  0.122606E-02  0.671E-02    0.13       1.0  T
   4  -1141.7974251 -0.673921E-02  0.352E-02    0.13       1.0  T
   5  -1141.7974153  0.984426E-05  0.343E-02    0.13       1.0  T
   6  -1141.7996786 -0.226331E-02  0.172E-02    0.13       1.0  T
   7  -1141.8001560 -0.477428E-03  0.841E-03    0.13       1.0  T
   8  -1141.8002640 -0.107939E-03  0.344E-03    0.13       1.1  T
   9  -1141.8002812 -0.172742E-04  0.208E-03    0.13       1.8  T
  10  -1141.8002901 -0.890937E-05  0.109E-03    0.13       3.5  T
  11  -1141.8002909 -0.770146E-06  0.718E-04    0.13       5.3  T
  12  -1141.8002923 -0.135846E-05  0.348E-04    0.13      10.9  T
  13  -1141.8002924 -0.128713E-06  0.203E-04    0.13      18.7  T
  14  -1141.8002925 -0.118045E-06  0.103E-04    0.13      36.9  T
  15  -1141.8002925 -0.219511E-07  0.699E-05    0.13      54.1  T
     SCC iter.                  ...        1 min,  2.225 sec
     gradient                   ...        0 min,  2.400 sec
 * total energy  : -1125.0281631 Eh     change       -0.5386127E+00 Eh
   gradient norm :     0.8002803 Eh/a0  converged?    E=F G=F D=F
   step length   :     0.6182724 a0

........................................................................
.............................. CYCLE    2 ..............................
........................................................................
   1  -1142.1150973 -0.114212E+04  0.495E-02    0.26       0.0  T
   2  -1142.1162650 -0.116772E-02  0.340E-02    0.24       1.0  T
   3  -1142.1167135 -0.448483E-03  0.225E-02    0.24       1.0  T
   4  -1142.1166034  0.110057E-03  0.227E-02    0.24       1.0  T
   5  -1142.1171180 -0.514610E-03  0.126E-02    0.24       1.0  T
   6  -1142.1173288 -0.210713E-03  0.487E-03    0.24       1.0  T
   7  -1142.1173715 -0.427758E-04  0.173E-03    0.24       2.2  T
   8  -1142.1173769 -0.533743E-05  0.440E-04    0.24       8.6  T
   9  -1142.1173771 -0.230861E-06  0.204E-04    0.24      18.6  T
  10  -1142.1173771 -0.296113E-07  0.122E-04    0.24      31.1  T
  11  -1142.1173771 -0.165296E-07  0.675E-05    0.24      56.1  T
     SCC iter.                  ...        0 min, 42.769 sec
     gradient                   ...        0 min,  2.406 sec
 * total energy  : -1125.3335387 Eh     change       -0.3053755E+00 Eh
   gradient norm :     0.6325794 Eh/a0  converged?    E=F G=F D=F
   step length   :     6.4267800 a0

........................................................................
.............................. CYCLE    3 ..............................
........................................................................
   1  -1142.3250081 -0.114233E+04  0.273E-02    0.33       0.0  T
   2  -1142.3254326 -0.424544E-03  0.192E-02    0.32       1.0  T
   3  -1142.3256785 -0.245890E-03  0.103E-02    0.32       1.0  T
   4  -1142.3256264  0.521573E-04  0.102E-02    0.32       1.0  T
   5  -1142.3256976 -0.712786E-04  0.668E-03    0.32       1.0  T
   6  -1142.3257628 -0.651329E-04  0.196E-03    0.32       1.9  T
   7  -1142.3257691 -0.629260E-05  0.762E-04    0.32       5.0  T
   8  -1142.3257700 -0.895792E-06  0.211E-04    0.32      17.9  T
   9  -1142.3257700 -0.561922E-07  0.123E-04    0.32      30.7  T
  10  -1142.3257700 -0.172897E-07  0.533E-05    0.32      71.0  T
     SCC iter.                  ...        0 min, 38.782 sec
     gradient                   ...        0 min,  2.400 sec
 * total energy  : -1125.4904290 Eh     change       -0.1568903E+00 Eh
   gradient norm :     0.5201758 Eh/a0  converged?    E=F G=F D=F
   step length   :    10.7179843 a0

........................................................................
.............................. CYCLE    4 ..............................
........................................................................
   1  -1142.5417109 -0.114254E+04  0.237E-02    0.40       0.0  T
   2  -1142.5419709 -0.260041E-03  0.174E-02    0.40       1.0  T
   3  -1142.5421634 -0.192418E-03  0.891E-03    0.40       1.0  T
   4  -1142.5421260  0.373553E-04  0.822E-03    0.40       1.0  T
   5  -1142.5421816 -0.555541E-04  0.484E-03    0.40       1.0  T
   6  -1142.5422156 -0.340417E-04  0.163E-03    0.40       2.3  T
   7  -1142.5422202 -0.462754E-05  0.592E-04    0.40       6.4  T
   8  -1142.5422207 -0.507512E-06  0.141E-04    0.40      26.9  T
   9  -1142.5422208 -0.165169E-07  0.101E-04    0.40      37.5  T
     SCC iter.                  ...        0 min, 35.476 sec
     gradient                   ...        0 min,  2.433 sec
 * total energy  : -1125.6252781 Eh     change       -0.1348492E+00 Eh
   gradient norm :     0.4195094 Eh/a0  converged?    E=F G=F D=F
   step length   :    17.6584015 a0

........................................................................
.............................. CYCLE    5 ..............................
........................................................................
   1  -1142.6868774 -0.114269E+04  0.203E-02    0.46       0.0  T
   2  -1142.6870216 -0.144208E-03  0.173E-02    0.45       1.0  T
   3  -1142.6872466 -0.224987E-03  0.789E-03    0.45       1.0  T
   4  -1142.6872186  0.280044E-04  0.637E-03    0.45       1.0  T
   5  -1142.6872549 -0.363293E-04  0.438E-03    0.45       1.0  T
   6  -1142.6872804 -0.254805E-04  0.126E-03    0.45       3.0  T
   7  -1142.6872831 -0.271430E-05  0.492E-04    0.45       7.7  T
   8  -1142.6872835 -0.363846E-06  0.125E-04    0.45      30.2  T
   9  -1142.6872835 -0.943851E-08  0.918E-05    0.45      41.2  T
     SCC iter.                  ...        0 min, 34.845 sec
     gradient                   ...        0 min,  2.503 sec
 * total energy  : -1125.7180602 Eh     change       -0.9278203E-01 Eh
   gradient norm :     0.3548528 Eh/a0  converged?    E=F G=F D=F
   step length   :    14.3093474 a0

........................................................................
.............................. CYCLE    6 ..............................
........................................................................
   1  -1142.8284304 -0.114283E+04  0.198E-02    0.50       0.0  T
   2  -1142.8285882 -0.157835E-03  0.175E-02    0.50       1.0  T
   3  -1142.8287627 -0.174523E-03  0.794E-03    0.50       1.0  T
   4  -1142.8286948  0.679883E-04  0.683E-03    0.50       1.0  T
   5  -1142.8287570 -0.622450E-04  0.362E-03    0.50       1.0  T
   6  -1142.8287760 -0.190449E-04  0.113E-03    0.50       3.3  T
   7  -1142.8287783 -0.225988E-05  0.423E-04    0.50       9.0  T
   8  -1142.8287786 -0.308923E-06  0.981E-05    0.50      38.6  T
   9  -1142.8287786 -0.515433E-08  0.730E-05    0.50      51.8  T
     SCC iter.                  ...        0 min, 35.606 sec
     gradient                   ...        0 min,  2.438 sec
 * total energy  : -1125.8068025 Eh     change       -0.8874237E-01 Eh
   gradient norm :     0.2984522 Eh/a0  converged?    E=F G=F D=F
   step length   :    33.8664282 a0

........................................................................
.............................. CYCLE    7 ..............................
........................................................................
   1  -1142.9416610 -0.114294E+04  0.187E-02    0.53       0.0  T
   2  -1142.9418268 -0.165821E-03  0.174E-02    0.53       1.0  T
   3  -1142.9419900 -0.163129E-03  0.721E-03    0.53       1.0  T
   4  -1142.9419190  0.709583E-04  0.630E-03    0.53       1.0  T
   5  -1142.9419880 -0.689968E-04  0.268E-03    0.53       1.4  T
   6  -1142.9419968 -0.880749E-05  0.103E-03    0.53       3.7  T
   7  -1142.9419986 -0.179488E-05  0.403E-04    0.53       9.4  T
   8  -1142.9419989 -0.292186E-06  0.101E-04    0.53      37.6  T
   9  -1142.9419989 -0.823024E-08  0.619E-05    0.53      61.1  T
     SCC iter.                  ...        0 min, 35.568 sec
     gradient                   ...        0 min,  2.399 sec
 * total energy  : -1125.8822261 Eh     change       -0.7542359E-01 Eh
   gradient norm :     0.2572820 Eh/a0  converged?    E=F G=F D=F
   step length   :    25.8413102 a0

........................................................................
.............................. CYCLE    8 ..............................
........................................................................
   1  -1143.0452108 -0.114305E+04  0.189E-02    0.56       0.0  T
   2  -1143.0453625 -0.151700E-03  0.175E-02    0.56       1.0  T
   3  -1143.0454798 -0.117324E-03  0.796E-03    0.56       1.0  T
   4  -1143.0454020  0.778432E-04  0.648E-03    0.56       1.0  T
   5  -1143.0454806 -0.785950E-04  0.167E-03    0.56       2.3  T
   6  -1143.0454851 -0.455001E-05  0.692E-04    0.56       5.5  T
   7  -1143.0454860 -0.837147E-06  0.322E-04    0.56      11.8  T
   8  -1143.0454861 -0.168303E-06  0.985E-05    0.56      38.4  T
   9  -1143.0454861 -0.995306E-08  0.543E-05    0.56      69.7  T
     SCC iter.                  ...        0 min, 37.023 sec
     gradient                   ...        0 min,  2.420 sec
 * total energy  : -1125.9530711 Eh     change       -0.7084501E-01 Eh
   gradient norm :     0.2233155 Eh/a0  converged?    E=F G=F D=F
   step length   :    70.8959606 a0

........................................................................
.............................. CYCLE    9 ..............................
........................................................................
   1  -1143.1395980 -0.114314E+04  0.196E-02    0.59       0.0  T
   2  -1143.1397307 -0.132669E-03  0.187E-02    0.59       1.0  T
   3  -1143.1398436 -0.112865E-03  0.879E-03    0.59       1.0  T
   4  -1143.1397408  0.102796E-03  0.773E-03    0.59       1.0  T
   5  -1143.1398463 -0.105545E-03  0.140E-03    0.59       2.7  T
   6  -1143.1398490 -0.274506E-05  0.663E-04    0.59       5.7  T
   7  -1143.1398498 -0.749903E-06  0.246E-04    0.59      15.4  T
   8  -1143.1398499 -0.111371E-06  0.105E-04    0.59      36.1  T
   9  -1143.1398499 -0.137288E-07  0.441E-05    0.59      85.9  T
     SCC iter.                  ...        0 min, 37.537 sec
     gradient                   ...        0 min,  2.452 sec
 * total energy  : -1126.0190057 Eh     change       -0.6593460E-01 Eh
   gradient norm :     0.1929236 Eh/a0  converged?    E=F G=F D=F
   step length   :    50.7928512 a0

........................................................................
.............................. CYCLE   10 ..............................
........................................................................
   1  -1143.2319692 -0.114323E+04  0.185E-02    0.60       0.0  T
   2  -1143.2320451 -0.758669E-04  0.183E-02    0.60       1.0  T
   3  -1143.2321523 -0.107218E-03  0.876E-03    0.60       1.0  T
   4  -1143.2320234  0.128909E-03  0.894E-03    0.60       1.0  T
   5  -1143.2321562 -0.132820E-03  0.132E-03    0.60       2.9  T
   6  -1143.2321582 -0.202275E-05  0.554E-04    0.60       6.8  T
   7  -1143.2321588 -0.545233E-06  0.213E-04    0.60      17.8  T
   8  -1143.2321588 -0.884593E-07  0.831E-05    0.60      45.6  T
   9  -1143.2321588 -0.947966E-08  0.357E-05    0.60     106.0  T
     SCC iter.                  ...        0 min, 36.131 sec
     gradient                   ...        0 min,  2.495 sec
 * total energy  : -1126.0758177 Eh     change       -0.5681199E-01 Eh
   gradient norm :     0.1653918 Eh/a0  converged?    E=F G=F D=F
   step length   :    21.2212427 a0

........................................................................
.............................. CYCLE   11 ..............................
........................................................................
   1  -1143.3235409 -0.114332E+04  0.159E-02    0.61       0.0  T
   2  -1143.3235911 -0.502121E-04  0.160E-02    0.61       1.0  T
   3  -1143.3236836 -0.924668E-04  0.760E-03    0.61       1.0  T
   4  -1143.3235749  0.108705E-03  0.820E-03    0.61       1.0  T
   5  -1143.3236873 -0.112387E-03  0.109E-03    0.61       3.5  T
   6  -1143.3236885 -0.127579E-05  0.391E-04    0.61       9.7  T
   7  -1143.3236888 -0.261849E-06  0.167E-04    0.61      22.7  T
   8  -1143.3236889 -0.518348E-07  0.639E-05    0.61      59.3  T
     SCC iter.                  ...        0 min, 33.131 sec
     gradient                   ...        0 min,  2.459 sec
 * total energy  : -1126.1224658 Eh     change       -0.4664808E-01 Eh
   gradient norm :     0.1397347 Eh/a0  converged?    E=F G=F D=F
   step length   :    18.2130120 a0

........................................................................
.............................. CYCLE   12 ..............................
........................................................................
   1  -1143.4171873 -0.114342E+04  0.122E-02    0.62       0.0  T
   2  -1143.4172145 -0.271333E-04  0.119E-02    0.62       1.0  T
   3  -1143.4172781 -0.636621E-04  0.538E-03    0.62       1.0  T
   4  -1143.4172180  0.601368E-04  0.612E-03    0.62       1.0  T
   5  -1143.4172817 -0.636975E-04  0.812E-04    0.62       4.7  T
   6  -1143.4172823 -0.634760E-06  0.322E-04    0.62      11.7  T
   7  -1143.4172825 -0.183154E-06  0.137E-04    0.62      27.7  T
   8  -1143.4172825 -0.332989E-07  0.537E-05    0.62      70.5  T
     SCC iter.                  ...        0 min, 34.430 sec
     gradient                   ...        0 min,  2.513 sec
 * total energy  : -1126.1611944 Eh     change       -0.3872865E-01 Eh
   gradient norm :     0.1208313 Eh/a0  converged?    E=F G=F D=F
   step length   :    14.9783504 a0

........................................................................
.............................. CYCLE   13 ..............................
........................................................................
   1  -1143.5193102 -0.114352E+04  0.122E-02    0.62       0.0  T
   2  -1143.5193335 -0.232927E-04  0.106E-02    0.62       1.0  T
   3  -1143.5193884 -0.548528E-04  0.469E-03    0.62       1.0  T
   4  -1143.5193459  0.425379E-04  0.533E-03    0.62       1.0  T
   5  -1143.5193955 -0.496570E-04  0.749E-04    0.62       5.1  T
   6  -1143.5193961 -0.541295E-06  0.343E-04    0.62      11.0  T
   7  -1143.5193963 -0.228260E-06  0.118E-04    0.62      32.0  T
   8  -1143.5193963 -0.211219E-07  0.520E-05    0.62      72.8  T
     SCC iter.                  ...        0 min, 33.366 sec
     gradient                   ...        0 min,  2.404 sec
 * total energy  : -1126.1944594 Eh     change       -0.3326494E-01 Eh
   gradient norm :     0.1058567 Eh/a0  converged?    E=F G=F D=F
   step length   :    14.1228131 a0

........................................................................
.............................. CYCLE   14 ..............................
........................................................................
   1  -1143.6225205 -0.114362E+04  0.921E-03    0.63       0.0  T
   2  -1143.6225284 -0.797687E-05  0.758E-03    0.63       1.0  T
   3  -1143.6225641 -0.357095E-04  0.357E-03    0.63       1.1  T
   4  -1143.6225517  0.124055E-04  0.378E-03    0.63       1.0  T
   5  -1143.6225752 -0.234490E-04  0.555E-04    0.63       6.8  T
   6  -1143.6225753 -0.128279E-06  0.273E-04    0.63      13.9  T
   7  -1143.6225755 -0.144740E-06  0.114E-04    0.63      33.2  T
   8  -1143.6225755 -0.231971E-07  0.445E-05    0.63      85.1  T
     SCC iter.                  ...        0 min, 34.377 sec
     gradient                   ...        0 min,  2.543 sec
 * total energy  : -1126.2248351 Eh     change       -0.3037572E-01 Eh
   gradient norm :     0.0952605 Eh/a0  converged?    E=F G=F D=F
   step length   :    13.5891429 a0

........................................................................
.............................. CYCLE   15 ..............................
........................................................................
   1  -1143.7262733 -0.114373E+04  0.748E-03    0.63       0.0  T
   2  -1143.7262855 -0.121825E-04  0.538E-03    0.63       1.0  T
   3  -1143.7262957 -0.102777E-04  0.314E-03    0.63       1.2  T
   4  -1143.7262971 -0.133059E-05  0.248E-03    0.63       1.5  T
   5  -1143.7263079 -0.108699E-04  0.513E-04    0.63       7.4  T
   6  -1143.7263082 -0.239088E-06  0.294E-04    0.63      12.9  T
   7  -1143.7263084 -0.202549E-06  0.846E-05    0.63      44.7  T
   8  -1143.7263084 -0.707337E-08  0.390E-05    0.63      97.0  T
     SCC iter.                  ...        0 min, 33.128 sec
     gradient                   ...        0 min,  2.421 sec
 * total energy  : -1126.2522776 Eh     change       -0.2744254E-01 Eh
   gradient norm :     0.0828276 Eh/a0  converged?    E=F G=F D=F
   step length   :    10.9345163 a0

........................................................................
.............................. CYCLE   16 ..............................
........................................................................
   1  -1143.8290423 -0.114383E+04  0.756E-03    0.63       0.0  T
   2  -1143.8290531 -0.107567E-04  0.557E-03    0.63       1.0  T
   3  -1143.8290652 -0.121438E-04  0.304E-03    0.63       1.2  T
   4  -1143.8290620  0.323954E-05  0.262E-03    0.63       1.4  T
   5  -1143.8290753 -0.133035E-04  0.477E-04    0.63       7.9  T
   6  -1143.8290755 -0.155491E-06  0.249E-04    0.63      15.2  T
   7  -1143.8290756 -0.135289E-06  0.936E-05    0.63      40.4  T
   8  -1143.8290756 -0.123475E-07  0.382E-05    0.63      99.1  T
     SCC iter.                  ...        0 min, 34.074 sec
     gradient                   ...        0 min,  2.527 sec
 * total energy  : -1126.2762290 Eh     change       -0.2395142E-01 Eh
   gradient norm :     0.0725526 Eh/a0  converged?    E=F G=F D=F
   step length   :     9.3214142 a0

........................................................................
.............................. CYCLE   17 ..............................
........................................................................
   1  -1143.9252457 -0.114393E+04  0.787E-03    0.64       0.0  T
   2  -1143.9252608 -0.151123E-04  0.615E-03    0.64       1.0  T
   3  -1143.9252782 -0.173551E-04  0.298E-03    0.64       1.3  T
   4  -1143.9252657  0.125308E-04  0.288E-03    0.64       1.3  T
   5  -1143.9252828 -0.171634E-04  0.536E-04    0.64       7.1  T
   6  -1143.9252831 -0.294071E-06  0.222E-04    0.64      17.0  T
   7  -1143.9252832 -0.953544E-07  0.945E-05    0.64      40.1  T
   8  -1143.9252832 -0.142350E-07  0.387E-05    0.64      97.8  T
     SCC iter.                  ...        0 min, 32.775 sec
     gradient                   ...        0 min,  2.413 sec
 * total energy  : -1126.2971408 Eh     change       -0.2091171E-01 Eh
   gradient norm :     0.0619330 Eh/a0  converged?    E=F G=F D=F
   step length   :     9.9096903 a0

........................................................................
.............................. CYCLE   18 ..............................
........................................................................
   1  -1144.0158432 -0.114402E+04  0.717E-03    0.64       0.0  T
   2  -1144.0158539 -0.107418E-04  0.559E-03    0.64       1.0  T
   3  -1144.0158687 -0.147415E-04  0.277E-03    0.64       1.4  T
   4  -1144.0158602  0.843117E-05  0.255E-03    0.64       1.5  T
   5  -1144.0158738 -0.136178E-04  0.479E-04    0.64       7.9  T
   6  -1144.0158741 -0.216912E-06  0.219E-04    0.64      17.3  T
   7  -1144.0158742 -0.100928E-06  0.926E-05    0.64      40.9  T
   8  -1144.0158742 -0.134335E-07  0.377E-05    0.64     100.4  T
     SCC iter.                  ...        0 min, 33.734 sec
     gradient                   ...        0 min,  2.568 sec
 * total energy  : -1126.3152682 Eh     change       -0.1812739E-01 Eh
   gradient norm :     0.0521607 Eh/a0  converged?    E=F G=F D=F
   step length   :    10.1461471 a0

........................................................................
.............................. CYCLE   19 ..............................
........................................................................
   1  -1144.1014823 -0.114410E+04  0.643E-03    0.64       0.0  T
   2  -1144.1014913 -0.904198E-05  0.454E-03    0.64       1.0  T
   3  -1144.1014973 -0.597483E-05  0.253E-03    0.64       1.5  T
   4  -1144.1014947  0.263779E-05  0.207E-03    0.64       1.8  T
   5  -1144.1015040 -0.932566E-05  0.412E-04    0.64       9.2  T
   6  -1144.1015041 -0.166938E-06  0.185E-04    0.64      20.5  T
   7  -1144.1015042 -0.615535E-07  0.841E-05    0.64      45.0  T
     SCC iter.                  ...        0 min, 29.442 sec
     gradient                   ...        0 min,  2.473 sec
 * total energy  : -1126.3304888 Eh     change       -0.1522066E-01 Eh
   gradient norm :     0.0461743 Eh/a0  converged?    E=F G=F D=F
   step length   :    10.7774473 a0

........................................................................
.............................. CYCLE   20 ..............................
........................................................................
   1  -1144.1837706 -0.114418E+04  0.677E-03    0.64       0.0  T
   2  -1144.1837818 -0.112253E-04  0.513E-03    0.64       1.0  T
   3  -1144.1837929 -0.111616E-04  0.254E-03    0.64       1.5  T
   4  -1144.1837857  0.720592E-05  0.226E-03    0.64       1.7  T
   5  -1144.1837965 -0.107774E-04  0.466E-04    0.64       8.1  T
   6  -1144.1837968 -0.287459E-06  0.183E-04    0.64      20.7  T
   7  -1144.1837969 -0.575462E-07  0.839E-05    0.64      45.1  T
     SCC iter.                  ...        0 min, 29.592 sec
     gradient                   ...        0 min,  2.448 sec
 * total energy  : -1126.3438898 Eh     change       -0.1340098E-01 Eh
   gradient norm :     0.0388304 Eh/a0  converged?    E=F G=F D=F
   step length   :    10.0146210 a0
 * RMSD in coord.:     0.6751105 a0     energy gain  -0.1854339E+01 Eh
 * calculating model hessian...
Using Lindh-Hessian (1995)
 Shifting diagonal of input Hessian by    1.0002345072061871E-002
 Lowest  eigenvalues of input Hessian
    0.010000    0.010001    0.010002    0.010002    0.010002    0.010002
    0.000000    0.000000    0.000000    0.000000    0.000000    0.000000
    0.010003    0.010003    0.010003    0.010003    0.010003    0.010003
 Highest eigenvalues
    2.699680    2.722281    2.723615    2.728985    2.729155    2.729811


........................................................................
.............................. CYCLE   21 ..............................
........................................................................
   1  -1144.2505496 -0.114425E+04  0.594E-03    0.64       0.0  T
   2  -1144.2505581 -0.850093E-05  0.383E-03    0.64       1.0  T
   3  -1144.2505614 -0.334517E-05  0.207E-03    0.64       1.8  T
   4  -1144.2505584  0.306402E-05  0.163E-03    0.64       2.3  T
   5  -1144.2505638 -0.541899E-05  0.538E-04    0.64       7.0  T
   6  -1144.2505644 -0.595835E-06  0.108E-04    0.64      35.1  T
   7  -1144.2505644 -0.180260E-07  0.459E-05    0.64      82.4  T
     SCC iter.                  ...        0 min, 29.686 sec
     gradient                   ...        0 min,  2.540 sec
 * total energy  : -1126.3517152 Eh     change       -0.7825415E-02 Eh
   gradient norm :     0.0207024 Eh/a0  converged?    E=F G=F D=F
   step length   :     0.5651277 a0

........................................................................
.............................. CYCLE   22 ..............................
........................................................................
   1  -1144.3274397 -0.114433E+04  0.653E-03    0.64       0.0  T
   2  -1144.3274510 -0.112747E-04  0.424E-03    0.64       1.0  T
   3  -1144.3274574 -0.637513E-05  0.228E-03    0.64       1.7  T
   4  -1144.3274543  0.307776E-05  0.186E-03    0.64       2.0  T
   5  -1144.3274615 -0.717195E-05  0.599E-04    0.64       6.3  T
   6  -1144.3274621 -0.654891E-06  0.138E-04    0.64      27.4  T
   7  -1144.3274622 -0.274747E-07  0.589E-05    0.64      64.2  T
     SCC iter.                  ...        0 min, 29.323 sec
     gradient                   ...        0 min,  2.538 sec
 * total energy  : -1126.3624131 Eh     change       -0.1069788E-01 Eh
   gradient norm :     0.0153681 Eh/a0  converged?    E=F G=F D=F
   step length   :     3.8914137 a0

........................................................................
.............................. CYCLE   23 ..............................
........................................................................
   1  -1144.3835465 -0.114438E+04  0.575E-03    0.64       0.0  T
   2  -1144.3835554 -0.891329E-05  0.379E-03    0.64       1.0  T
   3  -1144.3835623 -0.692817E-05  0.194E-03    0.64       1.9  T
   4  -1144.3835601  0.219141E-05  0.168E-03    0.64       2.3  T
   5  -1144.3835661 -0.598072E-05  0.494E-04    0.64       7.7  T
   6  -1144.3835665 -0.376326E-06  0.130E-04    0.64      29.0  T
   7  -1144.3835665 -0.260839E-07  0.564E-05    0.64      67.1  T
     SCC iter.                  ...        0 min, 29.136 sec
     gradient                   ...        0 min,  2.483 sec
 * total energy  : -1126.3708237 Eh     change       -0.8410646E-02 Eh
   gradient norm :     0.0233906 Eh/a0  converged?    E=F G=F D=F
   step length   :     8.4430491 a0

........................................................................
.............................. CYCLE   24 ..............................
........................................................................
   1  -1144.4311395 -0.114443E+04  0.597E-03    0.64       0.0  T
   2  -1144.4311494 -0.988764E-05  0.347E-03    0.64       1.1  T
   3  -1144.4311528 -0.343420E-05  0.198E-03    0.64       1.9  T
   4  -1144.4311518  0.985738E-06  0.151E-03    0.64       2.5  T
   5  -1144.4311564 -0.455029E-05  0.470E-04    0.64       8.1  T
   6  -1144.4311568 -0.401124E-06  0.126E-04    0.64      30.1  T
   7  -1144.4311568 -0.236553E-07  0.536E-05    0.64      70.7  T
     SCC iter.                  ...        0 min, 30.283 sec
     gradient                   ...        0 min,  2.481 sec
 * total energy  : -1126.3788650 Eh     change       -0.8041249E-02 Eh
   gradient norm :     0.0279981 Eh/a0  converged?    E=F G=F D=F
   step length   :    11.9675084 a0

........................................................................
.............................. CYCLE   25 ..............................
........................................................................
   1  -1144.4693411 -0.114447E+04  0.551E-03    0.64       0.0  T
   2  -1144.4693503 -0.918644E-05  0.303E-03    0.64       1.2  T
   3  -1144.4693535 -0.322982E-05  0.174E-03    0.64       2.2  T
   4  -1144.4693538 -0.283590E-06  0.134E-03    0.64       2.8  T
   5  -1144.4693570 -0.326350E-05  0.426E-04    0.64       8.9  T
   6  -1144.4693574 -0.329249E-06  0.124E-04    0.64      30.6  T
   7  -1144.4693574 -0.250050E-07  0.546E-05    0.64      69.4  T
     SCC iter.                  ...        0 min, 30.556 sec
     gradient                   ...        0 min,  2.683 sec
 * total energy  : -1126.3854514 Eh     change       -0.6586456E-02 Eh
   gradient norm :     0.0329181 Eh/a0  converged?    E=F G=F D=F
   step length   :     7.5387590 a0

........................................................................
.............................. CYCLE   26 ..............................
........................................................................
   1  -1144.5030912 -0.114450E+04  0.495E-03    0.63       0.0  T
   2  -1144.5030993 -0.810440E-05  0.276E-03    0.63       1.4  T
   3  -1144.5031029 -0.356875E-05  0.152E-03    0.63       2.5  T
   4  -1144.5031035 -0.575819E-06  0.121E-03    0.63       3.1  T
   5  -1144.5031059 -0.244998E-05  0.372E-04    0.63      10.2  T
   6  -1144.5031061 -0.204437E-06  0.121E-04    0.63      31.2  T
   7  -1144.5031062 -0.246087E-07  0.514E-05    0.63      73.7  T
     SCC iter.                  ...        0 min, 30.098 sec
     gradient                   ...        0 min,  2.506 sec
 * total energy  : -1126.3911362 Eh     change       -0.5684734E-02 Eh
   gradient norm :     0.0356693 Eh/a0  converged?    E=F G=F D=F
   step length   :     7.1613859 a0

........................................................................
.............................. CYCLE   27 ..............................
........................................................................
   1  -1144.5344201 -0.114453E+04  0.429E-03    0.63       0.0  T
   2  -1144.5344263 -0.613843E-05  0.256E-03    0.63       1.5  T
   3  -1144.5344304 -0.418595E-05  0.130E-03    0.63       2.9  T
   4  -1144.5344309 -0.508302E-06  0.109E-03    0.63       3.5  T
   5  -1144.5344328 -0.187263E-05  0.328E-04    0.63      11.5  T
   6  -1144.5344330 -0.133376E-06  0.121E-04    0.63      31.2  T
   7  -1144.5344330 -0.274736E-07  0.486E-05    0.63      77.8  T
     SCC iter.                  ...        0 min, 30.492 sec
     gradient                   ...        0 min,  2.497 sec
 * total energy  : -1126.3961947 Eh     change       -0.5058514E-02 Eh
   gradient norm :     0.0355799 Eh/a0  converged?    E=F G=F D=F
   step length   :     6.5069438 a0

........................................................................
.............................. CYCLE   28 ..............................
........................................................................
   1  -1144.5640647 -0.114456E+04  0.376E-03    0.63       0.0  T
   2  -1144.5640688 -0.409136E-05  0.243E-03    0.63       1.6  T
   3  -1144.5640733 -0.451269E-05  0.118E-03    0.63       3.2  T
   4  -1144.5640737 -0.420577E-06  0.985E-04    0.63       3.8  T
   5  -1144.5640752 -0.144151E-05  0.295E-04    0.63      12.9  T
   6  -1144.5640753 -0.964546E-07  0.110E-04    0.63      34.3  T
   7  -1144.5640753 -0.221867E-07  0.428E-05    0.63      88.4  T
     SCC iter.                  ...        0 min, 30.405 sec
     gradient                   ...        0 min,  2.501 sec
 * total energy  : -1126.4008475 Eh     change       -0.4652791E-02 Eh
   gradient norm :     0.0332853 Eh/a0  converged?    E=F G=F D=F
   step length   :     6.1404677 a0

........................................................................
.............................. CYCLE   29 ..............................
........................................................................
   1  -1144.5910572 -0.114459E+04  0.335E-03    0.63       0.0  T
   2  -1144.5910597 -0.257872E-05  0.226E-03    0.63       1.7  T
   3  -1144.5910640 -0.430816E-05  0.109E-03    0.63       3.5  T
   4  -1144.5910644 -0.403449E-06  0.879E-04    0.63       4.3  T
   5  -1144.5910656 -0.110983E-05  0.266E-04    0.63      14.2  T
   6  -1144.5910656 -0.774571E-07  0.989E-05    0.63      38.3  T
   7  -1144.5910656 -0.179209E-07  0.371E-05    0.63     102.1  T
     SCC iter.                  ...        0 min, 30.395 sec
     gradient                   ...        0 min,  2.513 sec
 * total energy  : -1126.4051169 Eh     change       -0.4269406E-02 Eh
   gradient norm :     0.0300482 Eh/a0  converged?    E=F G=F D=F
   step length   :     5.7056786 a0

........................................................................
.............................. CYCLE   30 ..............................
........................................................................
   1  -1144.6149253 -0.114461E+04  0.302E-03    0.63       0.0  T
   2  -1144.6149271 -0.183154E-05  0.208E-03    0.63       1.8  T
   3  -1144.6149310 -0.384347E-05  0.990E-04    0.63       3.8  T
   4  -1144.6149313 -0.363729E-06  0.789E-04    0.63       4.8  T
   5  -1144.6149322 -0.863236E-06  0.240E-04    0.63      15.8  T
   6  -1144.6149322 -0.626560E-07  0.886E-05    0.63      42.7  T
   7  -1144.6149323 -0.143959E-07  0.333E-05    0.63     113.6  T
     SCC iter.                  ...        0 min, 30.329 sec
     gradient                   ...        0 min,  2.476 sec
 * total energy  : -1126.4090518 Eh     change       -0.3934887E-02 Eh
   gradient norm :     0.0267391 Eh/a0  converged?    E=F G=F D=F
   step length   :     6.7913744 a0

........................................................................
.............................. CYCLE   31 ..............................
........................................................................
   1  -1144.6351338 -0.114464E+04  0.270E-03    0.63       0.0  T
   2  -1144.6351352 -0.136366E-05  0.189E-03    0.63       2.0  T
   3  -1144.6351385 -0.327870E-05  0.908E-04    0.63       4.2  T
   4  -1144.6351388 -0.348994E-06  0.704E-04    0.63       5.4  T
   5  -1144.6351395 -0.654088E-06  0.214E-04    0.63      17.7  T
   6  -1144.6351395 -0.495529E-07  0.787E-05    0.63      48.1  T
   7  -1144.6351395 -0.108068E-07  0.309E-05    0.63     122.4  T
     SCC iter.                  ...        0 min, 28.874 sec
     gradient                   ...        0 min,  2.435 sec
 * total energy  : -1126.4128160 Eh     change       -0.3764191E-02 Eh
   gradient norm :     0.0236132 Eh/a0  converged?    E=F G=F D=F
   step length   :     7.2738117 a0

........................................................................
.............................. CYCLE   32 ..............................
........................................................................
   1  -1144.6514915 -0.114465E+04  0.240E-03    0.63       0.0  T
   2  -1144.6514926 -0.113881E-05  0.166E-03    0.63       2.3  T
   3  -1144.6514951 -0.245603E-05  0.849E-04    0.63       4.5  T
   4  -1144.6514955 -0.385548E-06  0.612E-04    0.63       6.2  T
   5  -1144.6514959 -0.472117E-06  0.193E-04    0.63      19.6  T
   6  -1144.6514960 -0.407681E-07  0.721E-05    0.63      52.5  T
     SCC iter.                  ...        0 min, 26.103 sec
     gradient                   ...        0 min,  2.465 sec
 * total energy  : -1126.4164084 Eh     change       -0.3592451E-02 Eh
   gradient norm :     0.0212838 Eh/a0  converged?    E=F G=F D=F
   step length   :     7.4839233 a0

........................................................................
.............................. CYCLE   33 ..............................
........................................................................
   1  -1144.6650233 -0.114467E+04  0.222E-03    0.63       0.0  T
   2  -1144.6650244 -0.110712E-05  0.152E-03    0.63       2.5  T
   3  -1144.6650264 -0.192497E-05  0.801E-04    0.63       4.7  T
   4  -1144.6650267 -0.343324E-06  0.568E-04    0.63       6.7  T
   5  -1144.6650271 -0.411749E-06  0.181E-04    0.63      21.0  T
   6  -1144.6650271 -0.344826E-07  0.690E-05    0.63      54.8  T
     SCC iter.                  ...        0 min, 25.547 sec
     gradient                   ...        0 min,  2.493 sec
 * total energy  : -1126.4198540 Eh     change       -0.3445563E-02 Eh
   gradient norm :     0.0194789 Eh/a0  converged?    E=F G=F D=F
   step length   :     9.9329776 a0

........................................................................
.............................. CYCLE   34 ..............................
........................................................................
   1  -1144.6762603 -0.114468E+04  0.208E-03    0.63       0.0  T
   2  -1144.6762615 -0.112855E-05  0.140E-03    0.63       2.7  T
   3  -1144.6762629 -0.147888E-05  0.762E-04    0.63       5.0  T
   4  -1144.6762632 -0.291250E-06  0.535E-04    0.63       7.1  T
   5  -1144.6762636 -0.373932E-06  0.170E-04    0.63      22.2  T
   6  -1144.6762636 -0.302553E-07  0.667E-05    0.63      56.8  T
     SCC iter.                  ...        0 min, 25.794 sec
     gradient                   ...        0 min,  2.430 sec
 * total energy  : -1126.4232139 Eh     change       -0.3359896E-02 Eh
   gradient norm :     0.0179316 Eh/a0  converged?    E=F G=F D=F
   step length   :    10.7456559 a0

........................................................................
.............................. CYCLE   35 ..............................
........................................................................
   1  -1144.6852116 -0.114469E+04  0.195E-03    0.63       0.0  T
   2  -1144.6852127 -0.112303E-05  0.129E-03    0.63       2.9  T
   3  -1144.6852138 -0.107584E-05  0.735E-04    0.63       5.1  T
   4  -1144.6852141 -0.285363E-06  0.498E-04    0.63       7.6  T
   5  -1144.6852144 -0.324811E-06  0.162E-04    0.63      23.4  T
   6  -1144.6852144 -0.271241E-07  0.645E-05    0.63      58.7  T
     SCC iter.                  ...        0 min, 26.198 sec
     gradient                   ...        0 min,  2.509 sec
 * total energy  : -1126.4264565 Eh     change       -0.3242648E-02 Eh
   gradient norm :     0.0170005 Eh/a0  converged?    E=F G=F D=F
   step length   :    10.6617836 a0

........................................................................
.............................. CYCLE   36 ..............................
........................................................................
   1  -1144.6927018 -0.114469E+04  0.187E-03    0.63       0.0  T
   2  -1144.6927029 -0.116219E-05  0.120E-03    0.63       3.2  T
   3  -1144.6927038 -0.812615E-06  0.698E-04    0.63       5.4  T
   4  -1144.6927040 -0.219636E-06  0.476E-04    0.63       8.0  T
   5  -1144.6927043 -0.309034E-06  0.159E-04    0.63      23.8  T
   6  -1144.6927043 -0.274761E-07  0.635E-05    0.63      59.6  T
     SCC iter.                  ...        0 min, 25.872 sec
     gradient                   ...        0 min,  2.559 sec
 * total energy  : -1126.4296017 Eh     change       -0.3145137E-02 Eh
   gradient norm :     0.0162376 Eh/a0  converged?    E=F G=F D=F
   step length   :    12.2600260 a0

........................................................................
.............................. CYCLE   37 ..............................
........................................................................
   1  -1144.6991130 -0.114470E+04  0.180E-03    0.63       0.0  T
   2  -1144.6991142 -0.119102E-05  0.113E-03    0.63       3.4  T
   3  -1144.6991148 -0.641917E-06  0.658E-04    0.63       5.8  T
   4  -1144.6991150 -0.141951E-06  0.454E-04    0.63       8.3  T
   5  -1144.6991153 -0.293414E-06  0.158E-04    0.63      23.9  T
   6  -1144.6991153 -0.297371E-07  0.617E-05    0.63      61.3  T
     SCC iter.                  ...        0 min, 25.678 sec
     gradient                   ...        0 min,  2.447 sec
 * total energy  : -1126.4326576 Eh     change       -0.3055946E-02 Eh
   gradient norm :     0.0156106 Eh/a0  converged?    E=F G=F D=F
   step length   :    12.2561373 a0

........................................................................
.............................. CYCLE   38 ..............................
........................................................................
   1  -1144.7042198 -0.114470E+04  0.171E-03    0.63       0.0  T
   2  -1144.7042210 -0.116626E-05  0.106E-03    0.63       3.6  T
   3  -1144.7042215 -0.517532E-06  0.618E-04    0.63       6.1  T
   4  -1144.7042216 -0.106888E-06  0.428E-04    0.63       8.8  T
   5  -1144.7042219 -0.259428E-06  0.157E-04    0.63      24.2  T
   6  -1144.7042219 -0.313908E-07  0.606E-05    0.63      62.5  T
     SCC iter.                  ...        0 min, 25.830 sec
     gradient                   ...        0 min,  2.513 sec
 * total energy  : -1126.4355913 Eh     change       -0.2933713E-02 Eh
   gradient norm :     0.0152721 Eh/a0  converged?    E=F G=F D=F
   step length   :    12.6983680 a0

........................................................................
.............................. CYCLE   39 ..............................
........................................................................
   1  -1144.7087917 -0.114471E+04  0.166E-03    0.63       0.0  T
   2  -1144.7087929 -0.113027E-05  0.101E-03    0.63       3.7  T
   3  -1144.7087933 -0.454106E-06  0.590E-04    0.63       6.4  T
   4  -1144.7087934 -0.702089E-07  0.409E-04    0.63       9.2  T
   5  -1144.7087936 -0.237057E-06  0.156E-04    0.63      24.2  T
   6  -1144.7087937 -0.352045E-07  0.592E-05    0.63      63.9  T
     SCC iter.                  ...        0 min, 25.524 sec
     gradient                   ...        0 min,  2.550 sec
 * total energy  : -1126.4384268 Eh     change       -0.2835446E-02 Eh
   gradient norm :     0.0148561 Eh/a0  converged?    E=F G=F D=F
   step length   :    15.6022260 a0

........................................................................
.............................. CYCLE   40 ..............................
........................................................................
   1  -1144.7129030 -0.114471E+04  0.159E-03    0.63       0.0  T
   2  -1144.7129041 -0.109818E-05  0.963E-04    0.63       3.9  T
   3  -1144.7129045 -0.417494E-06  0.549E-04    0.63       6.9  T
   4  -1144.7129045 -0.347447E-07  0.382E-04    0.63       9.9  T
   5  -1144.7129047 -0.199102E-06  0.155E-04    0.63      24.3  T
   6  -1144.7129048 -0.382108E-07  0.567E-05    0.63      66.7  T
     SCC iter.                  ...        0 min, 25.355 sec
     gradient                   ...        0 min,  2.461 sec
 * total energy  : -1126.4411568 Eh     change       -0.2730050E-02 Eh
   gradient norm :     0.0145518 Eh/a0  converged?    E=F G=F D=F
   step length   :    14.7273183 a0

........................................................................
.............................. CYCLE   41 ..............................
........................................................................
   1  -1144.7163282 -0.114472E+04  0.152E-03    0.63       0.0  T
   2  -1144.7163292 -0.103619E-05  0.912E-04    0.63       4.1  T
   3  -1144.7163296 -0.384585E-06  0.513E-04    0.63       7.4  T
   4  -1144.7163296 -0.211403E-07  0.358E-04    0.63      10.6  T
   5  -1144.7163298 -0.169120E-06  0.154E-04    0.63      24.5  T
   6  -1144.7163298 -0.401787E-07  0.550E-05    0.63      68.8  T
     SCC iter.                  ...        0 min, 25.475 sec
     gradient                   ...        0 min,  2.504 sec
 * total energy  : -1126.4437661 Eh     change       -0.2609273E-02 Eh
   gradient norm :     0.0143674 Eh/a0  converged?    E=F G=F D=F
   step length   :    15.1401519 a0

........................................................................
.............................. CYCLE   42 ..............................
........................................................................
   1  -1144.7295118 -0.114473E+04  0.393E-03    0.63       0.0  T
   2  -1144.7295165 -0.465793E-05  0.242E-03    0.63       1.6  T
   3  -1144.7295186 -0.212251E-05  0.135E-03    0.63       2.8  T
   4  -1144.7295191 -0.486764E-06  0.100E-03    0.63       3.8  T
   5  -1144.7295206 -0.149202E-05  0.326E-04    0.63      11.6  T
   6  -1144.7295208 -0.202966E-06  0.120E-04    0.63      31.6  T
   7  -1144.7295208 -0.218079E-07  0.531E-05    0.63      71.2  T
     SCC iter.                  ...        0 min, 30.067 sec
     gradient                   ...        0 min,  2.498 sec
 * total energy  : -1126.4476797 Eh     change       -0.3913631E-02 Eh
   gradient norm :     0.0124599 Eh/a0  converged?    E=F G=F D=F
   step length   :    11.2516153 a0
 * RMSD in coord.:     0.7529984 a0     energy gain  -0.1037899E+00 Eh
 * calculating model hessian...
Using Lindh-Hessian (1995)
 Shifting diagonal of input Hessian by    1.0004192378582957E-002
 Lowest  eigenvalues of input Hessian
    0.010000    0.010002    0.010002    0.010003    0.010004    0.010004
    0.010004    0.010004    0.000000    0.000000    0.000000    0.000000
    0.000000    0.000000    0.010004    0.010004    0.010005    0.010005
 Highest eigenvalues
    2.766479    2.769064    2.805288    2.806745    2.857393    2.857437


........................................................................
.............................. CYCLE   43 ..............................
........................................................................
   1  -1144.7183325 -0.114472E+04  0.208E-03    0.63       0.0  T
   2  -1144.7183334 -0.943657E-06  0.128E-03    0.63       3.0  T
   3  -1144.7183339 -0.412404E-06  0.816E-04    0.63       4.6  T
   4  -1144.7183341 -0.280767E-06  0.456E-04    0.63       8.3  T
   5  -1144.7183344 -0.315637E-06  0.179E-04    0.63      21.2  T
   6  -1144.7183345 -0.679117E-07  0.539E-05    0.63      70.2  T
     SCC iter.                  ...        0 min, 25.571 sec
     gradient                   ...        0 min,  2.460 sec
 * total energy  : -1126.4492008 Eh     change       -0.1521119E-02 Eh
   gradient norm :     0.0074875 Eh/a0  converged?    E=F G=F D=F
   step length   :     0.3244962 a0

........................................................................
.............................. CYCLE   44 ..............................
........................................................................
   1  -1144.6899874 -0.114469E+04  0.496E-03    0.63       0.0  T
   2  -1144.6899933 -0.591405E-05  0.314E-03    0.63       1.2  T
   3  -1144.6899975 -0.421879E-05  0.189E-03    0.63       2.0  T
   4  -1144.6899987 -0.115950E-05  0.113E-03    0.63       3.4  T
   5  -1144.6900004 -0.179579E-05  0.490E-04    0.63       7.7  T
   6  -1144.6900010 -0.522835E-06  0.136E-04    0.63      27.8  T
   7  -1144.6900010 -0.246869E-07  0.589E-05    0.63      64.3  T
     SCC iter.                  ...        0 min, 29.290 sec
     gradient                   ...        0 min,  2.450 sec
 * total energy  : -1126.4522068 Eh     change       -0.3005962E-02 Eh
   gradient norm :     0.0166060 Eh/a0  converged?    E=F G=F D=F
   step length   :     3.3385407 a0

........................................................................
.............................. CYCLE   45 ..............................
........................................................................
   1  -1144.6684597 -0.114467E+04  0.397E-03    0.63       0.0  T
   2  -1144.6684642 -0.456840E-05  0.259E-03    0.63       1.5  T
   3  -1144.6684681 -0.384997E-05  0.146E-03    0.63       2.6  T
   4  -1144.6684686 -0.497533E-06  0.952E-04    0.63       4.0  T
   5  -1144.6684698 -0.119828E-05  0.414E-04    0.63       9.1  T
   6  -1144.6684701 -0.363088E-06  0.116E-04    0.63      32.7  T
   7  -1144.6684701 -0.169089E-07  0.515E-05    0.63      73.5  T
     SCC iter.                  ...        0 min, 29.454 sec
     gradient                   ...        0 min,  2.439 sec
 * total energy  : -1126.4551384 Eh     change       -0.2931594E-02 Eh
   gradient norm :     0.0224549 Eh/a0  converged?    E=F G=F D=F
   step length   :     4.5518219 a0

........................................................................
.............................. CYCLE   46 ..............................
........................................................................
   1  -1144.6522971 -0.114465E+04  0.306E-03    0.63       0.0  T
   2  -1144.6523005 -0.336724E-05  0.206E-03    0.63       1.8  T
   3  -1144.6523036 -0.312118E-05  0.108E-03    0.63       3.5  T
   4  -1144.6523038 -0.173521E-06  0.759E-04    0.63       5.0  T
   5  -1144.6523044 -0.687188E-06  0.339E-04    0.63      11.2  T
   6  -1144.6523047 -0.237628E-06  0.948E-05    0.63      39.9  T
   7  -1144.6523047 -0.103769E-07  0.434E-05    0.63      87.3  T
     SCC iter.                  ...        0 min, 28.593 sec
     gradient                   ...        0 min,  2.532 sec
 * total energy  : -1126.4572327 Eh     change       -0.2094304E-02 Eh
   gradient norm :     0.0267916 Eh/a0  converged?    E=F G=F D=F
   step length   :     3.5328775 a0

........................................................................
.............................. CYCLE   47 ..............................
........................................................................
   1  -1144.6404157 -0.114464E+04  0.269E-03    0.63       0.0  T
   2  -1144.6404184 -0.270015E-05  0.183E-03    0.63       2.1  T
   3  -1144.6404210 -0.256784E-05  0.940E-04    0.63       4.0  T
   4  -1144.6404211 -0.125247E-06  0.697E-04    0.63       5.4  T
   5  -1144.6404217 -0.597470E-06  0.302E-04    0.63      12.5  T
   6  -1144.6404219 -0.183466E-06  0.848E-05    0.63      44.6  T
   7  -1144.6404219 -0.818136E-08  0.394E-05    0.63      96.0  T
     SCC iter.                  ...        0 min, 29.074 sec
     gradient                   ...        0 min,  2.456 sec
 * total energy  : -1126.4593311 Eh     change       -0.2098452E-02 Eh
   gradient norm :     0.0280777 Eh/a0  converged?    E=F G=F D=F
   step length   :     5.0562569 a0

........................................................................
.............................. CYCLE   48 ..............................
........................................................................
   1  -1144.6354173 -0.114464E+04  0.224E-03    0.63       0.0  T
   2  -1144.6354195 -0.217762E-05  0.151E-03    0.63       2.5  T
   3  -1144.6354213 -0.179870E-05  0.764E-04    0.63       5.0  T
   4  -1144.6354214 -0.844038E-07  0.581E-04    0.63       6.5  T
   5  -1144.6354218 -0.390335E-06  0.256E-04    0.63      14.8  T
   6  -1144.6354219 -0.129270E-06  0.721E-05    0.63      52.5  T
   7  -1144.6354219 -0.625232E-08  0.334E-05    0.63     113.3  T
     SCC iter.                  ...        0 min, 28.305 sec
     gradient                   ...        0 min,  2.444 sec
 * total energy  : -1126.4613617 Eh     change       -0.2030509E-02 Eh
   gradient norm :     0.0272624 Eh/a0  converged?    E=F G=F D=F
   step length   :     4.6646498 a0

........................................................................
.............................. CYCLE   49 ..............................
........................................................................
   1  -1144.6354543 -0.114464E+04  0.205E-03    0.63       0.0  T
   2  -1144.6354561 -0.180488E-05  0.135E-03    0.63       2.8  T
   3  -1144.6354573 -0.122202E-05  0.711E-04    0.63       5.3  T
   4  -1144.6354574 -0.887787E-07  0.543E-04    0.63       7.0  T
   5  -1144.6354578 -0.358676E-06  0.228E-04    0.63      16.6  T
   6  -1144.6354579 -0.104401E-06  0.647E-05    0.63      58.5  T
   7  -1144.6354579 -0.536011E-08  0.286E-05    0.63     132.3  T
     SCC iter.                  ...        0 min, 29.104 sec
     gradient                   ...        0 min,  2.508 sec
 * total energy  : -1126.4633832 Eh     change       -0.2021555E-02 Eh
   gradient norm :     0.0250040 Eh/a0  converged?    E=F G=F D=F
   step length   :     6.8513842 a0

........................................................................
.............................. CYCLE   50 ..............................
........................................................................
   1  -1144.6390763 -0.114464E+04  0.195E-03    0.63       0.0  T
   2  -1144.6390779 -0.158387E-05  0.122E-03    0.63       3.1  T
   3  -1144.6390786 -0.699556E-06  0.688E-04    0.63       5.5  T
   4  -1144.6390787 -0.101618E-06  0.510E-04    0.63       7.4  T
   5  -1144.6390790 -0.329052E-06  0.207E-04    0.63      18.3  T
   6  -1144.6390791 -0.906450E-07  0.588E-05    0.63      64.4  T
   7  -1144.6390791 -0.480577E-08  0.245E-05    0.63     154.6  T
     SCC iter.                  ...        0 min, 28.228 sec
     gradient                   ...        0 min,  2.547 sec
 * total energy  : -1126.4654379 Eh     change       -0.2054717E-02 Eh
   gradient norm :     0.0219543 Eh/a0  converged?    E=F G=F D=F
   step length   :     8.9146731 a0

........................................................................
.............................. CYCLE   51 ..............................
........................................................................
   1  -1144.6458311 -0.114465E+04  0.177E-03    0.63       0.0  T
   2  -1144.6458324 -0.131590E-05  0.105E-03    0.63       3.6  T
   3  -1144.6458328 -0.386171E-06  0.619E-04    0.63       6.1  T
   4  -1144.6458329 -0.724065E-07  0.449E-04    0.63       8.4  T
   5  -1144.6458332 -0.270253E-06  0.182E-04    0.63      20.8  T
   6  -1144.6458332 -0.702282E-07  0.516E-05    0.63      73.4  T
     SCC iter.                  ...        0 min, 24.441 sec
     gradient                   ...        0 min,  2.489 sec
 * total energy  : -1126.4674960 Eh     change       -0.2058089E-02 Eh
   gradient norm :     0.0192411 Eh/a0  converged?    E=F G=F D=F
   step length   :     7.8932691 a0

........................................................................
.............................. CYCLE   52 ..............................
........................................................................
   1  -1144.6537623 -0.114465E+04  0.161E-03    0.63       0.0  T
   2  -1144.6537635 -0.114109E-05  0.910E-04    0.63       4.2  T
   3  -1144.6537637 -0.236706E-06  0.544E-04    0.63       7.0  T
   4  -1144.6537637 -0.153241E-07  0.393E-04    0.63       9.6  T
   5  -1144.6537639 -0.206162E-06  0.161E-04    0.63      23.6  T
   6  -1144.6537640 -0.563784E-07  0.454E-05    0.63      83.4  T
     SCC iter.                  ...        0 min, 25.044 sec
     gradient                   ...        0 min,  2.466 sec
 * total energy  : -1126.4695221 Eh     change       -0.2026043E-02 Eh
   gradient norm :     0.0173146 Eh/a0  converged?    E=F G=F D=F
   step length   :    11.2156638 a0

........................................................................
.............................. CYCLE   53 ..............................
........................................................................
   1  -1144.6625191 -0.114466E+04  0.149E-03    0.63       0.0  T
   2  -1144.6625201 -0.988558E-06  0.826E-04    0.63       4.6  T
   3  -1144.6625203 -0.186690E-06  0.501E-04    0.63       7.6  T
   4  -1144.6625203 -0.116336E-07  0.356E-04    0.63      10.6  T
   5  -1144.6625205 -0.169924E-06  0.146E-04    0.63      26.0  T
   6  -1144.6625205 -0.446448E-07  0.425E-05    0.63      89.0  T
     SCC iter.                  ...        0 min, 24.492 sec
     gradient                   ...        0 min,  2.455 sec
 * total energy  : -1126.4715534 Eh     change       -0.2031388E-02 Eh
   gradient norm :     0.0159063 Eh/a0  converged?    E=F G=F D=F
   step length   :    14.6413521 a0

........................................................................
.............................. CYCLE   54 ..............................
........................................................................
   1  -1144.6716150 -0.114467E+04  0.138E-03    0.63       0.0  T
   2  -1144.6716159 -0.883636E-06  0.745E-04    0.63       5.1  T
   3  -1144.6716161 -0.151884E-06  0.458E-04    0.63       8.3  T
   4  -1144.6716161 -0.914520E-08  0.320E-04    0.63      11.8  T
   5  -1144.6716162 -0.135097E-06  0.131E-04    0.63      29.0  T
   6  -1144.6716163 -0.349353E-07  0.401E-05    0.63      94.3  T
     SCC iter.                  ...        0 min, 25.262 sec
     gradient                   ...        0 min,  2.470 sec
 * total energy  : -1126.4735512 Eh     change       -0.1997756E-02 Eh
   gradient norm :     0.0151733 Eh/a0  converged?    E=F G=F D=F
   step length   :    16.7700924 a0

........................................................................
.............................. CYCLE   55 ..............................
........................................................................
   1  -1144.6812030 -0.114468E+04  0.130E-03    0.63       0.0  T
   2  -1144.6812038 -0.792949E-06  0.690E-04    0.63       5.5  T
   3  -1144.6812039 -0.137064E-06  0.422E-04    0.63       9.0  T
   4  -1144.6812039 -0.780597E-08  0.285E-04    0.63      13.3  T
   5  -1144.6812040 -0.963310E-07  0.120E-04    0.63      31.6  T
   6  -1144.6812040 -0.288205E-07  0.373E-05    0.63     101.5  T
     SCC iter.                  ...        0 min, 24.375 sec
     gradient                   ...        0 min,  2.542 sec
 * total energy  : -1126.4755550 Eh     change       -0.2003795E-02 Eh
   gradient norm :     0.0148318 Eh/a0  converged?    E=F G=F D=F
   step length   :    19.4682375 a0

........................................................................
.............................. CYCLE   56 ..............................
........................................................................
   1  -1144.6914387 -0.114469E+04  0.122E-03    0.63       0.0  T
   2  -1144.6914394 -0.694941E-06  0.643E-04    0.63       5.9  T
   3  -1144.6914396 -0.134478E-06  0.396E-04    0.63       9.6  T
   4  -1144.6914396 -0.167563E-07  0.260E-04    0.63      14.6  T
   5  -1144.6914396 -0.746434E-07  0.108E-04    0.63      34.9  T
   6  -1144.6914397 -0.214943E-07  0.342E-05    0.63     110.8  T
     SCC iter.                  ...        0 min, 24.657 sec
     gradient                   ...        0 min,  2.447 sec
 * total energy  : -1126.4775602 Eh     change       -0.2005223E-02 Eh
   gradient norm :     0.0148201 Eh/a0  converged?    E=F G=F D=F
   step length   :    17.4175764 a0

........................................................................
.............................. CYCLE   57 ..............................
........................................................................
   1  -1144.7017484 -0.114470E+04  0.115E-03    0.63       0.0  T
   2  -1144.7017490 -0.629649E-06  0.605E-04    0.63       6.3  T
   3  -1144.7017492 -0.125079E-06  0.373E-04    0.63      10.2  T
   4  -1144.7017492 -0.203254E-07  0.242E-04    0.63      15.7  T
   5  -1144.7017492 -0.618084E-07  0.101E-04    0.63      37.5  T
   6  -1144.7017493 -0.185248E-07  0.321E-05    0.63     118.0  T
     SCC iter.                  ...        0 min, 24.647 sec
     gradient                   ...        0 min,  2.430 sec
 * total energy  : -1126.4795605 Eh     change       -0.2000240E-02 Eh
   gradient norm :     0.0149197 Eh/a0  converged?    E=F G=F D=F
   step length   :    21.9938985 a0

........................................................................
.............................. CYCLE   58 ..............................
........................................................................
   1  -1144.7121985 -0.114471E+04  0.112E-03    0.63       0.0  T
   2  -1144.7121991 -0.579326E-06  0.590E-04    0.63       6.4  T
   3  -1144.7121992 -0.131382E-06  0.362E-04    0.63      10.5  T
   4  -1144.7121993 -0.243533E-07  0.231E-04    0.63      16.4  T
   5  -1144.7121993 -0.548514E-07  0.940E-05    0.63      40.2  T
   6  -1144.7121993 -0.153257E-07  0.298E-05    0.63     126.9  T
     SCC iter.                  ...        0 min, 24.666 sec
     gradient                   ...        0 min,  2.462 sec
 * total energy  : -1126.4815517 Eh     change       -0.1991282E-02 Eh
   gradient norm :     0.0150920 Eh/a0  converged?    E=F G=F D=F
   step length   :    26.6264423 a0

........................................................................
.............................. CYCLE   59 ..............................
........................................................................
   1  -1144.7226500 -0.114472E+04  0.107E-03    0.63       0.0  T
   2  -1144.7226506 -0.525400E-06  0.570E-04    0.63       6.6  T
   3  -1144.7226507 -0.130470E-06  0.350E-04    0.63      10.8  T
   4  -1144.7226507 -0.287462E-07  0.224E-04    0.63      16.9  T
   5  -1144.7226508 -0.525024E-07  0.901E-05    0.63      42.0  T
   6  -1144.7226508 -0.142818E-07  0.293E-05    0.63     129.1  T
     SCC iter.                  ...        0 min, 23.914 sec
     gradient                   ...        0 min,  2.466 sec
 * total energy  : -1126.4835327 Eh     change       -0.1980975E-02 Eh
   gradient norm :     0.0152397 Eh/a0  converged?    E=F G=F D=F
   step length   :    25.9896349 a0

........................................................................
.............................. CYCLE   60 ..............................
........................................................................
   1  -1144.7333922 -0.114473E+04  0.103E-03    0.63       0.0  T
   2  -1144.7333927 -0.485517E-06  0.551E-04    0.63       6.9  T
   3  -1144.7333928 -0.123002E-06  0.336E-04    0.63      11.3  T
   4  -1144.7333928 -0.236939E-07  0.214E-04    0.63      17.7  T
   5  -1144.7333929 -0.470650E-07  0.867E-05    0.63      43.7  T
   6  -1144.7333929 -0.139539E-07  0.269E-05    0.63     140.7  T
     SCC iter.                  ...        0 min, 24.407 sec
     gradient                   ...        0 min,  2.481 sec
 * total energy  : -1126.4855007 Eh     change       -0.1967950E-02 Eh
   gradient norm :     0.0153767 Eh/a0  converged?    E=F G=F D=F
   step length   :    25.2937430 a0

........................................................................
.............................. CYCLE   61 ..............................
........................................................................
   1  -1144.7439248 -0.114474E+04  0.100E-03    0.62       0.0  T
   2  -1144.7439253 -0.447453E-06  0.543E-04    0.62       7.0  T
   3  -1144.7439254 -0.131402E-06  0.331E-04    0.62      11.4  T
   4  -1144.7439254 -0.305645E-07  0.212E-04    0.62      17.9  T
   5  -1144.7439255 -0.465477E-07  0.834E-05    0.62      45.4  T
   6  -1144.7439255 -0.127070E-07  0.275E-05    0.62     137.5  T
     SCC iter.                  ...        0 min, 24.285 sec
     gradient                   ...        0 min,  2.536 sec
 * total energy  : -1126.4874513 Eh     change       -0.1950597E-02 Eh
   gradient norm :     0.0154330 Eh/a0  converged?    E=F G=F D=F
   step length   :    30.7347654 a0

........................................................................
.............................. CYCLE   62 ..............................
........................................................................
   1  -1144.7545773 -0.114475E+04  0.971E-04    0.62       0.0  T
   2  -1144.7545777 -0.413320E-06  0.527E-04    0.62       7.2  T
   3  -1144.7545778 -0.118129E-06  0.320E-04    0.62      11.8  T
   4  -1144.7545778 -0.231066E-07  0.206E-04    0.62      18.4  T
   5  -1144.7545779 -0.461666E-07  0.816E-05    0.62      46.4  T
   6  -1144.7545779 -0.131818E-07  0.261E-05    0.62     144.9  T
     SCC iter.                  ...        0 min, 23.974 sec
     gradient                   ...        0 min,  2.512 sec
 * total energy  : -1126.4893892 Eh     change       -0.1937900E-02 Eh
   gradient norm :     0.0154185 Eh/a0  converged?    E=F G=F D=F
   step length   :    27.5394993 a0

........................................................................
.............................. CYCLE   63 ..............................
........................................................................
   1  -1144.7653147 -0.114477E+04  0.939E-04    0.62       0.0  T
   2  -1144.7653151 -0.378169E-06  0.513E-04    0.62       7.4  T
   3  -1144.7653152 -0.113597E-06  0.312E-04    0.62      12.1  T
   4  -1144.7653152 -0.227385E-07  0.200E-04    0.62      18.9  T
   5  -1144.7653153 -0.438038E-07  0.788E-05    0.62      48.1  T
   6  -1144.7653153 -0.125349E-07  0.252E-05    0.62     150.1  T
     SCC iter.                  ...        0 min, 25.166 sec
     gradient                   ...        0 min,  2.457 sec
[...]
   462   6 C      469   6 C                                       1.3977273
   468   6 C      469   6 C                                       1.3820799
   461   6 C      470   6 C                                       1.3965324
   470   6 C      471   6 C                                       1.4515068
   471   6 C      472   6 C                                       1.3496042
   435   6 C      473   6 C                                       1.4101197
   472   6 C      473   6 C                                       1.4488299
   470   6 C      474   7 N                                       1.3622782
   473   6 C      474   7 N                                       1.3482032
   437   6 C      475   1 H                                       1.0780865
   438   6 C      476   1 H                                       1.0777465
   440   7 N      477   1 H                                       1.0145683
   443   6 C      478   1 H                                       1.0844696
   444   6 C      479   1 H                                       1.0849562
   446   7 N      480   1 H                                       1.0129454
   447   6 C      481   1 H                                       1.0960399
   447   6 C      482   1 H                                       1.0900008
   447   6 C      483   1 H                                       1.0906943
   448   6 C      484   1 H                                       1.0831002
   449   6 C      485   1 H                                       1.0847225
   451   6 C      486   1 H                                       1.0779463
   452   6 C      487   1 H                                       1.0783756
   457   6 C      488   1 H                                       1.0780842
   458   6 C      489   1 H                                       1.0777259
   460   7 N      490   1 H                                       1.0145622
   463   6 C      491   1 H                                       1.0845797
   464   6 C      492   1 H                                       1.0830777
   466   7 N      493   1 H                                       1.0129685
   467   6 C      494   1 H                                       1.0907054
   467   6 C      495   1 H                                       1.0900118
   467   6 C      496   1 H                                       1.0959911
   468   6 C      497   1 H                                       1.0849697
   469   6 C      498   1 H                                       1.0846119
   471   6 C      499   1 H                                       1.0779881
   472   6 C      500   1 H                                       1.0783853
   501   6 C      502   6 C                                       1.4092443
   502   6 C      503   6 C                                       1.4180129
   503   6 C      504   6 C                                       1.3688431
   504   6 C      505   6 C                                       1.4207740
   502   6 C      506   7 N                                       1.3628477
   505   6 C      506   7 N                                       1.3698743
   505   6 C      507   6 C                                       1.4016158
   508   6 C      509   6 C                                       1.3978857
   509   6 C      510   6 C                                       1.3818092
   510   6 C      511   6 C                                       1.4004041
   511   6 C      512   7 N                                       1.3870259
   512   7 N      513   6 C                                       1.4568768
   511   6 C      514   6 C                                       1.3978288
   508   6 C      515   6 C                                       1.3961067
   514   6 C      515   6 C                                       1.3845315
   507   6 C      516   6 C                                       1.3965089
   516   6 C      517   6 C                                       1.4515324
   517   6 C      518   6 C                                       1.3495846
   516   6 C      519   7 N                                       1.3622760
   518   6 C      520   6 C                                       1.4488373
   519   7 N      520   6 C                                       1.3482644
   520   6 C      521   6 C                                       1.4101004
   521   6 C      522   6 C                                       1.4092804
   522   6 C      523   6 C                                       1.4180731
   523   6 C      524   6 C                                       1.3688028
   524   6 C      525   6 C                                       1.4207763
   522   6 C      526   7 N                                       1.3628381
   525   6 C      526   7 N                                       1.3698558
   525   6 C      527   6 C                                       1.4015390
   528   6 C      529   6 C                                       1.3961539
   529   6 C      530   6 C                                       1.3843112
   530   6 C      531   6 C                                       1.3978667
   531   6 C      532   7 N                                       1.3871820
   532   7 N      533   6 C                                       1.4569597
   531   6 C      534   6 C                                       1.4002726
   528   6 C      535   6 C                                       1.3977542
   534   6 C      535   6 C                                       1.3820354
   527   6 C      536   6 C                                       1.3965056
   536   6 C      537   6 C                                       1.4515117
   537   6 C      538   6 C                                       1.3495973
   501   6 C      539   6 C                                       1.4101317
   538   6 C      539   6 C                                       1.4488476
   536   6 C      540   7 N                                       1.3622638
   539   6 C      540   7 N                                       1.3482133
   503   6 C      541   1 H                                       1.0780818
   504   6 C      542   1 H                                       1.0777478
   506   7 N      543   1 H                                       1.0145639
   509   6 C      544   1 H                                       1.0844738
   510   6 C      545   1 H                                       1.0849569
   512   7 N      546   1 H                                       1.0129479
   513   6 C      547   1 H                                       1.0960591
   513   6 C      548   1 H                                       1.0900030
   513   6 C      549   1 H                                       1.0907151
   514   6 C      550   1 H                                       1.0831080
   515   6 C      551   1 H                                       1.0847234
   517   6 C      552   1 H                                       1.0779519
   518   6 C      553   1 H                                       1.0783773
   523   6 C      554   1 H                                       1.0780760
   524   6 C      555   1 H                                       1.0777182
   526   7 N      556   1 H                                       1.0145587
   529   6 C      557   1 H                                       1.0845756
   530   6 C      558   1 H                                       1.0830763
   532   7 N      559   1 H                                       1.0129872
   533   6 C      560   1 H                                       1.0907020
   533   6 C      561   1 H                                       1.0900126
   533   6 C      562   1 H                                       1.0959757
   534   6 C      563   1 H                                       1.0849648
   535   6 C      564   1 H                                       1.0846034
   537   6 C      565   1 H                                       1.0779930
   538   6 C      566   1 H                                       1.0783757
   567   6 C      568   6 C                                       1.4092615
   568   6 C      569   6 C                                       1.4180209
   569   6 C      570   6 C                                       1.3688628
   570   6 C      571   6 C                                       1.4207456
   568   6 C      572   7 N                                       1.3628341
   571   6 C      572   7 N                                       1.3698769
   571   6 C      573   6 C                                       1.4015771
   574   6 C      575   6 C                                       1.3978807
   575   6 C      576   6 C                                       1.3817943
   576   6 C      577   6 C                                       1.4003692
   577   6 C      578   7 N                                       1.3870150
   578   7 N      579   6 C                                       1.4568518
   577   6 C      580   6 C                                       1.3978291
   574   6 C      581   6 C                                       1.3960942
   580   6 C      581   6 C                                       1.3844988
   573   6 C      582   6 C                                       1.3965330
   582   6 C      583   6 C                                       1.4515188
   583   6 C      584   6 C                                       1.3495681
   582   6 C      585   7 N                                       1.3622532
   584   6 C      586   6 C                                       1.4488355
   585   7 N      586   6 C                                       1.3482583
   586   6 C      587   6 C                                       1.4101214
   587   6 C      588   6 C                                       1.4091477
   588   6 C      589   6 C                                       1.4180296
   589   6 C      590   6 C                                       1.3688079
   590   6 C      591   6 C                                       1.4207879
   588   6 C      592   7 N                                       1.3628366
   591   6 C      592   7 N                                       1.3698320
   591   6 C      593   6 C                                       1.4015573
   594   6 C      595   6 C                                       1.3961258
   595   6 C      596   6 C                                       1.3842680
   596   6 C      597   6 C                                       1.3977900
   597   6 C      598   7 N                                       1.3871922
   598   7 N      599   6 C                                       1.4568914
   597   6 C      600   6 C                                       1.4002061
   594   6 C      601   6 C                                       1.3976689
   600   6 C      601   6 C                                       1.3820553
   593   6 C      602   6 C                                       1.3965336
   602   6 C      603   6 C                                       1.4515155
   603   6 C      604   6 C                                       1.3496074
   567   6 C      605   6 C                                       1.4101306
   604   6 C      605   6 C                                       1.4488223
   602   6 C      606   7 N                                       1.3622626
   605   6 C      606   7 N                                       1.3482212
   569   6 C      607   1 H                                       1.0780780
   570   6 C      608   1 H                                       1.0777483
   572   7 N      609   1 H                                       1.0145635
   575   6 C      610   1 H                                       1.0844666
   576   6 C      611   1 H                                       1.0849435
   578   7 N      612   1 H                                       1.0129690
   579   6 C      613   1 H                                       1.0960334
   579   6 C      614   1 H                                       1.0899824
   579   6 C      615   1 H                                       1.0907514
   580   6 C      616   1 H                                       1.0830961
   581   6 C      617   1 H                                       1.0847121
   583   6 C      618   1 H                                       1.0779361
   584   6 C      619   1 H                                       1.0783641
   589   6 C      620   1 H                                       1.0780806
   590   6 C      621   1 H                                       1.0777020
   592   7 N      622   1 H                                       1.0145608
   595   6 C      623   1 H                                       1.0845380
   596   6 C      624   1 H                                       1.0830339
   598   7 N      625   1 H                                       1.0128520
   599   6 C      626   1 H                                       1.0905665
   599   6 C      627   1 H                                       1.0900002
   599   6 C      628   1 H                                       1.0958520
   600   6 C      629   1 H                                       1.0849252
   601   6 C      630   1 H                                       1.0845645
   603   6 C      631   1 H                                       1.0779804
   604   6 C      632   1 H                                       1.0783715
   633   6 C      634   6 C                                       1.4092218
   634   6 C      635   6 C                                       1.4180380
   635   6 C      636   6 C                                       1.3688831
   636   6 C      637   6 C                                       1.4207943
   634   6 C      638   7 N                                       1.3627597
   637   6 C      638   7 N                                       1.3697908
   637   6 C      639   6 C                                       1.4015256
   640   6 C      641   6 C                                       1.3978453
   641   6 C      642   6 C                                       1.3819640
   642   6 C      643   6 C                                       1.4003360
   643   6 C      644   7 N                                       1.3868844
   644   7 N      645   6 C                                       1.4567407
   643   6 C      646   6 C                                       1.3979178
   640   6 C      647   6 C                                       1.3962321
   646   6 C      647   6 C                                       1.3842410
   639   6 C      648   6 C                                       1.3966722
   648   6 C      649   6 C                                       1.4515936
   649   6 C      650   6 C                                       1.3495442
   648   6 C      651   7 N                                       1.3619985
   650   6 C      652   6 C                                       1.4488704
   651   7 N      652   6 C                                       1.3484520
   652   6 C      653   6 C                                       1.4097452
   653   6 C      654   6 C                                       1.4089796
   654   6 C      655   6 C                                       1.4180585
   655   6 C      656   6 C                                       1.3689380
   656   6 C      657   6 C                                       1.4207476
   654   6 C      658   7 N                                       1.3628730
   657   6 C      658   7 N                                       1.3696716
   657   6 C      659   6 C                                       1.4015409
   660   6 C      661   6 C                                       1.3962138
   661   6 C      662   6 C                                       1.3842578
   662   6 C      663   6 C                                       1.3978836
   663   6 C      664   7 N                                       1.3870191
   664   7 N      665   6 C                                       1.4568269
   663   6 C      666   6 C                                       1.4003455
   660   6 C      667   6 C                                       1.3977875
   666   6 C      667   6 C                                       1.3820350
   659   6 C      668   6 C                                       1.3965308
   668   6 C      669   6 C                                       1.4515218
   669   6 C      670   6 C                                       1.3497080
   633   6 C      671   6 C                                       1.4101088
   670   6 C      671   6 C                                       1.4487948
   668   6 C      672   7 N                                       1.3621463
   671   6 C      672   7 N                                       1.3481697
   635   6 C      673   1 H                                       1.0780705
   636   6 C      674   1 H                                       1.0777600
   638   7 N      675   1 H                                       1.0145257
   641   6 C      676   1 H                                       1.0846117
   642   6 C      677   1 H                                       1.0849812
   644   7 N      678   1 H                                       1.0128337 (min)
   645   6 C      679   1 H                                       1.0959843
   645   6 C      680   1 H                                       1.0900017
   645   6 C      681   1 H                                       1.0906372
   646   6 C      682   1 H                                       1.0830103
   647   6 C      683   1 H                                       1.0845777
   649   6 C      684   1 H                                       1.0779324
   650   6 C      685   1 H                                       1.0783191
   655   6 C      686   1 H                                       1.0781169
   656   6 C      687   1 H                                       1.0777452
   658   7 N      688   1 H                                       1.0145217
   661   6 C      689   1 H                                       1.0845851
   662   6 C      690   1 H                                       1.0830712
   664   7 N      691   1 H                                       1.0129215
   665   6 C      692   1 H                                       1.0907756
   665   6 C      693   1 H                                       1.0900086
   665   6 C      694   1 H                                       1.0960319
   666   6 C      695   1 H                                       1.0849847
   667   6 C      696   1 H                                       1.0846208
   669   6 C      697   1 H                                       1.0780147
   670   6 C      698   1 H                                       1.0783921

 * 4 distinct bonds (by element types)

   Z      Z             #   av. dist./Å        max./Å        min./Å
   1 H    6 C         222     1.0842166     1.0960912     1.0777020
   6 C    6 C         336     1.3920309     1.4518387     1.2226327
   1 H    7 N          40     1.0137619     1.0147509     1.0128337
   6 C    7 N         120     1.3811926     1.4570070     1.3481697


optimized geometry written to: xtbopt.xyz


           -------------------------------------------------
          | TOTAL ENERGY            -1126.598502190302 Eh   |
          | GRADIENT NORM               0.000711339212 Eh/α |
          | HOMO-LUMO GAP               0.587218865416 eV   |
           -------------------------------------------------

------------------------------------------------------------------------
 * finished run on 2022/07/31 at 04:39:51.865     
------------------------------------------------------------------------
 total:
 * wall-time:     0 d,  1 h, 55 min,  4.706 sec
 *  cpu-time:     0 d,  1 h, 54 min, 29.448 sec
 * ratio c/w:     0.995 speedup
 SCF:
 * wall-time:     0 d,  0 h,  3 min, 28.956 sec
 *  cpu-time:     0 d,  0 h,  3 min, 27.895 sec
 * ratio c/w:     0.995 speedup
 ANC optimizer:
 * wall-time:     0 d,  1 h, 51 min, 34.762 sec
 *  cpu-time:     0 d,  1 h, 51 min,  0.579 sec
 * ratio c/w:     0.995 speedup

