698
 energy: -1126.598502190302 gnorm: 0.000711339212 xtb: 6.5.1 (b24c23e)
C          162.63696636884362        0.44541363023079        0.04812406059509
C          163.23373555778326        0.53296309411658       -1.20328212785570
C          162.56665847086001        0.64220996659500       -2.45510753140704
C          163.51593273877941        0.65448689397919       -3.43865116246443
C          164.79437698592372        0.56627857801240       -2.81855061252593
N          164.57289055844979        0.49330057425710       -1.47210501264886
C          166.04796321824702        0.52423441147706       -3.44176495964391
C          166.06186603075716        0.63092144610544       -4.91932825578548
C          166.60886217788246       -0.38753978009612       -5.70212351163956
C          166.61359953667426       -0.30506797861751       -7.08406400945833
C          166.06745661546358        0.81211199077235       -7.72254636897354
N          166.09359685160678        0.97196286241876       -9.10024363396114
C          166.16852182947372       -0.20137173604008       -9.96047928920154
C          165.53159129641114        1.84348065978472       -6.94157747044142
C          165.52388395183957        1.74909468418876       -5.56272060349121
C          167.26680543312264        0.39019728293343       -2.77121078340070
C          168.56063441729563        0.43723376322900       -3.42740922494318
C          169.48796273298018        0.30604388085575       -2.45585884905863
N          167.43080359870802        0.24179484788204       -1.42717381382599
C          168.75994430875900        0.18385941421170       -1.20820823816290
C          169.40669809421718        0.04597954204754        0.03731349259042
C          168.78223183804909       -0.05526871741121        1.29587995935984
C          169.44020273349363       -0.17074488546802        2.54828049546062
C          168.48314154153377       -0.22972997782065        3.52404323294908
C          167.20992960718502       -0.15799049741255        2.89532833189066
N          167.44316683751464       -0.04981284863000        1.54921767275066
C          165.95532703045762       -0.15353595318813        3.51682291385543
C          165.93634942232677       -0.32625659037954        4.98718403711182
C          165.36566860476071        0.64208743521519        5.81559295380590
C          165.34628761340662        0.48715994175519        7.19117518992027
C          165.90103842814264       -0.65438470456526        7.77718731834315
N          165.85723753030803       -0.88896576276894        9.14330357874948
C          165.74497350425176        0.23302305935109       10.06546841919083
C          166.46476146345768       -1.63388394723329        6.95024404983729
C          166.48712200469953       -1.46704654407293        5.57864706471896
C          164.73651053695468        0.00152030452452        2.84622964537272
C          163.43431195830576       -0.05353935597925        3.49155281179887
C          162.51720071392825        0.12626476239563        2.51932475368765
C          163.25699122397708        0.27552108183959        1.27908289083327
N          164.58975502564141        0.19236009956352        1.51348764831438
H          161.55249109884835        0.49292984231231        0.05225272511792
H          161.49608173811342        0.69213926966333       -2.57524895454175
H          163.34867493689285        0.70601813449786       -4.50232209683281
H          165.30617165993854        0.40259783988952       -0.77683134356177
H          167.01840257065896       -1.26828857647093       -5.21948457335747
H          167.04379845990420       -1.11476787653114       -7.66060722007134
H          165.41309975860568        1.64683016659369       -9.42822016376159
H          165.39144766231314       -0.93351622347100       -9.71241490580610
H          166.03730307943246        0.12804936384428      -10.99120002966323
H          167.14804259422459       -0.67194585752073       -9.86677248521064
H          165.12099291812791        2.72234138022475       -7.42758136435376
H          165.11552648525534        2.56157596683626       -4.97148689036132
H          168.71816735220375        0.57543514255669       -4.48482241866096
H          170.56231572620734        0.29772364222051       -2.54813208369347
H          170.51023811987019       -0.19726687839310        2.67769638512902
H          168.64358915827788       -0.29993269989802        4.58756295943522
H          166.71382177857993        0.03710411010049        0.84906072286891
H          164.94943539643560        1.54160090916833        5.37513005070649
H          164.89714088433550        1.25911515429848        7.80393503017308
H          166.54254078178505       -1.57059636624538        9.44603652462993
H          164.75755396138314        0.68882424291646        9.98167824279844
H          166.51059319045865        0.99290741477049        9.87112937379289
H          165.86702405126570       -0.15039427827067       11.07846818965772
H          166.88406977928616       -2.53039155430596        7.39480963786379
H          166.91626788426535       -2.24040391288990        4.95081061508336
H          163.26681479662125       -0.22598185338141        4.54256435040573
H          161.44154917369980        0.14667655560864        2.60080141116774
C          290.46060592794748        0.43151547369532       -0.05703335418903
C          289.86736653787614        0.58094259383186        1.19023357606592
C          290.53823340662251        0.75609397003627        2.43251214631888
C          289.59221377916407        0.81561265390259        3.41751239684887
C          288.31202517289694        0.69191453583324        2.80724206643364
N          288.52926242168058        0.55077028763374        1.46550042563231
C          287.06051497603846        0.67847102244399        3.43599074720963
C          287.04976897280261        0.86284268695603        4.90580313609083
C          286.50364351903704       -0.11253036302700        5.74232594980711
C          286.49823655290635        0.04432004615430        7.11776361612351
C          287.04303133765734        1.19487788531029        7.69523612685190
N          287.01453943013905        1.42987677793323        9.06197027421658
C          286.93269245613948        0.30628656649608        9.98550503495020
C          287.57964822554305        2.18243848295004        6.85999369976946
C          287.58770877579684        2.01399268701926        5.48823278946402
C          285.84017834519926        0.50588969538236        2.77694280322229
C          284.54783006390574        0.58320859361107        3.43332755291122
C          283.61847251688823        0.39806344333887        2.47259205505918
N          285.67319026864880        0.28684278422045        1.44300905761317
C          284.34367420713318        0.21323569381422        1.23106413838063
C          283.69420910694748        0.00943207837080       -0.00385778213950
C          284.31519504559549       -0.15339159444442       -1.25767313239556
C          283.65331540551466       -0.33352465691865       -2.50036313907872
C          284.60718217188901       -0.43841893287677       -3.47531156024371
C          285.88230543798414       -0.33154800602575       -2.85548439838000
N          285.65333130762235       -0.15656146584260       -1.51568366742094
C          287.13482017914953       -0.35508847271095       -3.48079970695555
C          287.14851784658998       -0.60186334654263       -4.94052923741249
C          287.71417328223413        0.32403315500670       -5.81938326398110
C          287.72506213058608        0.10108210473899       -7.18569358877308
C          287.16635210937551       -1.06772301682105       -7.71102144924721
N          287.19982972334788       -1.36872857315872       -9.06443136777896
C          287.30204725560401       -0.29232557323371      -10.04065548985401
C          286.60897162279434       -2.00552839796428       -6.83305399467283
C          286.59518906593780       -1.77096675646803       -5.47133250101023
C          288.35512852386779       -0.16244991599755       -2.82275129112736
C          289.65573347595267       -0.24653607301022       -3.46805035216707
C          290.57484941984893       -0.01400520433422       -2.50893321241582
C          289.83788108427541        0.19647515586428       -1.27588380934940
N          288.50482303659390        0.09700844337707       -1.50197170079326
H          291.54489958392855        0.48259661975354       -0.06688264822274
H          291.60904380959653        0.81544539927849        2.54624026592789
H          289.76291767566210        0.92169793037706        4.47658166545635
H          287.79380396546895        0.42233812670672        0.77851147186172
H          286.09496891950312       -1.01833739515023        5.30773131980086
H          286.06822045499189       -0.73338158994018        7.73689146090641
H          287.69546495844617        2.12039553482798        9.35441055241034
H          287.70848816663323       -0.44067089894926        9.78164175742993
H          287.06080561141795        0.69192563056321       10.99692918313924
H          285.95210877206392       -0.16594600741827        9.91390645958345
H          287.98983914312970        3.08631801315473        7.29811156836205
H          287.99569732995354        2.79376497508494        4.85424351756882
H          284.39249827192901        0.77652893684235        4.48236984561333
H          282.54439962342542        0.39103999035799        2.56810260902564
H          282.58295367159769       -0.36975703710466       -2.62448719954206
H          284.44321727084650       -0.56200451932935       -4.53339720509934
H          286.38489885534199       -0.03231636868138       -0.82351939854230
H          288.13263296567953        1.24439667887673       -5.42669780104188
H          288.17016803947814        0.84163730677059       -7.83883509500823
H          286.51221793225329       -2.06431260502767       -9.32777241856962
H          288.29035805663420        0.16632794086447       -9.98995255599020
H          286.53885422030754        0.47650378645260       -9.87448889852224
H          287.16850999220668       -0.72383686727239      -11.03260418831501
H          286.18716931045020       -2.92295907021221       -7.23002904734862
H          286.17050495360445       -2.51241580970038       -4.80326240412129
H          289.82092546372547       -0.47245488221924       -4.50924924960899
H          291.65022264188849        0.00560480672611       -2.59437853382626
C          172.03462612420219        0.00245771869081        0.04672612514257
C          170.81201202525079        0.01912563706865        0.04010637117799
C          173.38341570079967       -0.00769261200787        0.04853940295216
C          174.60626415679846       -0.01154783626279        0.04638596232868
C          185.49595243095814       -0.00545953162081        0.03017245644427
C          184.27279750499051       -0.01570485456941        0.03568954306020
C          186.84416499574786        0.00883712737983        0.02832017430626
C          188.06726381501778        0.02201550784974        0.02239874406430
C          198.95884701016573        0.03261954571487        0.00866906589736
C          197.73562225343971        0.02755206335415        0.01452073503887
C          200.30709238741102        0.04132291581917        0.00716164073237
C          201.53026991375532        0.04712103285859        0.00150887830891
C          212.41977872474774        0.02686851385921        0.00063774767680
C          211.19656946769445        0.02066809387279        0.00507596986946
C          213.76800086328055        0.03561926037213        0.00026159999803
C          214.99120136180437        0.04172105537022       -0.00407740774230
C          225.88017522532499        0.02726047824197        0.00092469917960
C          224.65694372626777        0.02132300049695        0.00469788758523
C          227.22838657321572        0.03765779291177        0.00053771186653
C          228.45161305732006        0.04732575046972       -0.00411489749548
C          239.34048818913377        0.03934991763668        0.00173947832948
C          238.11725731788351        0.03350918440609        0.00651135513070
C          240.68872555566227        0.04979985259644        0.00175631581260
C          241.91194817552224        0.05783597016492       -0.00446335680054
C          252.80125023404784        0.02656678142689       -0.01024352864640
C          251.57806653365367        0.02314939178457       -0.00158435553472
C          254.14949618384730        0.03229639842401       -0.01551007381882
C          255.37270592494772        0.03429857254194       -0.02738434011905
C          266.26055360197796       -0.08768181299480       -0.05787300499589
C          265.03745398946154       -0.07461287109740       -0.05091957017174
C          267.60873044949096       -0.09593543782688       -0.05751348403968
C          268.83189044080871       -0.10301639166117       -0.05767541253822
C          279.71799169385821       -0.06468437876151       -0.01149089595937
C          278.49523874567399       -0.07800717940085       -0.01539667881138
C          281.06660135972061       -0.04526086797456       -0.00736645159043
C          282.28900647579769       -0.02223610477157       -0.00226310526355
C          176.01082135426844       -0.00240279634687        0.04526053525861
C          176.63725944699340        0.03829672550709        1.30659835449378
C          175.98652823032938        0.03093947627056        2.56644074146802
C          176.95060816787242        0.05724095025508        3.53790966943325
C          178.21835728798754        0.09215251012218        2.89746752128845
N          177.97798331918315        0.07314637774178        1.54917523992967
C          179.47779264199426        0.11030858454962        3.51234697448831
C          179.48732728719011        0.16369561303409        4.99322680001188
C          180.09697383922651       -0.84777856524667        5.74093837693829
C          180.09394896780640       -0.80540776785391        7.12217450641949
C          179.48497069322661        0.25770404425424        7.80032819088115
N          179.55475044203359        0.28546289513860        9.18551666371618
C          178.56350121682777        1.04037389226293        9.94054361510528
C          178.88935592088100        1.28090106615501        7.05731128114108
C          178.88604696647246        1.22393583375078        5.67397963513403
C          180.70318548435134        0.08271095887700        2.84344040641650
C          181.98945672046241        0.17626548330279        3.50952374696994
C          182.92733636921616        0.13029666361641        2.54019931001918
N          180.88109969462698       -0.00158696648379        1.49539570022132
C          182.21254591044271        0.01951944892581        1.28473422060435
C          182.86874244249336       -0.03374774936788        0.03764774463561
C          182.24211503358649       -0.08568548095576       -1.22344517419467
C          182.89295709014121       -0.08598417390052       -2.48345178787325
C          181.92897293106805       -0.11100140968976       -3.45482356191113
C          180.66091921847638       -0.13727877561942       -2.81434719397020
N          180.90137995236975       -0.11697519482679       -1.46588081594184
C          179.40170245068387       -0.14490668523796       -3.42916985326495
C          179.38842432723669       -0.19179396127033       -4.91021688537884
C          178.78716079783271        0.82835923398487       -5.64986599054731
C          178.77033673836937        0.79525683692587       -7.03363068184360
C          179.34549419363185       -0.27995953436386       -7.71710299783683
N          179.39453981988055       -0.34312618384114       -9.10195403539686
C          178.39801312189496        0.37036191266447       -9.88981755585437
C          179.95532768638901       -1.30258242366794       -6.98011383449700
C          179.97875099702242       -1.25507107979258       -5.59906394021616
C          178.17613807173629       -0.11038887066912       -2.76021134497357
C          176.88935611295497       -0.19052158718080       -3.42729182286925
C          175.95144489627177       -0.14431108433302       -2.45810852678276
C          176.66662610397051       -0.04716133386721       -1.20180227674923
N          177.99855031738798       -0.03336754362564       -1.41203950984811
H          174.91770197219816       -0.00025007570667        2.70424117727034
H          176.79696744746983        0.03945092180408        4.60452921167603
H          178.70011859274706        0.07444909455449        0.83653008407364
H          180.55609317919365       -1.68680924724577        5.22975573786844
H          180.56331656837503       -1.60152275726053        7.69052429895823
H          179.72937951713760       -0.62845406243751        9.58597596123897
H          177.54238471718233        0.77020946209342        9.64779478208519
H          178.70570062973971        0.81908291991997       10.99832110468354
H          178.71009282089079        2.10999556023982        9.78518552816312
H          178.42957084833617        2.12716221660557        7.55285625762873
H          178.42943096670916        2.02961651507856        5.10916659993501
H          182.13481067227809        0.28296837463144        4.57228569169524
H          184.00019157191829        0.17645364408387        2.63881102260551
H          183.96186482018956       -0.05971621073801       -2.62130146366459
H          182.08253114683197       -0.09701040468521       -4.52146354784320
H          180.17911741516292       -0.11082557097663       -0.75340843233318
H          178.34516885617086        1.67219288878236       -5.13131959616300
H          178.31023028385724        1.61165168864294       -7.57663132282631
H          179.55394939374978       -1.28317821828656       -9.44409843974990
H          178.55587554537621        1.44638361012555       -9.80657740910023
H          178.52216933848575        0.07950602616735      -10.93292810895892
H          177.37945346943297        0.12914534378920       -9.56491559913387
H          180.40863103570800       -2.13883331995147       -7.50197924938715
H          180.43699283889907       -2.06485283951525       -5.04170661023814
H          176.74336312176763       -0.28881557180563       -4.49079108545974
H          174.87835204463912       -0.18225023994796       -2.55729132531282
C          189.47122919646770        0.04180071208484        0.02082148643152
C          190.09764039752937        0.10345085615859        1.28162831692398
C          189.44686756249368        0.11079545748675        2.54142973420816
C          190.41094746184612        0.14774206385243        3.51248088472009
C          191.67877810519590        0.17450731356925        2.87175918899688
N          191.43829629403533        0.14178106279404        1.52363033603347
C          192.93812348178437        0.19455180312918        3.48670352840423
C          192.94760943932960        0.25693392429558        4.96720610506161
C          193.55385497431865       -0.75276992258826        5.72010166249594
C          193.55006376755017       -0.70398698762985        7.10106811238976
C          192.94384431565388        0.36410264704182        7.77383490899070
N          193.01235741665667        0.39771952251071        9.15880391407943
C          192.02408338970164        1.16050727019062        9.90981563106215
C          192.35221039288712        1.38580870867385        7.02554644245540
C          192.34938197882451        1.32232285020637        5.64251907100359
C          194.16393986959466        0.15775084394075        2.81880190597297
C          195.44990482455580        0.25289944827950        3.48526793000469
C          196.38854831194391        0.19610643773389        2.51723892622751
N          194.34280571935736        0.06189377288758        1.47169953967305
C          195.67457489312912        0.07709718132366        1.26211495944449
C          196.33160567626820        0.01278133485544        0.01599187882941
C          195.70540719912765       -0.04642814686365       -1.24507032768834
C          196.35634102139068       -0.05400911379088       -2.50489224421834
C          195.39235564155072       -0.08516099933502       -3.47620772277238
C          194.12436838534080       -0.10837893666931       -2.83566898329276
N          194.36468611713647       -0.07934304759296       -1.48735669707537
C          192.86506473887238       -0.12384512472424       -3.45035741051118
C          192.85174437251661       -0.18146538927453       -4.93106597890102
C          192.24753435323763        0.83195260544365       -5.67755995297652
C          192.22989286194476        0.78895625377245       -7.06102108668263
C          192.80689390442421       -0.28989020106807       -7.73719350625762
N          192.85462424452936       -0.36291010862405       -9.12163129671258
C          191.85609130979662        0.34345252382546       -9.91337140511344
C          193.41966408278765       -1.30574398286867       -6.99336822730336
C          193.44412409396790       -1.24819613888078       -5.61268384827551
C          191.63923222875201       -0.08887008344373       -2.78213907662878
C          190.35339806308386       -0.18274669078974       -3.44911237317012
C          189.41456966047039       -0.13217818020344       -2.48091228649133
C          190.12831576998522       -0.01724842722482       -1.22538563635777
N          191.46010357368473        0.00110319040292       -1.43478068849369
H          188.37809769461771        0.08131847046843        2.67968094484933
H          190.25723242307825        0.14179286721209        4.57919800296570
H          192.16031670802172        0.13348549204534        0.81092031809703
H          194.01057000820674       -1.59562577866209        5.21312649035877
H          194.01653074842469       -1.49894146910817        7.67338618088775
H          193.18289308691757       -0.51503685673106        9.56357190798535
H          191.00201845541022        0.89404790777839        9.61718592849074
H          192.16429603535229        0.94293391965472       10.96862779636021
H          192.17604427732908        2.22869695703543        9.75005926832313
H          191.89489420339547        2.23581796692685        7.51685646123810
H          191.89560379708911        2.12671399921078        5.07363860021384
H          195.59458992486933        0.36807291860884        4.54722715333588
H          197.46146072032488        0.23979234275109        2.61640590304758
H          197.42525616631647       -0.02833278086466       -2.64284056733188
H          195.54604875268868       -0.07747500249630       -4.54289321193809
H          193.64254415937191       -0.06900738764185       -0.77481327139714
H          191.80367638373093        1.67827968685001       -5.16470509639652
H          191.76758074144402        1.60040801890498       -7.60953574852768
H          193.01501290047378       -1.30516197126894       -9.45719579268557
H          192.01321423173249        1.42023142106923       -9.83905968022915
H          191.97854093903973        0.04437738921075      -10.95433200272194
H          190.83831505680951        0.10406090055320       -9.58473205354800
H          193.87441486360080       -2.14479868672210       -7.50943196919392
H          193.90473747347170       -2.05287815676012       -5.04992441074032
H          190.20877138145951       -0.29283307748849       -4.51165709425936
H          188.34173448350612       -0.17714964948278       -2.58032415647351
C          202.93430573366734        0.06014542589799        0.00146922201032
C          203.55906970635812        0.11906853902914        1.26326386683317
C          202.90624809308801        0.12838614465033        2.52201481885338
C          203.86884145313465        0.16017396377975        3.49472528972998
C          205.13782731015667        0.18212209606247        2.85614782720452
N          204.89945573798599        0.15150684749113        1.50756279890178
C          206.39639638297530        0.19668643107460        3.47287366525394
C          206.40464722778464        0.25767765478103        4.95337208457780
C          207.00877398626017       -0.75354437312360        5.70596330448285
C          207.00423957182585       -0.70573720276787        7.08697141272019
C          206.39919943123334        0.36272450066197        7.76018748787777
N          206.46668969042022        0.39523133708946        9.14529138970011
C          205.47637376299107        1.15557252896332        9.89606319469560
C          205.80976981654374        1.38595280916329        7.01224469806624
C          205.80784388453932        1.32358883966407        5.62919252159503
C          207.62276273793853        0.15653092205634        2.80608007518764
C          208.90838350730704        0.24834263714148        3.47368918061451
C          209.84768093912328        0.19039808679629        2.50638031093228
N          207.80252105423693        0.06101622310498        1.45909382196742
C          209.13450600065909        0.07350281887717        1.25061359889136
C          209.79253338654198        0.00779035357549        0.00513371996774
C          209.16782685419136       -0.05157229519382       -1.25668382134542
C          209.82078600541323       -0.06224782866117       -2.51543358732802
C          208.85834052266009       -0.09291420122733       -3.48828717589909
C          207.58927932256975       -0.11257631711031       -2.84978729508264
N          207.82746188477162       -0.08223506442106       -1.50111818225552
C          206.33076017883207       -0.12521786249289       -3.46633399144350
C          206.31977517864937       -0.18489892538300       -4.94690639347435
C          205.71812223074244        0.82814085397238       -5.69601114173092
C          205.70406377158056        0.78384133689303       -7.07948341587289
C          206.28246496854499       -0.29580235811815       -7.75318993348799
N          206.33423449236241       -0.36988482179935       -9.13740694300671
C          205.33696605123268        0.33439878051188       -9.93258574694923
C          206.89262872883387       -1.31135924472200       -7.00677284357112
C          206.91325894615619       -1.25266308238317       -5.62610378602039
C          205.10437233707256       -0.08455738494430       -2.79942010837401
C          203.81871929756971       -0.17429022951533       -3.46726982266931
C          202.87931039242523       -0.11749800687501       -2.49995828458532
C          203.59247076775739       -0.00352949878924       -1.24399440767103
N          204.92447250348275        0.00867400610127       -1.45233637079385
H          201.83712276689209        0.10332377655962        2.65843168565101
H          203.71320687480295        0.15384520787337        4.56116492063101
H          205.62285206231070        0.14060570270644        0.79627738193966
H          207.46443355352767       -1.59684744866965        5.19875868683704
H          207.46917082321801       -1.50184370204752        7.65894927152841
H          206.63744000744254       -0.51792528534119        9.54909814985370
H          204.45512828823982        0.88615449744622        9.60349456474965
H          205.61717881026067        0.93885559395684       10.95497267684202
H          205.62535136320008        2.22401294002453        9.73583421098283
H          205.35358547891789        2.23637093693926        7.50389985958843
H          205.35611745787833        2.12935998813709        5.06065689422539
H          209.05243576843560        0.36252156642225        4.53583762756593
H          210.92059789254145        0.23192300430422        2.60639479762900
H          210.88996557121808       -0.03885310088877       -2.65171006247810
H          209.01388733150355       -0.08699546314900       -4.55471254418522
H          207.10398298186243       -0.06911077524627       -0.78996368897413
H          205.27369705431641        1.67542532853728       -5.18522115487079
H          205.24375727576216        1.59510764242297       -7.62996377737937
H          206.49695974736102       -1.31217016537233       -9.47177046267137
H          205.49204207718017        1.41149180697355       -9.85841722718824
H          205.46306101543055        0.03490527860440      -10.97300419379797
H          204.31860300984306        0.09346677471683       -9.60687506821406
H          207.34849151494765       -2.15099172139785       -7.52093913311543
H          207.37180797829396       -2.05717683784334       -5.06141746432402
H          203.67447031311980       -0.28602689387129       -4.52969457644226
H          201.80637172668835       -0.15797737331611       -2.60023799151627
C          216.39519143391655        0.05738118994527       -0.00361368463849
C          217.01926893323935        0.11776744765199        1.25843490506886
C          216.36564286047215        0.12766110310075        2.51676712191849
C          217.32758796447368        0.16104222294359        3.49005230894721
C          218.59696067601089        0.18302132406670        2.85225669106803
N          218.35947375090623        0.15121020295687        1.50353445798882
C          219.85513284560918        0.19823949318138        3.46979498552648
C          219.86263339176895        0.25958964541912        4.95027101332967
C          220.46711211220602       -0.75127885647689        5.70313975362991
C          220.46208891648132       -0.70341786480466        7.08411752098065
C          219.85614800787263        0.36470273341494        7.75714467660043
N          219.92356978293813        0.39711781166008        9.14229042163584
C          218.93328404057462        1.15746311212262        9.89315240148591
C          219.26624951903494        1.38749197814304        7.00898614416286
C          219.26488543698952        1.32510570408227        5.62588369795436