164
 energy: -281.973202614056 gnorm: 4.642023082348 xtb: 6.5.1 (b24c23e)
C           15.25869100000000       -0.00164000000000        0.00001200000000
C           15.99312400000000       -1.37879800000000       -0.07187400000000
C           15.40597900000000       -2.62246200000000       -0.13679100000000
C           16.45789700000000       -3.57836000000000       -0.18669200000000
C           17.64634900000000       -2.88117500000000       -0.15030300000000
N           17.35465700000000       -1.54549600000000       -0.08057600000000
C           19.07770500000000       -3.49949700000000       -0.18258900000000
C           20.20026600000000       -2.75469000000000       -0.14370600000000
C           21.48525200000000       -3.40715600000000       -0.17777500000000
C           22.42253600000000       -2.46592800000000       -0.12863800000000
N           20.42209700000000       -1.41247300000000       -0.07362900000000
C           21.77147500000000       -1.16806000000000       -0.06087700000000
C           22.46823700000000       -0.00030800000000        0.00008300000000
C           21.69357200000000        1.39197900000000        0.07277100000000
C           22.25715000000000        2.65251800000000        0.13858400000000
C           21.19912600000000        3.59667600000000        0.18787300000000
C           20.02121500000000        2.88674700000000        0.15080100000000
N           20.32656400000000        1.54961100000000        0.08099200000000
C           18.58841800000000        3.51130900000000        0.18339800000000
C           17.47089700000000        2.76170100000000        0.14426400000000
C           16.16712800000000        3.38642200000000        0.17686900000000
C           15.25064500000000        2.42236900000000        0.12654400000000
C           15.94470000000000        1.15673200000000        0.06048100000000
N           17.28078200000000        1.41795800000000        0.07412000000000
H           14.17597400000000        0.00657700000000        0.00043800000000
H           14.34530200000000       -2.82012900000000       -0.14710700000000
H           16.35863200000000       -4.65142300000000       -0.24270800000000
H           18.03468200000000       -0.78945700000000       -0.04111300000000
H           19.15574700000000       -4.57893000000000       -0.23894700000000
H           21.65021300000000       -4.46807100000000       -0.23316700000000
H           23.48057500000000       -2.65332600000000       -0.13842600000000
H           23.31252500000000        2.87729400000000        0.15032400000000
H           21.28755300000000        4.67077200000000        0.24395000000000
H           19.64786100000000        0.79176900000000        0.04142600000000
H           18.50718600000000        4.59018800000000        0.23971600000000
H           15.98115400000000        4.44357800000000        0.23205100000000
H           14.18376400000000        2.55176900000000        0.13329400000000
C           73.12949100000000        0.00100300000000       -0.00015800000000
C           72.39505699999999        1.35753900000000       -0.24823300000000
C           72.98220300000000        2.58258100000000       -0.47226000000000
C           71.93028499999998        3.52416500000000       -0.64445600000000
C           70.74183200000000        2.83741900000000       -0.51887100000000
N           71.03352500000000        1.52174100000000       -0.27826200000000
C           69.31047700000001        3.44648000000000       -0.63026300000000
C           68.18791600000000        2.71282700000000       -0.49609200000000
C           66.90293000000000        3.35552200000000       -0.61363600000000
C           65.96564600000001        2.42838800000000       -0.44408100000000
N           67.96608500000001        1.39071100000000       -0.25429700000000
C           66.61670599999999        1.14995700000000       -0.21027500000000
C           65.91994500000000       -0.00030800000000        0.00008300000000
C           66.69461000000000       -1.37174600000000        0.25089500000000
C           66.13103099999999       -2.61340800000000        0.47797800000000
C           67.18905500000000       -3.54342700000000        0.64805800000000
C           68.36696700000000       -2.84413000000000        0.52016000000000
N           68.06161800000000       -1.52701800000000        0.27928300000000
C           69.79976399999998       -3.45934000000000        0.63266200000000
C           70.91728400000000       -2.72095800000000        0.49762600000000
C           72.22105300000000       -3.33632500000000        0.61015600000000
C           73.13753600000000       -2.38670800000000        0.43649300000000
C           72.44348200000000       -1.14002300000000        0.20850800000000
N           71.10739999999998       -1.39733700000000        0.25556800000000
H           74.21220700000001       -0.00709100000000        0.00131900000000
H           74.04287900000000        2.77728800000000       -0.50786600000000
H           72.02954900000000        4.58115900000000       -0.83775500000000
H           70.35350000000000        0.77702300000000       -0.14207400000000
H           69.23243400000000        4.50974800000000       -0.82472000000000
H           66.73796900000001        4.40054800000000       -0.80475700000000
H           64.90760700000000        2.61298000000000       -0.47784300000000
H           65.07565700000001       -2.83481700000000        0.51847400000000
H           67.10062800000000       -4.60143800000000        0.84155200000000
H           68.74032099999999       -0.78052500000000        0.14276200000000
H           69.88099600000000       -4.52206500000000        0.82700800000000
H           72.40702799999998       -4.37765100000000        0.80058700000000
H           74.20441799999999       -2.51417100000000        0.45979900000000
C           29.13979400000000       -0.00030200000000        0.00887500000000
C           27.93085400000000       -0.01375700000000        0.00042800000000
C           26.50932600000000       -0.00493800000000       -0.01155500000000
C           25.29765600000000        0.00250100000000       -0.00069200000000
C           30.55639800000000       -0.00697700000000        0.00940800000000
C           31.77709400000000        0.00250100000000       -0.00069200000000
C           44.79753500000000       -0.00030200000000        0.00887500000000
C           43.58859500000000       -0.01375700000000        0.00042800000000
C           42.16706700000000       -0.00493800000000       -0.01155500000000
C           40.95539700000000        0.00250100000000       -0.00069200000000
C           46.21413900000000       -0.00697700000000        0.00940800000000
C           47.43483500000000        0.00250100000000       -0.00069200000000
C           60.45527599999999       -0.00030200000000        0.00887500000000
C           59.24633700000000       -0.01375700000000        0.00042800000000
C           57.82480799999999       -0.00493800000000       -0.01155500000000
C           56.61313800000000        0.00250100000000       -0.00069200000000
C           61.87188000000000       -0.00697700000000        0.00940800000000
C           63.09257599999999        0.00250100000000       -0.00069200000000
C           32.71052400000000       -0.00030800000000        0.00008800000000
C           33.49056400000000        1.38722700000000       -0.01723800000000
C           32.93845900000000        2.65332800000000       -0.03306100000000
C           34.00707600000000        3.58595200000000       -0.04469300000000
C           35.17798400000000        2.86232400000000       -0.03563400000000
N           34.85929099999999        1.52929700000000       -0.01899200000000
C           36.61035600000000        3.47699100000000       -0.04328100000000
C           37.73598100000000        2.73893900000000       -0.03407300000000
C           39.01627900000000        3.40233600000000       -0.04232600000000
C           39.96072900000000        2.46736400000000       -0.03066500000000
N           37.96597100000000        1.39844800000000       -0.01736600000000
C           39.31770300000000        1.16489400000000       -0.01444100000000
C           40.01991600000000       -0.00030800000000        0.00008800000000
C           39.23987600000000       -1.38784400000000        0.01736900000000
C           39.79198100000000       -2.65394700000000        0.03310500000000
C           38.72336400000000       -3.58657000000000        0.04474200000000
C           37.55245700000000       -2.86294100000000        0.03576900000000
N           37.87115000000000       -1.52991300000000        0.01916600000000
C           36.12008500000000       -3.47760800000000        0.04346100000000
C           34.99445999999999       -2.73955500000000        0.03426000000000
C           33.71416200000000       -3.40295200000000        0.04255700000000
C           32.76971200000000       -2.46798000000000        0.03089400000000
C           33.41273800000000       -1.16551000000000        0.01462600000000
N           34.76447000000000       -1.39906400000000        0.01752600000000
H           31.88525700000000        2.88855000000000       -0.03601600000000
H           33.93044700000000        4.66245200000000       -0.05814000000000
H           35.52410399999999        0.75868800000000       -0.00936500000000
H           36.68724400000000        4.55833000000000       -0.05675400000000
H           39.17342500000000        4.46588100000000       -0.05557900000000
H           41.01762299999999        2.66156700000000       -0.03307400000000
H           40.84518400000000       -2.88917000000000        0.03599900000000
H           38.79999400000000       -4.66307100000000        0.05813400000000
H           37.20633600000000       -0.75930300000000        0.00958200000000
H           36.04319600000000       -4.55894600000000        0.05696400000000
H           33.55701600000000       -4.46649600000000        0.05583800000000
H           31.71281800000000       -2.66218300000000        0.03333100000000
C           48.36826499999999       -0.00030800000000        0.00008800000000
C           49.14830500000000        1.38722700000000       -0.01723800000000
C           48.59620000000000        2.65332800000000       -0.03306100000000
C           49.66481700000000        3.58595200000000       -0.04469300000000
C           50.83572500000000        2.86232400000000       -0.03563400000000
N           50.51703200000000        1.52929700000000       -0.01899200000000
C           52.26809700000000        3.47699100000000       -0.04328100000000
C           53.39372200000000        2.73893900000000       -0.03407300000000
C           54.67402000000000        3.40233600000000       -0.04232600000000
C           55.61847000000000        2.46736400000000       -0.03066500000000
N           53.62371200000000        1.39844800000000       -0.01736600000000
C           54.97544400000000        1.16489400000000       -0.01444100000000
C           55.67765700000000       -0.00030800000000        0.00008800000000
C           54.89761699999999       -1.38784400000000        0.01736900000000
C           55.44972300000000       -2.65394700000000        0.03310500000000
C           54.38110500000000       -3.58657000000000        0.04474200000000
C           53.21019800000000       -2.86294100000000        0.03576900000000
N           53.52889100000000       -1.52991300000000        0.01916600000000
C           51.77782600000000       -3.47760800000000        0.04346100000000
C           50.65220100000000       -2.73955500000000        0.03426000000000
C           49.37190300000000       -3.40295200000000        0.04255700000000
C           48.42745300000000       -2.46798000000000        0.03089400000000
C           49.07047900000000       -1.16551000000000        0.01462600000000
N           50.42221100000000       -1.39906400000000        0.01752600000000
H           47.54299800000000        2.88855000000000       -0.03601600000000
H           49.58818800000000        4.66245200000000       -0.05814000000000
H           51.18184500000000        0.75868800000000       -0.00936500000000
H           52.34498500000000        4.55833000000000       -0.05675400000000
H           54.83116600000000        4.46588100000000       -0.05557900000000
H           56.67536400000000        2.66156700000000       -0.03307400000000
H           56.50292500000000       -2.88917000000000        0.03599900000000
H           54.45773499999999       -4.66307100000000        0.05813400000000
H           52.86407700000000       -0.75930300000000        0.00958200000000
H           51.70093700000000       -4.55894600000000        0.05696400000000
H           49.21475699999999       -4.46649600000000        0.05583800000000
H           47.37055900000000       -2.66218300000000        0.03333100000000
164
 energy: -283.560166127377 gnorm: 0.988277780678 xtb: 6.5.1 (b24c23e)
C           15.26437108836709       -0.01233651509421       -0.00054635482637
C           15.99019359563229       -1.37057482913525       -0.07144469164772
C           15.40725822320617       -2.62542885211858       -0.13694590106152
C           16.45484542792070       -3.57747912354762       -0.18664598528738
C           17.65464034998785       -2.88351261745587       -0.15042505575858
N           17.35466652114678       -1.54520918785490       -0.08056110685712
C           19.06640288612331       -3.49468480949750       -0.18233795287427
C           20.20270208948833       -2.75304385764697       -0.14361958815428
C           21.48623082757261       -3.40902258424073       -0.17787210267039
C           22.42507265100707       -2.46606706744271       -0.12864627176413
N           20.41988147912275       -1.41056421436325       -0.07352751064036
C           21.77298881674097       -1.16829997509745       -0.06089160244220
C           22.46037163350850        0.00942472971596        0.00057596303793
C           21.69799006563681        1.38370621478884        0.07233675944598
C           22.25632447624243        2.65480218401922        0.13870300208569
C           21.20222640966378        3.59569725686701        0.18782193241139
C           20.01295014948849        2.88879618952163        0.15090841986756
N           20.32665654266189        1.54934146794454        0.08097908917802
C           18.59949087126618        3.50646387566436        0.18314520008945
C           17.46863997012911        2.76011907462134        0.14418143603172
C           16.16595909393233        3.38853032358024        0.17697909748228
C           15.24854089133702        2.42344021230833        0.12659991039732
C           15.94619725219515        1.15898726800776        0.06059880715581
N           17.28290789962330        1.41567541323316        0.07400067160316
H           14.17715555057903        0.00538950010742        0.00037599844047
H           14.34560639259152       -2.82045357420244       -0.14712394663320
H           16.35828883850755       -4.65117231194668       -0.24269490561768
H           18.03436720472315       -0.78975459239234       -0.04112853448476
H           19.15453412780159       -4.57779522607839       -0.23888791500558
H           21.64996616524367       -4.46892322036113       -0.23321141452573
H           23.48170533973346       -2.65247743334486       -0.13838179027325
H           23.31234251553847        2.87733414312523        0.15032604094535
H           21.28789971551763        4.67048089500499        0.24393482512349
H           19.64823315671166        0.79211190333364        0.04144392195396
H           18.50852111374846        4.58908385027733        0.23965810186372
H           15.98137856918374        4.44452482888825        0.23210042363972
H           14.18283893640317        2.55149981216481        0.13327995127098
C           73.12381087433711        0.01153910924597       -0.00208478742896
C           72.39798738542501        1.34943941167505       -0.24675174408146
C           72.98092368522366        2.58550320655375       -0.47279442806064
C           71.93333632486059        3.52329721090548       -0.64429733949270
C           70.73354106497528        2.83972165035049       -0.51929215759057
N           71.03351548305450        1.52145848336197       -0.27821038566495
C           69.32177901670592        3.44174001496051       -0.62939582109095
C           68.18547999839548        2.71120653564728       -0.49579546513425
C           66.90195144910678        3.35736038096102       -0.61397234007636
C           65.96310993254816        2.42852492793381       -0.44410572703264
N           67.96830126366234        1.38883195039131       -0.25395375198997
C           66.61519512262441        1.15019326668944       -0.21031977340198
C           65.92783185405381       -0.00988449017164        0.00184573017222
C           66.69019200924990       -1.36359783833574        0.24940348182516
C           66.13185631354128       -2.61565790681491        0.47838953612549
C           67.18595460446600       -3.54246291347625        0.64788163936528
C           68.37523141405359       -2.84614838482131        0.52052938052103
N           68.06152586945835       -1.52675270165180        0.27923382023141
C           69.78869115675400       -3.45456755900437        0.63178943352191
C           70.91954116803848       -2.71939993356216        0.49734108189754
C           72.22222186827663       -3.33840173361703        0.61053577402987
C           73.13964020113931       -2.38776314832828        0.43668593275391
C           72.44198501150467       -1.14224447143379        0.20891433678510
N           71.10527399317128       -1.39508855071821        0.25515666606837
H           74.21102553830958       -0.00592129562781        0.00110508388003
H           74.04257468732176        2.77760771175845       -0.50792446083567
H           72.02989216552710        4.58091210167352       -0.83770984987056
H           70.35381479990478        0.77731612738441       -0.14212761108707
H           69.23364689249051        4.50863019134353       -0.82451570786872
H           66.73821585051424        4.40138744784039       -0.80491055108198
H           64.90647582054932        2.61214242265986       -0.47768971420791
H           65.07583967429223       -2.83485705698257        0.51848130365854
H           67.10028131381236       -4.60115122609628        0.84149956133072
H           68.73994889477929       -0.78086280752310        0.14282379053831
H           69.87966088002965       -4.52097726671194        0.82680901849453
H           72.40680340804326       -4.37858362341255        0.80075755356113
H           74.20534296921619       -2.51390583416239        0.45975050532065
C           29.14578391064524       -0.00055385734710        0.00896887170587
C           27.92243374569164       -0.01370214072167        0.00030940295943
C           26.51455841423919       -0.00498468159209       -0.01148522459694
C           25.29413828237625        0.00247567201696       -0.00065841049613
C           30.51572908568218       -0.00644094019611        0.00939349879084
C           31.65987809443982        0.00859288292827       -0.00074164589350
C           44.80737688364585       -0.00051181540999        0.00889754568014
C           43.57865311151422       -0.01359701931321        0.00034785851549
C           42.21210624358402       -0.00557835072692       -0.01163842818776
C           41.06910829938298       -0.00289999070765       -0.00060745003356
C           46.17120656423940       -0.00647627294865        0.00938733599789
C           47.31835911057683        0.00856712068470       -0.00072181673340
C           60.46365397041784       -0.00036691002342        0.00885246834345
C           59.24025895801179       -0.01355437742165        0.00030019406235
C           57.86760169452591       -0.00559693797658       -0.01164289835226
C           56.72759360062240       -0.00293860123097       -0.00057211799950
C           61.86840475799765       -0.00687205412391        0.00945068448261
C           63.09432911617044        0.00246181006915       -0.00071390927214
C           32.83790854770955        0.00798454924609       -0.00007909267191
C           33.49808809510667        1.38700681349971       -0.01724377972636
C           32.93917205657836        2.65412187896720       -0.03306987159012
C           34.00518892306240        3.58527536409130       -0.04468390601465
C           35.18523149188425        2.86507776044470       -0.03566803822567
N           34.86042987886773        1.53030898066118       -0.01900511791753
C           36.60084769685820        3.47207311336683       -0.04322027966249
C           37.73730368897960        2.73993581012099       -0.03408885798211
C           39.01692886741229        3.40495329089347       -0.04235939340210
C           39.96279339855912        2.46659964916460       -0.03065487712931
N           37.96436598085823        1.39625908852732       -0.01733692325014
C           39.29519637791197        1.17790549565176       -0.01456914122860
C           39.89364305235554       -0.00919590202263        0.00032848551596
C           39.23226717326295       -1.38779463222695        0.01738791137639
C           39.79123541950685       -2.65474662351787        0.03311539784379
C           38.72528747092397       -3.58594105660389        0.04473310519167
C           37.54494742596782       -2.86587184596091        0.03580499191388
N           37.87016062856514       -1.53081824416697        0.01917875706055
C           36.13010908532869       -3.47274764380944        0.04339968182668
C           34.99279627241177       -2.74022189341601        0.03426924393563
C           33.71360198690942       -3.40549389240925        0.04258946017646
C           32.76758662424409       -2.46706816017662        0.03088389577818
C           33.43464454438404       -1.17833749162643        0.01477679107280
N           34.76657129252532       -1.39722617523965        0.01750232156329
H           31.88542952882551        2.88840526905412       -0.03601420616602
H           33.93010485561300        4.66214625760624       -0.05813611247142
H           35.52378138181453        0.75903887646917       -0.00936953041429
H           36.68603288169562        4.55719928147456       -0.05673939216765
H           39.17321809054376        4.46675767587761       -0.05558995227244
H           41.01866172650673        2.66062422875374       -0.03306187688631
H           40.84500897200631       -2.88902279145204        0.03599755673254
H           38.80033675556904       -4.66277909056505        0.05813025949840
H           37.20669883070040       -0.75962973472294        0.00958628596749
H           36.04441254440361       -4.55781740409488        0.05694970854252
H           33.55723437720620       -4.46735253176292        0.05584878533966
H           31.71178380035473       -2.66123709280730        0.03331922220816
C           48.49508273021632        0.00813909014788       -0.00007575163806
C           49.15601832242267        1.38723980521461       -0.01724982549270
C           48.59694859515663        2.65411679270480       -0.03306970985374
C           49.66290191038608        3.58532434826622       -0.04468433030695
C           50.84323373997732        2.86526268073046       -0.03566996410358
N           50.51804102335106        1.53021447453657       -0.01900441338219
C           52.25807282863951        3.47213548536098       -0.04322092479374
C           53.39538572167582        2.73959079564428       -0.03408360266676
C           54.67459059774299        3.40487309206040       -0.04235839616601
C           55.62059384546787        2.46646610580828       -0.03065300799396
N           53.62158540532511        1.39662816077270       -0.01734110105038
C           54.95363255047605        1.17759429191998       -0.01456933613691
C           55.55081230233790       -0.00903743287576        0.00031055953039
C           54.89019435266436       -1.38756138890893        0.01738193783547
C           55.44901200856783       -2.65475329714081        0.03311590102123
C           54.38300237948462       -3.58589259585110        0.04473260046135
C           53.20294852619133       -2.86568659953404        0.03580299182732
N           53.52777010065774       -1.53091358235608        0.01918028200181
C           51.78733788075378       -3.47268573648774        0.04339919026001
C           50.65087467973221       -2.74056676480295        0.03427505590953
C           49.37126473601206       -3.40557378022158        0.04259048501022
C           48.42538661664166       -2.46719968478146        0.03088559890917
C           49.09307590427534       -1.17864984132647        0.01477455752771
N           50.42379501707700       -1.39685927600739        0.01749726763090
H           47.54317308182171        2.88839997779593       -0.03601421737407
H           49.58784496912865        4.66215968128391       -0.05813627993216
H           51.18148380107042        0.75901577676710       -0.00936925269857
H           52.34376800458046        4.55720195512380       -0.05673976044103
H           54.83094720097306        4.46673763137511       -0.05558968402489
H           56.67639664719891        2.66062615868521       -0.03306180745807
H           56.50275234524139       -2.88902805981026        0.03599759053556
H           54.45807686213352       -4.66276566869421        0.05813003676089
H           52.86440131731922       -0.75965322321355        0.00958652140767
H           51.70214763995173       -4.55781476213218        0.05694917059235
H           49.21496379451835       -4.46737218708599        0.05584901138668
H           47.36951919395141       -2.66123469645324        0.03331919998438
164
 energy: -283.872336778492 gnorm: 0.614495879326 xtb: 6.5.1 (b24c23e)
C           15.28666837203105       -0.04104520789555       -0.00204349424337
C           15.98682963805129       -1.35487751926165       -0.07062347392911
C           15.41194226701136       -2.62932410638006       -0.13714789137990
C           16.45056051285539       -3.57359800596403       -0.18644210243388
C           17.67013860753741       -2.88546463010699       -0.15052634822311
N           17.35518913385163       -1.54390248854513       -0.08049214816852
C           19.03648736784412       -3.47413108717040       -0.18126286230150
C           20.20382142989031       -2.74661493993846       -0.14327669130936
C           21.48957760132273       -3.41232319317519       -0.17804180502038
C           22.43344902489635       -2.46473088138062       -0.12858148399597
N           20.41546287534556       -1.40372253343108       -0.07316112230322
C           21.77544537049568       -1.16397147476557       -0.06068967362769
C           22.42762886318276        0.04185037282190        0.00222288591807
C           21.70566906560516        1.36775094906788        0.07148366493469
C           22.25421919846660        2.65648059274720        0.13878868773441
C           21.20737312681193        3.59065981234132        0.18756071334105
C           19.99830238087725        2.88976698499273        0.15096468236683
N           20.32794338935778        1.54766620974862        0.08089578874279
C           18.62966496107390        3.48589306908369        0.18207427037292
C           17.46897902041659        2.75430950790128        0.14387997820164
C           16.16375691372422        3.39409589407451        0.17727119384953
C           15.24308698359520        2.42546386520123        0.12670696966092
C           15.95199096600890        1.15890505651420        0.06059650850750
N           17.28985636809275        1.40823221614248        0.07361183655330
H           14.19173882367940       -0.00675859843046       -0.00025682710871
H           14.34880420479710       -2.82308240528850       -0.14725977750244
H           16.35544951310941       -4.64851794206092       -0.24255496884886
H           18.03377718739810       -0.79000735281191       -0.04114048618415
H           19.14191246185948       -4.56380475767893       -0.23815825543826
H           21.64865559504227       -4.47364218365431       -0.23345605309569
H           23.48993247308087       -2.64709618823975       -0.13810103844633
H           23.31079934738101        2.87805161138828        0.15036368119394
H           21.29092452152461        4.66709289634389        0.24375959497872
H           19.64979190416370        0.79245494852257        0.04146361995046
H           18.52205493473456        4.57519711111499        0.23893243744727
H           15.98288707033829        4.45069358484732        0.23242385530697
H           14.17687106229143        2.54969299226170        0.13318712844486
C           73.10151398707821        0.03981742621923       -0.00725134034638
C           72.40135123187849        1.33397889387440       -0.24391950097418
C           72.97623972505625        2.58934006577567       -0.47349150808853
C           71.93762095871755        3.51947467397719       -0.64359381057413
C           70.71804426937672        2.84164553484618       -0.51963974969793
N           71.03299307165621        1.52017184986394       -0.27797093221218
C           69.35169697116372        3.42149857454972       -0.62568898327842
C           68.18436399234149        2.70488300751270       -0.49463422364650
C           66.89860617742512        3.36061443267803       -0.61456383513140
C           65.95473896760193        2.42720963814082       -0.44386178054260
N           67.97273627674549        1.38210472423533       -0.25272049596853
C           66.61276656587485        1.14594521386286       -0.20954275468384
C           65.96063852673814       -0.04178662188018        0.00770521629924
C           66.68251720748677       -1.34787859760981        0.24652992224460
C           66.13396114340766       -2.61730862561034        0.47869465425677
C           67.18080728922959       -3.53750025091234        0.64697743598851