189
 energy: -378.027132921512 gnorm: 0.000431105070 xtb: 6.5.1 (b24c23e)
Cu          35.81545315754040        0.02656256915411       -0.07985419801780
C           32.40831159172248        0.03299732388890       -0.18920819444605
C           33.03400532633710        1.26944904359027       -0.13328234947999
C           32.34906217172446        2.52850841637194       -0.06319728552557
C           33.30041096948750        3.49356685194646       -0.01564118367969
C           34.57650231695883        2.83285892304511       -0.07022780810134
N           34.38297547339071        1.48265747252777       -0.12850386551341
C           35.81765628733960        3.47371910479805       -0.05860183954396
C           35.82366850690972        4.95839129705067       -0.02599020859829
C           35.24427743178611        5.68975876696688       -1.06289431967785
C           35.25096981844550        7.07929367323252       -1.02439356713131
O           34.69730117907979        7.80033826526560       -2.03015926891847
C           35.83169858932133        7.74251455405751        0.05773497056997
O           35.81930756018396        9.11290140118282        0.07048971000034
C           36.40798582963367        7.01226271588596        1.09389547257770
O           36.95513234905675        7.73248814963049        2.12329767383601
C           36.41014353471105        5.62364279706236        1.05428972052512
C           37.05533558026600        2.82602096028997       -0.07157797768305
C           38.32511431356897        3.48899310466738       -0.15724109737283
C           39.27922328611460        2.52363717451842       -0.14615256619220
N           37.25754176984388        1.47186717915553       -0.02454708597932
C           38.60322165922060        1.26543488767432       -0.05231061016552
C           39.25073125518828        0.01776892598551        0.00932929977514
C           38.59613508331483       -1.22675639651549        0.04941819325228
C           39.26563216844220       -2.49040977984993        0.12021290243269
C           38.30849078234245       -3.45143723150582        0.08742911899483
C           37.04186293478134       -2.78069463289837        0.01146501639999
N           37.25048026252701       -1.42635623203753       -0.00804618075240
C           35.80420198891673       -3.42067101124290       -0.07485496334948
C           35.79898528760079       -4.90725047736273       -0.08226447332056
C           36.23757732722647       -5.61877101748351        1.03386487156352
C           36.22899215883105       -7.00894098169713        1.02138767753855
O           36.64600642413598       -7.71149775064425        2.10319914283116
C           35.78774379315985       -7.69155630855030       -0.11320333381974
O           35.79476217706199       -9.06252998660731       -0.09855892759957
C           35.35211747325649       -6.98036432788030       -1.22803866442620
O           34.93669124251914       -7.71903899733383       -2.30543281496137
C           35.35190173517591       -5.59097922153400       -1.21570479187698
C           34.56855935822500       -2.77485681545899       -0.15924334367307
C           33.29162832204625       -3.43422819436596       -0.20764323684085
C           32.34314486892915       -2.46537920345612       -0.24026797157867
C           33.03072228652940       -1.20634667141051       -0.20549569258174
N           34.37811268216844       -1.42329744724905       -0.15744909178516
H           31.32329430952929        0.03501052017148       -0.20874217326231
H           31.27676505747066        2.64416761145345       -0.04414329990729
H           33.15736960041604        4.55942564993442        0.05983379998103
H           34.80345416845600        5.18630078598416       -1.91358130293201
H           34.80011382293294        8.74339084798690       -1.82064633523774
H           36.25872852807490        9.40770901321468        0.88400806947528
H           37.32965715795824        7.14517121386420        2.79279966966803
H           36.84880178036976        5.06111773196364        1.87013836156156
H           38.46533670776220        4.55492524214603       -0.23703345431587
H           40.34794825706645        2.64657031636073       -0.20859394235095
H           40.33311016414952       -2.61974697489948        0.18803070363593
H           38.44537035575046       -4.52042439412550        0.10692923445938
H           36.57050917558789       -5.09940439767032        1.92314125827938
H           36.56269193222553       -8.65822400218386        1.90199305687333
H           35.45851779392250       -9.37102927312130       -0.95499415213876
H           34.65346646099353       -7.14294255683552       -3.02745713010186
H           35.02237441432239       -5.04333127384945       -2.09089191112755
H           33.14595505496303       -4.50259440393181       -0.20304888935530
H           31.27106751506459       -2.57916990992465       -0.27736663587993
Cu          57.64125786892551       -0.06478710189072       -0.05154798729234
C           61.04803103947206       -0.07445198044799       -0.18362723177090
C           60.41555102250277       -1.30594919098788       -0.26446876542889
C           61.09364003939317       -2.56814440895852       -0.34149193588318
C           60.13707191797233       -3.52753979396454       -0.39901381243465
C           58.86463012642946       -2.85847110846405       -0.37218634875641
N           59.06523397940674       -1.51134134289365       -0.27669269696047
C           57.62018883497514       -3.49010334720486       -0.43129946507050
C           57.60611838824498       -4.96838845816857       -0.57136308295483
C           58.18022346564715       -5.57749415668802       -1.68719214087113
C           58.16653081291866       -6.96208991380136       -1.80984035289301
O           58.71544037983700       -7.56443099219234       -2.89318228975486
C           57.58427797639749       -7.74326919948204       -0.81036988245713
O           57.59050622886249       -9.10611421783399       -0.95569614357152
C           57.01303182063558       -7.13510204515996        0.30441182907369
O           56.46425559563635       -7.96687235668420        1.24529836580374
C           57.01767878487614       -5.75125430732294        0.42580737763197
C           56.38639912725453       -2.83869511917061       -0.36571261498943
C           55.11299336095772       -3.48008828407480       -0.52737913158227
C           54.16421516371459       -2.51815628116149       -0.39892528476863
N           56.19192166237502       -1.49859938932931       -0.15705490093240
C           54.84707645366381       -1.28383089162786       -0.15638995515063
C           54.20645063224229       -0.04968947411105        0.05748577226405
C           54.86858556045507        1.17771306143532        0.24154419469761
C           54.20692646252029        2.42754648868407        0.46455726280523
C           55.16933051813508        3.38106851137296        0.53824075398873
C           56.43133797731339        2.71757938420980        0.37530097356045
N           56.21508481474377        1.37571958693161        0.19902835748540
C           57.67151804240066        3.35765252170585        0.35441119023624
C           57.68454297045968        4.83502459689425        0.51967138897717
C           57.26450339977722        5.41311329922397        1.71700634475932
C           57.28026062845461        6.79526965443394        1.86625163093952
O           56.88129251247187        7.36832308022659        3.02807057850912
C           57.70988959208294        7.60369039482417        0.81264295910598
O           57.71048055549798        8.96310424233099        0.98734735738652
C           58.12640153798536        7.02553969653678       -0.38355907835182
O           58.53064227766601        7.88286439962916       -1.37350784049575
C           58.11977859190000        5.64409762637673       -0.53283604749596
C           58.90265550261074        2.72033559552916        0.18563956214483
C           60.18236743197500        3.37553603567564        0.20243114902235
C           61.12560051873259        2.41290328211258        0.05064495054638
C           60.43189897016508        1.16119299095924       -0.05355846296308
N           59.08586752379821        1.37660256694930        0.03030781924841
H           62.13286157456248       -0.07930659057204       -0.21122488344321
H           62.16534901890767       -2.69060430571797       -0.34119728082084
H           60.27432101158742       -4.59580178077681       -0.44564160313288
H           58.62207270819480       -4.98092522116066       -2.47478973712191
H           58.60549741144811       -8.52475620758398       -2.79582132788864
H           57.14806528507037       -9.49034338834077       -0.18216261320712
H           56.09070389741865       -7.45815815914874        1.97680262293050
H           56.58290495883020       -5.28471222136795        1.30204864062507
H           54.96720092660022       -4.52792618797438       -0.73445404922925
H           53.09487059532405       -2.62698355987953       -0.47418177481173
H           53.14059638104164        2.55320802758880        0.55370006383285
H           55.03910627592754        4.44112794513888        0.68367185751524
H           56.94043153746888        4.79473706757591        2.54407515511388
H           56.96284333688579        8.33206575231133        2.93602775806685
H           58.02911019940401        9.36962514665188        0.16578150263798
H           58.79676106084131        7.39406633649970       -2.16324779618830
H           58.43459377914771        5.20054993179822       -1.47019274433516
H           60.33315576093933        4.43573828176214        0.32833316092679
H           62.19793164079351        2.52565222193584        0.01764089330815
C           40.66093829164234        0.01475507372515        0.02046664575967
C           41.87869572483704        0.01251174842440        0.02869765929895
C           51.57869500159835       -0.03339113897788        0.08549669992977
C           52.79639244517351       -0.04068542511503        0.07465747843515
Cu          46.72882521161495       -0.00814119588167        0.05261357683322
C           43.28785674996060        0.00703492515520        0.03324597041361
C           43.94865514151419        1.23022716832845        0.25308535401629
C           43.29607223330510        2.46213326610265        0.57418776358301
C           44.25770420647007        3.41983818994801        0.62816693420532
C           45.50653153627231        2.77667946682695        0.33910909319906
N           45.28924608637983        1.43968893008422        0.13811647390298
C           46.74300704497442        3.42295790626371        0.25297692400909
C           46.74726515627214        4.90311776979935        0.32472968261238
C           47.49845092191195        5.56229379429239        1.29934595524281
C           47.50984644091610        6.95195569621359        1.37813938281645
O           48.22859884628902        7.60336946550252        2.32943894522189
C           46.76782253852015        7.70489987281254        0.46214001297527
O           46.76317744392260        9.06246903637196        0.50819295119159
C           46.02200161357523        7.03855559980874       -0.51397902122137
O           45.32245921247078        7.83502559314615       -1.38414223389224
C           46.00034855660915        5.65322829899844       -0.58664129081052
C           47.97453207195094        2.78033925986802        0.09985699624112
C           49.22977117908641        3.44132515750929       -0.11120051799615
C           50.18341581073128        2.47580826719786       -0.15980829032262
N           48.18035311338047        1.42711336178999        0.15025196676391
C           49.51958981897879        1.22092425114823        0.01632522015184
C           50.16955871146508       -0.02570890298957        0.08478338206525
C           49.50643399675168       -1.26561105969166        0.13933614280687
C           50.15465033027417       -2.53012926878838        0.30820998566580
C           49.19329200151567       -3.48509748824578        0.22139051717834
C           47.94876921705533       -2.80757222831518       -0.00187682138645
N           48.16770240812713       -1.45607027829413       -0.02157554333682
C           46.71538051333106       -3.43487769436246       -0.19585073777306
C           46.71305896910683       -4.91296954457971       -0.32189427615959
C           47.46939586417587       -5.52630529354807       -1.32210482484717
C           47.45447941116321       -6.90957308712144       -1.45451573651424
O           48.16968350686052       -7.51569911733519       -2.43161042849439
C           46.68830313551877       -7.68232918613141       -0.57960082459616
O           46.70341464956387       -9.06036619322119       -0.74335155378717
C           45.96395311965749       -7.07446004253096        0.44421952452329
O           45.24383335539212       -7.82854237809535        1.32380073537124
C           45.96105530245944       -5.68923137864295        0.56109301830929
C           45.48583897760479       -2.77774819831028       -0.28537496830641
C           44.23423102713080       -3.40607111702743       -0.59578465691815
C           43.28009212913870       -2.44227415490801       -0.53243009763133
C           43.93998138206617       -1.22013802362861       -0.18828067424214
N           45.27776199334479       -1.44205169006520       -0.06516347217099
H           42.23893645957506        2.57235909684241        0.75220945367188
H           44.13649129038570        4.46450565692357        0.86527136525392
H           48.06613729489057        4.98862915659215        2.02337047477195
H           48.70161125573934        6.98036580751735        2.89663072239467
H           46.19454632208257        9.38770969785202       -0.20832706686372
H           44.83906142261284        7.30008421908826       -2.02700020006499
H           45.42567381518266        5.16099553784119       -1.36245657931353
H           49.36088110535551        4.50469116171518       -0.22993905183739
H           51.24206330799214        2.59646094686841       -0.32005531443772
H           51.20882333761793       -2.66385573650040        0.48745514010572
H           49.31098978596280       -4.55213036370662        0.31982764851274
H           48.04875661593461       -4.93396611199871       -2.01851295881598
H           48.03270503428953       -8.47519290570503       -2.35938840801668
H           45.81522603651889       -9.42608747637982       -0.64001342497525
H           45.53842254144735       -8.74984762961328        1.29455623177045
H           45.39539265934363       -5.22780626130675        1.36008484743819
H           44.10647378040323       -4.44615339892574       -0.84860233737089
H           42.22366353072860       -2.54092277321055       -0.72023955969580
