236
 energy: -402.191252723996 gnorm: 0.657581569331 xtb: 6.5.1 (b24c23e)
Ni          46.96050600000000        0.53571900000000        0.41073500000000
C           43.62596300000000        0.40955400000000        0.36907600000000
C           44.28685500000000       -0.75184500000000        0.36984400000000
C           43.63497000000000       -2.05452700000000        0.42024100000000
C           44.57366399999999       -2.98141600000000        0.36538500000000
C           45.87854899999999       -2.31340900000000        0.26613300000000
N           45.70295000000000       -0.89602200000000        0.28051000000000
C           47.06898699999999       -2.93961400000000        0.15127000000000
C           47.12022900000000       -4.42026300000000        0.10199000000000
C           46.64952700000000       -5.08091700000000       -0.96682400000000
C           46.63866700000000       -6.58655700000000       -1.04101500000000
N           47.44232899999999       -7.20402000000000        0.01711100000000
C           47.88908200000000       -6.47573700000000        1.16543900000000
C           47.73989900000000       -5.15438700000000        1.22207000000000
C           48.35937800000000       -2.20507000000000        0.07408200000000
C           49.63965800000000       -2.83460400000000       -0.27339300000000
C           50.57416200000000       -1.90713500000000       -0.21311500000000
N           48.50514699999999       -0.94196400000000        0.33333100000000
C           49.89816399999999       -0.67493300000000        0.17269600000000
C           50.49417500000000        0.50474500000000        0.41228900000000
C           49.73015200000000        1.71402600000000        0.78762700000000
C           50.25428400000000        2.77563200000000        1.38755800000000
C           49.21217600000000        3.78148300000000        1.47088500000000
C           48.12224500000000        3.26774400000000        0.91113100000000
N           48.36039100000000        1.93590100000000        0.45356900000000
C           46.85111900000000        4.00850300000000        0.71051700000000
C           46.89033999999999        5.49239800000000        0.71584800000000
C           46.21367299999999        6.19083600000000        1.64286300000000
C           46.18924400000000        7.69789200000000        1.65414100000000
N           47.19603299999999        8.28101700000000        0.76355100000000
C           47.87231600000000        7.51262600000000       -0.23750700000000
C           47.73375600000000        6.18929800000000       -0.27539900000000
C           45.68977600000000        3.36010700000000        0.49696600000000
C           44.38833699999999        3.97310000000000        0.23550100000000
C           43.52503000000000        2.97884800000000        0.15111000000000
C           44.26693000000000        1.73391400000000        0.34320800000000
N           45.52894199999999        1.94399000000000        0.54548000000000
H           42.54273700000000        0.38456300000000        0.38389000000000
H           42.57207399999999       -2.24555600000000        0.49336600000000
H           44.38433300000000       -4.04615900000000        0.38818800000000
H           46.20250000000000       -4.53084200000000       -1.78706300000000
H           47.03597000000000       -6.90264600000000       -2.02927200000000
H           45.59015000000000       -6.94059400000000       -0.95241600000000
H           47.59314400000000       -8.23691300000000       -0.00964500000000
H           48.37082500000000       -7.00054600000000        1.98096500000000
H           48.09909600000000       -4.61236500000000        2.08911400000000
H           49.80705999999999       -3.87122300000000       -0.53553700000000
H           51.62531000000000       -2.06219500000000       -0.41444700000000
H           51.27571500000000        2.88915300000000        1.72586200000000
H           49.31616400000000        4.77671000000000        1.88402800000000
H           45.61406300000000        5.66874900000000        2.37950900000000
H           46.37419400000000        8.05127900000000        2.69023300000000
H           45.18158400000000        8.04144200000000        1.33863200000000
H           47.33871100000000        9.31482100000000        0.77971100000000
H           48.51313300000000        8.00976400000000       -0.95503000000000
H           48.26218600000000        5.61865100000000       -1.02967600000000
H           44.15018700000000        5.02296100000000        0.12783300000000
H           42.46260599999999        3.08125000000000       -0.03041500000000
Ni          76.89667900000001        0.47482600000000        0.40412300000000
C           80.23122200000000        0.60699300000000        0.39051500000000
C           79.57033100000000        1.74115900000000        0.64054800000000
C           80.22221500000001        3.00266200000000        0.96937800000000
C           79.28352099999999        3.91972300000000        1.11474800000000
C           77.97863599999998        3.28858800000000        0.87442800000000
N           78.15423500000000        1.90115000000000        0.58424200000000
C           76.78819900000001        3.92485300000000        0.89665100000000
C           76.73695600000001        5.38157000000000        1.16632600000000
C           77.20765800000000        6.25623600000000        0.26422600000000
C           77.21851800000000        7.74270900000000        0.51493400000000
N           76.41485699999998        8.11866500000000        1.68093100000000
C           75.96810300000000        7.16087900000000        2.64617600000000
C           76.11728599999999        5.85816900000000        2.41787300000000
C           75.49780699999999        3.22399600000000        0.66359900000000
C           74.21752700000000        3.91343900000000        0.45934600000000
C           73.28302300000000        2.99464900000000        0.31914800000000
N           75.35203799999999        1.93468400000000        0.64569300000000
C           73.95902099999999        1.70835500000000        0.43148700000000
C           73.36301000000000        0.50474500000000        0.41228900000000
C           74.12703399999999       -0.75691400000000        0.51931900000000
C           73.60290100000000       -1.92254700000000        0.87740400000000
C           74.64500900000000       -2.92283900000000        0.74289300000000
C           75.73493999999999       -2.30092900000000        0.30645400000000
N           75.49679399999999       -0.90191600000000        0.14542300000000
C           77.00606600000000       -2.98136400000000       -0.04848000000000
C           76.96684499999999       -4.43181800000000       -0.36177700000000
C           77.64351200000000       -5.31295200000000        0.39372000000000
C           77.66794100000000       -6.78730400000000        0.08126000000000
N           76.66115300000000       -7.16568200000000       -0.91373600000000
C           75.98486900000000       -6.20033300000000       -1.72653400000000
C           76.12343000000000       -4.89971400000000       -1.47950300000000
C           78.16741000000000       -2.30224300000000       -0.11788300000000
C           79.46884799999998       -2.84482800000000       -0.50482600000000
C           80.33215500000000       -1.85563500000000       -0.37384500000000
C           79.59025500000000       -0.68094900000000        0.08098900000000
N           78.32824300000000       -0.92954400000000        0.23345600000000
H           81.31444800000000        0.62822100000000        0.41034800000000
H           81.28511200000000        3.17354300000000        1.08180100000000
H           79.47285300000000        4.95475600000000        1.36555600000000
H           77.65468500000000        5.89503800000000       -0.65496500000000
H           76.82121500000000        8.26355000000000       -0.38244400000000
H           78.26703500000001        8.06947700000000        0.67745900000000
H           76.26404099999999        9.13322700000000        1.87649900000000
H           75.48636000000000        7.49841200000000        3.55534100000000
H           75.75809000000000        5.14267800000000        3.14836900000000
H           74.05012600000001        4.98216500000000        0.42581200000000
H           72.23187500000000        3.18930900000000        0.15579000000000
H           72.58147000000000       -2.10603600000000        1.18345700000000
H           74.54102100000000       -3.98354900000000        0.93279200000000
H           78.24312199999999       -4.96114700000000        1.22525700000000
H           77.48299100000000       -7.35484200000000        1.01735400000000
H           78.67560099999999       -7.05512600000000       -0.30063500000000
H           76.51847500000000       -8.17886000000000       -1.11984800000000
H           75.34405200000000       -6.53187500000000       -2.53403900000000
H           75.59499999999998       -4.18046900000000       -2.09371700000000
H           79.70699799999998       -3.84711000000000       -0.83532700000000
H           81.39457899999999       -1.91668800000000       -0.57311900000000
C           51.87171900000000        0.50474500000000        0.41228900000000
C           53.09363700000000        0.50474500000000        0.41228900000000
C           61.31763399999999        0.50474500000000        0.41228900000000
C           62.53955100000000        0.50474500000000        0.41228900000000
C           70.76354800000000        0.50474500000000        0.41228900000000
C           71.98546599999999        0.50474500000000        0.41228900000000
Ni          56.91700100000000        0.01965500000000       -0.27581000000000
C           54.08335100000000       -0.54016600000000       -0.44122100000000
C           54.40257900000000        0.50515600000000       -1.20621900000000
C           54.19841800000000        1.90565900000000       -0.83161800000000
C           55.00757100000000        2.65740100000000       -1.55936800000000
C           55.87254500000000        1.76696400000000       -2.33703300000000
N           55.45776999999999        0.41556300000000       -2.15631300000000
C           57.10508100000000        2.10477800000000       -2.75494300000000
C           57.44974700000000        3.52077900000000       -3.05307700000000
C           56.65619399999999        4.25345700000000       -3.85273000000000
C           56.96474200000000        5.68360400000000       -4.21438100000000
N           58.09309500000000        6.22418600000000       -3.45041900000000
C           58.95126199999999        5.40336500000000       -2.65626900000000
C           58.66125000000000        4.12221800000000       -2.45952200000000
C           58.20574299999999        1.13796500000000       -2.56202200000000
C           59.33569800000000        0.93849700000000       -3.47123700000000
C           60.23272299999999        0.20047800000000       -2.83399700000000
N           58.41643300000000        0.58359900000000       -1.41097000000000
C           59.69331700000000       -0.03478000000000       -1.49651100000000
C           60.35680500000000       -0.54016600000000       -0.44122100000000
C           59.75453900000000       -0.58875000000000        0.91424000000000
C           60.43277800000000       -0.59433000000000        2.05850200000000
C           59.45856500000000       -0.65131800000000        3.14052700000000
C           58.25056799999999       -0.68709500000000        2.58327600000000
N           58.35332800000000       -0.64576000000000        1.15840000000000
C           56.96211500000000       -0.83092400000000        3.32300800000000
C           56.97639300000000       -1.26327800000000        4.74351900000000
C           57.55532400000000       -2.42434200000000        5.08794900000000
C           57.62542000000000       -2.88641600000000        6.52022300000000
N           56.68313999999999       -2.16822600000000        7.37690900000000
C           56.15627500000000       -0.88799900000000        7.01182700000000
C           56.29716000000000       -0.44176300000000        5.76338600000000
C           55.78732500000000       -0.66418300000000        2.68331100000000
C           54.45675199999999       -1.06054800000000        3.15065200000000
C           53.65633099999999       -0.98762600000000        2.09547800000000
C           54.45283600000000       -0.49417200000000        0.97348900000000
N           55.68564100000000       -0.31850200000000        1.31333300000000
H           53.51909400000000        2.27438600000000       -0.07519400000000
H           55.10867100000000        3.72806500000000       -1.45167800000000
H           55.78038500000000        3.80178700000000       -4.30125400000000
H           57.19869400000000        5.73609300000000       -5.30075100000000
H           56.06411600000000        6.30493900000000       -4.01668900000000
H           58.33456200000000        7.22944000000000       -3.56647500000000
H           59.83113100000000        5.83125700000000       -2.19945800000000
H           59.31395400000000        3.52578000000000       -1.83557300000000
H           59.44114300000000        1.33761100000000       -4.47231300000000
H           61.19089500000000       -0.10536100000000       -3.23243200000000
H           61.50706199999999       -0.54938300000000        2.17103900000000
H           59.68063500000000       -0.68225900000000        4.20044100000000
H           58.04176999999999       -3.02883700000000        4.33712600000000
H           58.65491700000000       -2.72732000000000        6.89940100000000
H           57.39521800000000       -3.97207900000000        6.55847300000000
H           56.52224499999999       -2.51833900000000        8.34817500000000
H           55.61387999999999       -0.30382800000000        7.73696400000000
H           55.87891600000000        0.52363200000000        5.49686800000000
H           54.17792300000000       -1.42834400000000        4.12814500000000
H           52.61600100000000       -1.27269300000000        2.07337800000000
Ni          66.36291600000000        0.01965500000000       -0.27581000000000
C           63.52926500000000       -0.54016600000000       -0.44122100000000
C           63.84849400000000        0.50515600000000       -1.20621900000000
C           63.64433200000000        1.90565900000000       -0.83161800000000
C           64.45348500000000        2.65740100000000       -1.55936800000000
C           65.31846000000000        1.76696400000000       -2.33703300000000
N           64.90368500000000        0.41556300000000       -2.15631300000000
C           66.55099500000000        2.10477800000000       -2.75494300000000
C           66.89566100000000        3.52077900000000       -3.05307700000000
C           66.10210900000000        4.25345700000000       -3.85273000000000
C           66.41065600000000        5.68360400000000       -4.21438100000000
N           67.53901000000000        6.22418600000000       -3.45041900000000
C           68.39717600000000        5.40336500000000       -2.65626900000000
C           68.10716400000000        4.12221800000000       -2.45952200000000
C           67.65165800000000        1.13796500000000       -2.56202200000000
C           68.78161199999998        0.93849700000000       -3.47123700000000
C           69.67863800000001        0.20047800000000       -2.83399700000000
N           67.86234799999998        0.58359900000000       -1.41097000000000
C           69.13923100000000       -0.03478000000000       -1.49651100000000
C           69.80271999999999       -0.54016600000000       -0.44122100000000
C           69.20045300000000       -0.58875000000000        0.91424000000000
C           69.87869300000000       -0.59433000000000        2.05850200000000
C           68.90447899999999       -0.65131800000000        3.14052700000000
C           67.69648200000000       -0.68709500000000        2.58327600000000
N           67.79924200000001       -0.64576000000000        1.15840000000000
C           66.40802900000000       -0.83092400000000        3.32300800000000
C           66.42230700000000       -1.26327800000000        4.74351900000000
C           67.00123800000000       -2.42434200000000        5.08794900000000
C           67.07133399999999       -2.88641600000000        6.52022300000000
N           66.12905400000000       -2.16822600000000        7.37690900000000
C           65.60218900000000       -0.88799900000000        7.01182700000000
C           65.74307399999999       -0.44176300000000        5.76338600000000
C           65.23324000000000       -0.66418300000000        2.68331100000000
C           63.90266600000000       -1.06054800000000        3.15065200000000
C           63.10224599999999       -0.98762600000000        2.09547800000000
C           63.89875000000000       -0.49417200000000        0.97348900000000
N           65.13155600000000       -0.31850200000000        1.31333300000000
H           62.96500800000000        2.27438600000000       -0.07519400000000
H           64.55458600000000        3.72806500000000       -1.45167800000000
H           65.22629900000000        3.80178700000000       -4.30125400000000
H           66.64460800000001        5.73609300000000       -5.30075100000000
H           65.51003000000000        6.30493900000000       -4.01668900000000
H           67.78047700000000        7.22944000000000       -3.56647500000000
H           69.27704500000000        5.83125700000000       -2.19945800000000
H           68.75986899999999        3.52578000000000       -1.83557300000000
H           68.88705800000000        1.33761100000000       -4.47231300000000
H           70.63680900000000       -0.10536100000000       -3.23243200000000
H           70.95297600000001       -0.54938300000000        2.17103900000000
H           69.12654999999999       -0.68225900000000        4.20044100000000
H           67.48768400000000       -3.02883700000000        4.33712600000000
H           68.10083200000000       -2.72732000000000        6.89940100000000
H           66.84113200000000       -3.97207900000000        6.55847300000000
H           65.96815900000000       -2.51833900000000        8.34817500000000
H           65.05979400000000       -0.30382800000000        7.73696400000000
H           65.32483100000000        0.52363200000000        5.49686800000000
H           63.62383700000000       -1.42834400000000        4.12814500000000
H           62.06191499999999       -1.27269300000000        2.07337800000000
236
 energy: -402.458714644077 gnorm: 0.449514948523 xtb: 6.5.1 (b24c23e)
Ni          46.96944381052136        0.52777282704275        0.41086215263718
C           43.62628484650164        0.42750784300051        0.36828055209511
C           44.29428432119852       -0.75140923780589        0.37067636487299
C           43.63616140915786       -2.04651359630060        0.42030527510024
C           44.58560115700433       -2.98189911087300        0.36466324957493
C           45.87931383004780       -2.30445529031992        0.26847510169001
N           45.68824514261240       -0.90644092802643        0.27982787000362
C           47.08506873954794       -2.93592243138036        0.15273975811902
C           47.12704924505360       -4.41859386299881        0.10268851472283
C           46.64963015160114       -5.08198361381471       -0.95973561453401
C           46.64127246721200       -6.58880607073159       -1.03639904705012
N           47.45063084443994       -7.20141470703227        0.02679515609822
C           47.88282925114994       -6.48071609456658        1.15173148076148
C           47.73880407388890       -5.14935761730216        1.21659407674123
C           48.34837823348287       -2.22325682351814        0.07373223236822
C           49.62238826980020       -2.84738805928781       -0.27083042448238
C           50.56701646864622       -1.90011944119643       -0.21013078741807
N           48.50313523987385       -0.93433880477579        0.32046779362550
C           49.88162537535688       -0.68141260058603        0.16879845763470
C           50.46769493882737        0.51843713699205        0.41559330743696
C           49.71143626764132        1.70980806686081        0.77641001042495
C           50.25393271497342        2.79855619013109        1.39188599094766
C           49.23355432018080        3.78439441323939        1.47259488569651
C           48.11224978176104        3.25758672175663        0.89941265941069
N           48.35269993158450        1.93314473390380        0.46818003049605
C           46.86757760529083        3.99895781598945        0.70702073866152
C           46.89987559616554        5.48599873185466        0.71712067108332
C           46.21580567599589        6.18921612831350        1.63458762701254
C           46.19331700657855        7.69868687108117        1.64999677749988
N           47.20602714272521        8.27759004324924        0.75580328478680
C           47.86256037898226        7.51713329648346       -0.22571720544517
C           47.73123276909077        6.18337193331116       -0.27017296406890
C           45.69187123974268        3.35551769356227        0.49491484598601
C           44.39784392805268        3.96911110892324        0.23746422524435
C           43.51600465487817        2.96485989737978        0.15285675371644
C           44.24871217563314        1.72327204414932        0.34377373025026
N           45.53607959195368        1.94611298399375        0.53637721210970
H           42.54312226547156        0.39171464567474        0.38230239682732
H           42.57323994780297       -2.23552656315986        0.49325748789241
H           44.39730157480291       -4.04641538746079        0.38747137734221
H           46.20440667372622       -4.53671823790780       -1.78691684202544
H           47.03353132468179       -6.90457240231652       -2.02254782743350
H           45.59355735125745       -6.94268036096164       -0.95571121910778
H           47.58993047562051       -8.21720541663850       -0.00580517102867
H           48.36629416240052       -7.01043634820114        1.96827353632662
H           48.09693446427833       -4.61006795790535        2.08574372818642
H           49.79646776667147       -3.87748230780289       -0.53461765560955
H           51.62115865191082       -2.04998608176022       -0.41175703251045
H           51.27498227308863        2.89484238370955        1.72841464929521
H           49.32298318076327        4.77651827266966        1.88634694812837
H           45.61587266369430        5.67424262511942        2.37923192344919
H           46.37312375459737        8.05293791003774        2.68323198818773
H           45.18479378470560        8.04299019139313        1.34221730125808
H           47.33621096474980        9.29481022930151        0.77619882330104
H           48.50588704518854        8.01951851667023       -0.94365291947147
H           48.25971503216481        5.61615541687615       -1.02683359463164
H           44.16241313484661        5.02018620752477        0.12964964484000
H           42.45868767729330        3.07210490431587       -0.03052153491210
Ni          76.88747449111827        0.48255276742043        0.40607194357991
C           80.23099300062556        0.58943761385295        0.38595743729707
C           79.56273420770736        1.74050189928932        0.64143934476542
C           80.22097358307987        2.99475414755080        0.96777684048807
C           79.27155370199443        3.92039989987992        1.11431762806818
C           77.97785310027278        3.27976282734303        0.87476690934820
N           78.16906242129011        1.91135009825150        0.58560612289707
C           76.77264378015498        3.92106264326893        0.89741999271315
C           76.73021963178174        5.37972768701858        1.16672544980854
C           77.20744574660706        6.25574904815051        0.27144851529961
C           77.21598182305786        7.74392404857947        0.51999699079267
N           76.40648506623538        8.11419013035729        1.68971655267369
C           75.97429860493028        7.16849113966192        2.63404702522893
C           76.11839181243523        5.85449124801679        2.41148879067277
C           75.50852707821414        3.24197699749154        0.66781415645299
C           74.23550353379972        3.92485065408027        0.46476464538008
C           73.29125637034232        2.98504222340120        0.32061943030888
N           75.35435062324800        1.93008069655701        0.63150286738545
C           73.97724229391193        1.71254664507585        0.42588855671282
C           73.38625554464664        0.48412630513028        0.40901127234090
C           74.14312475196444       -0.75287441480865        0.51110753174828
C           73.60232677523409       -1.94770182645787        0.87703375273477
C           74.62376032688010       -2.92654027995685        0.74423272665343
C           75.74432669789110       -2.28826587562558        0.29720796961676
N           75.50235502198286       -0.90190264411422        0.15979206637423
C           76.98962691392587       -2.97104892682233       -0.04973143043937
C           76.95723138964023       -4.42574374479738       -0.35899045866498
C           77.64128975644149       -5.30956248637767        0.38608384982101
C           77.66388860451808       -6.78718507358110        0.07709226574836
N           76.65121097364677       -7.16072980427538       -0.92047599491279
C           75.99458804325529       -6.20719116705786       -1.71595370415911
C           76.12600088883345       -4.89505823047787       -1.47304797064062
C           78.16525127826482       -2.29733928847243       -0.11879911022954
C           79.45934511326030       -2.84137289345831       -0.50200752205546
C           80.34117986421224       -1.84235474322978       -0.36907345322886
C           79.60853605123292       -0.67055781116165        0.08395660752462
N           78.32108814770636       -0.92964692843583        0.22433448257526
H           81.31414161335277        0.62153289100140        0.40728747129890
H           81.28395673979382        3.16373226523919        1.07962049748650
H           79.45995421965718        4.95522136110399        1.36502045069540
H           77.65281701231075        5.90076059212917       -0.65345071241802
H           76.82368490049976        8.26405844578071       -0.37544441450308
H           78.26368989899738        8.07231199523839        0.67476132813304
H           76.26734236465367        9.11322351040591        1.87611055204881
H           75.49086959722958        7.51078961774052        3.54520815056209
H           75.76026396364948        5.14118631153264        3.14462037791776
H           74.06079647126614        4.98780347770936        0.42796387803767
H           72.23686186807197        3.17571191055556        0.15641786071921
H           72.58174893625554       -2.11332916376902        1.18485842494842
H           74.53445878844784       -3.98417483284449        0.93526239334192
H           78.24131079165882       -4.96646456575591        1.22387060683375
H           77.48406905087248       -7.35499081643450        1.01023448612118
H           78.67243607244232       -7.05747382919407       -0.29739782755217
H           76.52096386023454       -8.15858550822489       -1.11890930116761
H           75.35128875549937       -6.54384610843450       -2.52497296438150
H           75.59748302765838       -4.17866106572411       -2.09032747753500
H           79.69479582806902       -3.84483385541724       -0.83290039883379
H           81.39853706161868       -1.90776855489868       -0.57118331877052
C           51.84664980322932        0.50450638832698        0.42069747981339
C           53.06774564860375        0.46661110953147        0.43126398910012
C           61.29854360904892        0.48003666221620        0.38979461139417
C           62.53763656684455        0.46054018503441        0.42596169529082
C           70.77913765060914        0.49585128970393        0.36762973660129
C           72.00762499417684        0.50396880242881        0.39237694545170
Ni          56.94144475992111        0.01200975115274       -0.25724633555479
C           54.04364174970837       -0.51311908599969       -0.42000311408822
C           54.44524260787676        0.52499597329033       -1.20997132032032
C           54.19562106479668        1.91832523524626       -0.85581244113717
C           55.01415868307683        2.67076490050093       -1.57939851039531
C           55.87278414994181        1.76676946975444       -2.33435535433014
N           55.48459687997291        0.43154059394274       -2.12701427300417
C           57.11875235933670        2.11148002116213       -2.75795894772617
C           57.45552802390115        3.51744994446125       -3.05293497543438
C           56.66057878742325        4.25410744541392       -3.84908000565118
C           56.96929215290805        5.68473299081745       -4.21115484026759
N           58.10064200938527        6.22181443558941       -3.44187755033272
C           58.94001010194736        5.40888049224309       -2.66601243616077
C           58.65772120073940        4.11580757608143       -2.46382984433389
C           58.20790465813781        1.15372756869574       -2.58578516525510
C           59.32631607943392        0.95033430707084       -3.47819415440715
C           60.23358578801490        0.20220054943559       -2.82134812383794
N           58.40481284895108        0.55388861504066       -1.42993939464145
C           59.68872641696988       -0.03208266563557       -1.50251361572886
C           60.34243040703981       -0.50174117788770       -0.39932332697047
C           59.70468783388363       -0.59339232401562        0.90801365767321
C           60.39799800348806       -0.57927820874342        2.09334018554196
C           59.46468957976226       -0.64842413694914        3.14635718155765
C           58.22699278364854       -0.68767835405299        2.57149988834755