      -----------------------------------------------------------      
     |                   =====================                   |     
     |                           x T B                           |     
     |                   =====================                   |     
     |                         S. Grimme                         |     
     |          Mulliken Center for Theoretical Chemistry        |     
     |                    University of Bonn                     |     
      -----------------------------------------------------------      

   * xtb version 6.5.1 (b24c23e) compiled by 'conda@728c89f4b128' on 2022-07-12

   xtb is free software: you can redistribute it and/or modify it under
   the terms of the GNU Lesser General Public License as published by
   the Free Software Foundation, either version 3 of the License, or
   (at your option) any later version.
   
   xtb is distributed in the hope that it will be useful,
   but WITHOUT ANY WARRANTY; without even the implied warranty of
   MERCHANTABILITY or FITNESS FOR A PARTICULAR PURPOSE.  See the
   GNU Lesser General Public License for more details.
   
   Cite this work as:
   * C. Bannwarth, E. Caldeweyher, S. Ehlert, A. Hansen, P. Pracht,
     J. Seibert, S. Spicher, S. Grimme, WIREs Comput. Mol. Sci., 2020, 11,
     e01493. DOI: 10.1002/wcms.1493
   
   for GFN2-xTB:
   * C. Bannwarth, S. Ehlert and S. Grimme., J. Chem. Theory Comput., 2019,
     15, 1652-1671. DOI: 10.1021/acs.jctc.8b01176
   for GFN1-xTB:
   * S. Grimme, C. Bannwarth, P. Shushkov, J. Chem. Theory Comput., 2017,
     13, 1989-2009. DOI: 10.1021/acs.jctc.7b00118
   for GFN0-xTB:
   * P. Pracht, E. Caldeweyher, S. Ehlert, S. Grimme, ChemRxiv, 2019, preprint.
     DOI: 10.26434/chemrxiv.8326202.v1
   for GFN-FF:
   * S. Spicher and S. Grimme, Angew. Chem. Int. Ed., 2020, 59, 15665-15673.
     DOI: 10.1002/anie.202004239
   
   for ALPB and GBSA implicit solvation:
   * S. Ehlert, M. Stahn, S. Spicher, S. Grimme, J. Chem. Theory Comput.,
     2021, 17, 4250-4261. DOI: 10.1021/acs.jctc.1c00471
   
   for DFT-D4:
   * E. Caldeweyher, C. Bannwarth and S. Grimme, J. Chem. Phys., 2017,
     147, 034112. DOI: 10.1063/1.4993215
   * E. Caldeweyher, S. Ehlert, A. Hansen, H. Neugebauer, S. Spicher,
     C. Bannwarth and S. Grimme, J. Chem. Phys., 2019, 150, 154122.
     DOI: 10.1063/1.5090222
   * E. Caldeweyher, J.-M. Mewes, S. Ehlert and S. Grimme, Phys. Chem. Chem. Phys.
     2020, 22, 8499-8512. DOI: 10.1039/D0CP00502A
   
   for sTDA-xTB:
   * S. Grimme and C. Bannwarth, J. Chem. Phys., 2016, 145, 054103.
     DOI: 10.1063/1.4959605
   
   in the mass-spec context:
   * V. Asgeirsson, C. Bauer and S. Grimme, Chem. Sci., 2017, 8, 4879.
     DOI: 10.1039/c7sc00601b
   * J. Koopman and S. Grimme, ACS Omega 2019, 4, 12, 15120-15133.
     DOI: 10.1021/acsomega.9b02011
   
   for metadynamics refer to:
   * S. Grimme, J. Chem. Theory Comput., 2019, 155, 2847-2862
     DOI: 10.1021/acs.jctc.9b00143
   
   for SPH calculations refer to:
   * S. Spicher and S. Grimme, J. Chem. Theory Comput., 2021, 17, 1701-1714
     DOI: 10.1021/acs.jctc.0c01306
   
   with help from (in alphabetical order)
   P. Atkinson, C. Bannwarth, F. Bohle, G. Brandenburg, E. Caldeweyher
   M. Checinski, S. Dohm, S. Ehlert, S. Ehrlich, I. Gerasimov, C. Hölzer
   A. Katbashev, J. Koopman, C. Lavigne, S. Lehtola, F. März, M. Müller,
   F. Musil, H. Neugebauer, J. Pisarek, C. Plett, P. Pracht, F. Pultar,
   J. Seibert, P. Shushkov, S. Spicher, M. Stahn, M. Steiner, T. Strunk,
   J. Stückrath, T. Rose, and J. Unsleber
   
 * started run on 2022/07/30 at 05:50:33.013     

           -------------------------------------------------
          |                Calculation Setup                |
           -------------------------------------------------

          program call               : xtb Co_BSA_C2_4.xyz --gfn 1 --opt -T 48
          hostname                   : cx3-15-13.cx3.hpc.ic.ac.uk
          coordinate file            : Co_BSA_C2_4.xyz
          omp threads                :                     1

   ID    Z sym.   atoms
    1   27 Co     1, 65, 135, 198
    2    6 C      2-6, 8-12, 17-21, 23-28, 30-34, 39-44, 66-70, 72-76, 81-85,
                  87-92, 94-98, 103-108, 129-134, 136-140, 142-146, 151-155,
                  157-162, 164-168, 173-178, 199-203, 205-209, 214-218,
                  220-225, 227-231, 236-241
    3    7 N      7, 22, 29, 45, 71, 86, 93, 109, 141, 156, 163, 179, 204,
                  219, 226, 242
    4   16 S      13, 35, 77, 99, 147, 169, 210, 232
    5    8 O      14-16, 36-38, 78-80, 100-102, 148-150, 170-172, 211-213,
                  233-235
    6    1 H      46-64, 110-128, 180-197, 243-260

molecular fragmentation (1/2 indicates fragments):
111111111111111111111111111111111111111111111111111111111111111122222222
222222222222222222222222222222222222222222222222222222222222222222222222
222222222222222222222222222222222222222222222222222222222222222222222222
22222222222222222222222222222222222222222222
# atoms in fragment 1/2:    64   196
 fragment masses (1/2) :      678.58     2105.79
CMA distance (Bohr)    :  42.618
constraining FC (au)   :  0.0500
########################################################################
[WARNING] Please study the warnings concerning your input carefully
-1- prog_main_parseArguments: Unknown option '-T' provided
########################################################################

           -------------------------------------------------
          |                 G F N 1 - x T B                 |
           -------------------------------------------------

        Reference                      10.1021/acs.jctc.7b00118
      * Hamiltonian:
        H0-scaling (s, p, d)           1.850000    2.250000    2.000000
        zeta-weighting                 0.000000
      * Dispersion:
        s8                             2.400000
        a1                             0.630000
        a2                             5.000000
        s9                             0.000000
      * Repulsion:
        kExp                           1.500000
        rExp                           1.000000
      * Coulomb:
        alpha                          2.000000
        third order                    atomic
        anisotropic                    false
      * Halogen bond correction:
        rad-scale                      1.300000
        damping                        0.440000


          ...................................................
          :                      SETUP                      :
          :.................................................:
          :  # basis functions                 964          :
          :  # atomic orbitals                 952          :
          :  # shells                          532          :
          :  # electrons                       918          :
          :  # halogen bonds                     0          :
          :  max. iterations                   250          :
          :  Hamiltonian                  GFN1-xTB          :
          :  restarted?                      false          :
          :  GBSA solvation                  false          :
          :  PC potential                    false          :
          :  electronic temp.          300.0000000     K    :
          :  accuracy                    1.0000000          :
          :  -> integral cutoff          0.2500000E+02      :
          :  -> integral neglect         0.1000000E-07      :
          :  -> SCF convergence          0.1000000E-05 Eh   :
          :  -> wf. convergence          0.2000000E-04 e    :
          :  Broyden damping             0.4000000          :
          ...................................................

 iter      E             dE          RMSdq      gap      omega  full diag
   1   -533.1757025 -0.533176E+03  0.106E+01    0.01       0.0  T
   2   -474.6072372  0.585685E+02  0.116E+01    0.06       1.0  T
   3   -512.1929441 -0.375857E+02  0.706E+00    0.06       1.0  T
   4     56.4167521  0.568610E+03  0.121E+01    0.04       1.0  T
   5    569.2013791  0.512785E+03  0.139E+01    0.01       1.0  T
   6   -404.2840476 -0.973485E+03  0.749E+00    0.02       1.0  T
   7   -524.9952559 -0.120711E+03  0.423E+00    0.01       1.0  T
   8   -527.2129392 -0.221768E+01  0.380E+00    0.01       1.0  T
   9   -531.0646996 -0.385176E+01  0.334E+00    0.08       1.0  T
  10   -533.1486555 -0.208396E+01  0.289E+00    0.20       1.0  T
  11   -533.5691721 -0.420517E+00  0.271E+00    0.13       1.0  T
  12   -533.2750754  0.294097E+00  0.256E+00    0.01       1.0  T
  13   -533.9749881 -0.699913E+00  0.241E+00    0.03       1.0  T
  14   -534.3891811 -0.414193E+00  0.196E+00    0.10       1.0  T
  15   -534.7255643 -0.336383E+00  0.157E+00    0.13       1.0  T
  16   -534.7776369 -0.520726E-01  0.151E+00    0.14       1.0  T
  17   -534.8663381 -0.887012E-01  0.134E+00    0.13       1.0  T
  18   -534.5872732  0.279065E+00  0.995E-01    0.04       1.0  T
  19   -534.6995110 -0.112238E+00  0.929E-01    0.01       1.0  T
  20   -534.7186246 -0.191136E-01  0.926E-01    0.01       1.0  T
  21   -534.7323804 -0.137557E-01  0.921E-01    0.01       1.0  T
  22   -534.8611797 -0.128799E+00  0.921E-01    0.04       1.0  T
  23   -534.4498197  0.411360E+00  0.938E-01    0.08       1.0  T
  24   -535.0389606 -0.589141E+00  0.559E-01    0.04       1.0  T
  25   -535.1847180 -0.145757E+00  0.792E-01    0.00       1.0  T
  26   -535.1986037 -0.138857E-01  0.612E-01    0.03       1.0  T
  27   -534.2437373  0.954866E+00  0.157E+00    0.02       1.0  T
  28   -534.2497423 -0.600497E-02  0.156E+00    0.03       1.0  T
  29   -534.4792659 -0.229524E+00  0.144E+00    0.07       1.0  T
  30   -534.5842597 -0.104994E+00  0.136E+00    0.07       1.0  T
  31   -535.1967853 -0.612526E+00  0.782E-01    0.02       1.0  T
  32   -535.0904905  0.106295E+00  0.916E-01    0.03       1.0  T
  33   -534.4518475  0.638643E+00  0.129E+00    0.03       1.0  T
  34   -535.0575964 -0.605749E+00  0.922E-01    0.01       1.0  T
  35   -535.3473777 -0.289781E+00  0.563E-01    0.02       1.0  T
  36   -535.3178271  0.295507E-01  0.577E-01    0.02       1.0  T
  37   -535.3828044 -0.649773E-01  0.492E-01    0.01       1.0  T
  38   -535.4447119 -0.619075E-01  0.400E-01    0.01       1.0  T
  39   -535.4826569 -0.379450E-01  0.323E-01    0.00       1.0  T
  40   -535.4245659  0.580910E-01  0.403E-01    0.01       1.0  T
  41   -535.5050177 -0.804518E-01  0.228E-01    0.01       1.0  T
  42   -535.5030258  0.199198E-02  0.226E-01    0.01       1.0  T
  43   -535.5354720 -0.324463E-01  0.115E-01    0.00       1.0  T
  44   -535.5446868 -0.921477E-02  0.390E-02    0.00       1.0  T
  45   -535.5331568  0.115300E-01  0.148E-01    0.01       1.0  T
  46   -535.5379049 -0.474818E-02  0.115E-01    0.01       1.0  T
  47   -535.5415248 -0.361982E-02  0.827E-02    0.01       1.0  T
  48   -535.5436072 -0.208248E-02  0.581E-02    0.00       1.0  T
  49   -535.5449064 -0.129921E-02  0.329E-02    0.00       1.0  T
  50   -535.5447190  0.187442E-03  0.340E-02    0.00       1.0  T
  51   -535.5453660 -0.647019E-03  0.138E-02    0.00       1.0  T
  52   -535.5454134 -0.473961E-04  0.960E-03    0.00       1.0  T
  53   -535.5454582 -0.448032E-04  0.559E-03    0.00       1.1  T
  54   -535.5454496  0.858178E-05  0.728E-03    0.00       1.0  T
  55   -535.5454662 -0.165756E-04  0.476E-03    0.00       1.3  T
  56   -535.5454785 -0.122942E-04  0.143E-03    0.00       4.3  T
  57   -535.5454773  0.116220E-05  0.192E-03    0.00       3.2  T
  58   -535.5454793 -0.199020E-05  0.743E-04    0.00       8.3  T
  59   -535.5454793  0.266451E-07  0.782E-04    0.00       7.9  T
  60   -535.5454795 -0.145589E-06  0.547E-04    0.00      11.3  T
  61   -535.5454794  0.242882E-07  0.533E-04    0.00      11.6  T
  62   -535.5454796 -0.171424E-06  0.158E-04    0.00      39.1  T
  63   -535.5454796 -0.762111E-08  0.101E-04    0.00      61.4  T

   *** convergence criteria satisfied after 63 iterations ***

         #    Occupation            Energy/Eh            Energy/eV
      -------------------------------------------------------------
         1        2.0000           -1.0364094             -28.2021
       ...           ...                  ...                  ...
       453        2.0000           -0.4193265             -11.4105
       454        1.9159           -0.4109724             -11.1831
       455        1.7019           -0.4096576             -11.1474
       456        1.6010           -0.4093226             -11.1382
       457        1.5802           -0.4092619             -11.1366
       458        1.5129           -0.4090793             -11.1316
       459        1.4513           -0.4089267             -11.1275 (HOMO)
       460        1.4387           -0.4088970             -11.1267 (LUMO)
       461        0.7983           -0.4076141             -11.0917
       462                         -0.3746824             -10.1956
       463                         -0.3666008              -9.9757
       464                         -0.3648831              -9.9290
       ...                                ...                  ...
       952                          1.3660877              37.1731
      -------------------------------------------------------------
                  HL-Gap            0.0000297 Eh            0.0008 eV
             Fermi-level           -0.4080027 Eh          -11.1023 eV

 SCC (total)                   0 d,  0 h,  0 min, 34.743 sec
 SCC setup                      ...        0 min,  0.026 sec (  0.075%)
 Dispersion                     ...        0 min,  0.020 sec (  0.056%)
 classical contributions        ...        0 min,  0.006 sec (  0.018%)
 integral evaluation            ...        0 min,  0.580 sec (  1.671%)
 iterations                     ...        0 min, 32.571 sec ( 93.749%)
 molecular gradient             ...        0 min,  1.424 sec (  4.100%)
 printout                       ...        0 min,  0.115 sec (  0.331%)

         :::::::::::::::::::::::::::::::::::::::::::::::::::::
         ::                     SUMMARY                     ::
         :::::::::::::::::::::::::::::::::::::::::::::::::::::
         :: total energy            -529.041261632739 Eh    ::
         :: gradient norm              0.703937919049 Eh/a0 ::
         :: HOMO-LUMO gap              0.000807423249 eV    ::
         ::.................................................::
         :: SCC energy              -535.545479611228 Eh    ::
         :: -> electrostatic           1.103331152820 Eh    ::
         :: repulsion energy           6.747169411207 Eh    ::
         :: dispersion energy         -0.242951432719 Eh    ::
         :: halogen bond corr.         0.000000000000 Eh    ::
         :: add. restraining           0.000000000000 Eh    ::
         :: total charge              -0.000000000000 e     ::
         :::::::::::::::::::::::::::::::::::::::::::::::::::::

      ----------------------------------------------------------- 
     |                   =====================                   |
     |                        A N C O P T                        |
     |                   =====================                   |
     |               Approximate Normal Coordinate               |
     |                Rational Function Optimizer                |
      ----------------------------------------------------------- 

          ...................................................
          :                      SETUP                      :
          :.................................................:
          :   optimization level            normal          :
          :   max. optcycles                   780          :
          :   ANC micro-cycles                  20          :
          :   degrees of freedom               774          :
          :.................................................:
          :   RF solver                   davidson          :
          :   write xtbopt.log                true          :
          :   linear?                        false          :
          :   energy convergence         0.5000000E-05 Eh   :
          :   grad. convergence          0.1000000E-02 Eh/α :
          :   maximium RF displ.         1.0000000          :
          :   Hlow (freq-cutoff)         0.1000000E-01      :
          :   Hmax (freq-cutoff)         5.0000000          :
          :   S6 in model hess.         20.0000000          :
          ...................................................

generating ANC from model Hessian ...
Using Lindh-Hessian (1995)
 Shifting diagonal of input Hessian by    1.0018351310769436E-002
 Lowest  eigenvalues of input Hessian
    0.010000    0.010000    0.010004    0.010006    0.010007    0.010010
    0.010011    0.010012    0.000000    0.000000    0.000000    0.000000
    0.000000    0.000000    0.010022    0.010030    0.010051    0.010059
 Highest eigenvalues
    2.701682    2.702241    2.702241    2.703938    2.703944    2.775726


........................................................................
.............................. CYCLE    1 ..............................
........................................................................
   1   -535.5454796 -0.535545E+03  0.221E-04    0.00       0.0  T
   2   -535.5452571  0.222525E-03  0.178E-02    0.00       1.0  T
   3   -535.5454759 -0.218793E-03  0.223E-03    0.00       2.8  T
   4   -535.5454771 -0.119863E-05  0.191E-03    0.00       3.2  T
   5   -535.5454776 -0.547751E-06  0.175E-03    0.00       3.5  T
   6   -535.5454783 -0.688206E-06  0.144E-03    0.00       4.3  T
   7   -535.5454794 -0.114703E-05  0.477E-04    0.00      13.0  T
   8   -535.5454794  0.385006E-07  0.538E-04    0.00      11.5  T
   9   -535.5454796 -0.196898E-06  0.182E-04    0.00      34.0  T
  10   -535.5454796 -0.155924E-07  0.101E-04    0.00      61.4  T
     SCC iter.                  ...        0 min,  5.120 sec
     gradient                   ...        0 min,  1.427 sec
 * total energy  :  -529.0412616 Eh     change        0.2984279E-08 Eh
   gradient norm :     0.7039379 Eh/α   predicted     0.0000000E+00 (-100.00%)
   displ. norm   :     0.5185120 α      lambda       -0.2875400E+00
   maximum displ.:     0.0985828 α      in ANC's #353, #217, #455, ...

........................................................................
.............................. CYCLE    2 ..............................
........................................................................
   1   -535.6873404 -0.535687E+03  0.226E-01    0.00       0.0  T
   2   -535.2652850  0.422055E+00  0.895E-01    0.07       1.0  T
   3   -535.0705631  0.194722E+00  0.941E-01    0.04       1.0  T
   4   -533.6088020  0.146176E+01  0.178E+00    0.17       1.0  T
   5   -535.4224460 -0.181364E+01  0.638E-01    0.03       1.0  T
   6   -534.4037928  0.101865E+01  0.140E+00    0.06       1.0  T
   7   -535.2698146 -0.866022E+00  0.797E-01    0.01       1.0  T
   8   -535.2158038  0.540108E-01  0.829E-01    0.03       1.0  T
   9   -534.3721937  0.843610E+00  0.130E+00    0.09       1.0  T
  10   -535.2996390 -0.927445E+00  0.774E-01    0.02       1.0  T
  11   -535.5632673 -0.263628E+00  0.475E-01    0.00       1.0  T
  12   -535.6506823 -0.874151E-01  0.276E-01    0.02       1.0  T
  13   -535.6855698 -0.348874E-01  0.179E-01    0.01       1.0  T
  14   -535.7063606 -0.207908E-01  0.249E-02    0.00       1.0  T
  15   -535.7022301  0.413051E-02  0.811E-02    0.00       1.0  T
  16   -535.7064447 -0.421460E-02  0.235E-02    0.00       1.0  T
  17   -535.7058336  0.611138E-03  0.367E-02    0.01       1.0  T
  18   -535.7067981 -0.964566E-03  0.571E-03    0.00       1.1  T
  19   -535.7068073 -0.918110E-05  0.437E-03    0.00       1.4  T
  20   -535.7068084 -0.106890E-05  0.410E-03    0.00       1.5  T
  21   -535.7068159 -0.754424E-05  0.272E-03    0.00       2.3  T
  22   -535.7068195 -0.359745E-05  0.132E-03    0.00       4.7  T
  23   -535.7068204 -0.886666E-06  0.720E-04    0.00       8.6  T
  24   -535.7068207 -0.282121E-06  0.365E-04    0.00      17.0  T
  25   -535.7068208 -0.709123E-07  0.164E-04    0.00      37.8  T
  26   -535.7068208 -0.653324E-08  0.121E-04    0.00      51.2  T
     SCC iter.                  ...        0 min, 12.410 sec
     gradient                   ...        0 min,  1.469 sec
 * total energy  :  -529.2797279 Eh     change       -0.2384663E+00 Eh
   gradient norm :     0.4495461 Eh/α   predicted    -0.1824718E+00 ( -23.48%)
   displ. norm   :     0.6469076 α      lambda       -0.2460449E+00
   maximum displ.:     0.1082227 α      in ANC's #353, #217, #397, ...

........................................................................
.............................. CYCLE    3 ..............................
........................................................................
   1   -535.9028694 -0.535903E+03  0.252E-01    0.00       0.0  T
   2   -535.4783804  0.424489E+00  0.921E-01    0.03       1.0  T
   3   -535.0570023  0.421378E+00  0.113E+00    0.07       1.0  T
   4   -534.6180734  0.438929E+00  0.145E+00    0.02       1.0  T
   5   -535.0051620 -0.387089E+00  0.117E+00    0.03       1.0  T
   6   -535.3459229 -0.340761E+00  0.989E-01    0.01       1.0  T
   7   -535.5194530 -0.173530E+00  0.781E-01    0.03       1.0  T
   8   -535.1898646  0.329588E+00  0.103E+00    0.08       1.0  T
   9   -535.8045018 -0.614637E+00  0.409E-01    0.01       1.0  T
  10   -535.6239942  0.180508E+00  0.652E-01    0.04       1.0  T
  11   -535.7755462 -0.151552E+00  0.477E-01    0.02       1.0  T
  12   -535.6849171  0.906291E-01  0.594E-01    0.00       1.0  T
  13   -535.8833706 -0.198453E+00  0.251E-01    0.01       1.0  T
  14   -535.8995733 -0.162027E-01  0.199E-01    0.02       1.0  T
  15   -535.9244626 -0.248893E-01  0.593E-02    0.00       1.0  T
  16   -535.9264448 -0.198221E-02  0.258E-02    0.00       1.0  T
  17   -535.9260666  0.378218E-03  0.334E-02    0.00       1.0  T
  18   -535.9267777 -0.711150E-03  0.110E-02    0.00       1.0  T
  19   -535.9268261 -0.483883E-04  0.722E-03    0.00       1.0  T
  20   -535.9268555 -0.293652E-04  0.302E-03    0.00       2.1  T
  21   -535.9268604 -0.491047E-05  0.158E-03    0.00       3.9  T
  22   -535.9268613 -0.864604E-06  0.115E-03    0.00       5.4  T
  23   -535.9268620 -0.710935E-06  0.453E-04    0.00      13.7  T
  24   -535.9268621 -0.120479E-06  0.141E-04    0.00      44.1  T
  25   -535.9268621 -0.117009E-07  0.432E-05    0.00     143.4  T
     SCC iter.                  ...        0 min, 13.384 sec
     gradient                   ...        0 min,  1.524 sec
 * total energy  :  -529.4568261 Eh     change       -0.1770982E+00 Eh
   gradient norm :     0.1737858 Eh/α   predicted    -0.1745376E+00 (  -1.45%)
   displ. norm   :     0.7123822 α      lambda       -0.1037691E+00
   maximum displ.:     0.1569434 α      in ANC's #69, #68, #186, ...

........................................................................
.............................. CYCLE    4 ..............................
........................................................................
   1   -536.0407265 -0.536041E+03  0.135E-01    0.00       0.0  T
   2   -534.5758926  0.146483E+01  0.146E+00    0.03       1.0  T
   3   -535.5950941 -0.101920E+01  0.816E-01    0.06       1.0  T
   4   -535.2052369  0.389857E+00  0.110E+00    0.09       1.0  T
   5   -535.9468900 -0.741653E+00  0.404E-01    0.01       1.0  T
   6   -535.5795005  0.367390E+00  0.840E-01    0.03       1.0  T
   7   -535.9828211 -0.403321E+00  0.310E-01    0.03       1.0  T
   8   -536.0307746 -0.479535E-01  0.144E-01    0.00       1.0  T
   9   -535.7916775  0.239097E+00  0.623E-01    0.02       1.0  T
  10   -535.8778061 -0.861286E-01  0.504E-01    0.02       1.0  T
  11   -535.9666009 -0.887948E-01  0.341E-01    0.01       1.0  T
  12   -535.9544888  0.121121E-01  0.376E-01    0.03       1.0  T
  13   -536.0405844 -0.860956E-01  0.104E-01    0.00       1.0  T
  14   -536.0410418 -0.457449E-03  0.103E-01    0.00       1.0  T
  15   -536.0466538 -0.561202E-02  0.356E-02    0.00       1.0  T
  16   -536.0468487 -0.194829E-03  0.313E-02    0.00       1.0  T
  17   -536.0475043 -0.655618E-03  0.413E-03    0.00       1.5  T
  18   -536.0474980  0.626590E-05  0.513E-03    0.00       1.2  T
  19   -536.0475066 -0.858276E-05  0.338E-03    0.00       1.8  T
  20   -536.0475112 -0.456765E-05  0.189E-03    0.00       3.3  T
  21   -536.0475132 -0.204567E-05  0.616E-04    0.00      10.1  T
  22   -536.0475133 -0.119282E-06  0.428E-04    0.00      14.5  T
  23   -536.0475135 -0.120086E-06  0.845E-05    0.00      73.4  T
  24   -536.0475134  0.598936E-08  0.124E-04    0.00      49.8  T
     SCC iter.                  ...        0 min, 11.853 sec
     gradient                   ...        0 min,  1.461 sec
 * total energy  :  -529.5392438 Eh     change       -0.8241769E-01 Eh
   gradient norm :     0.1102754 Eh/α   predicted    -0.7821538E-01 (  -5.10%)
   displ. norm   :     0.7794704 α      lambda       -0.6807012E-01
   maximum displ.:     0.2217950 α      in ANC's #69, #68, #186, ...

........................................................................
.............................. CYCLE    5 ..............................
........................................................................
   1   -536.0896686 -0.536090E+03  0.110E-01    0.00       0.0  T
   2   -533.7473560  0.234231E+01  0.183E+00    0.07       1.0  T
   3   -535.3044468 -0.155709E+01  0.112E+00    0.05       1.0  T
   4   -535.5190553 -0.214608E+00  0.897E-01    0.02       1.0  T
   5   -535.6753063 -0.156251E+00  0.819E-01    0.04       1.0  T
   6   -535.9393282 -0.264022E+00  0.474E-01    0.01       1.0  T
   7   -536.0919666 -0.152638E+00  0.762E-02    0.00       1.0  T
   8   -536.0745263  0.174403E-01  0.168E-01    0.00       1.0  T
   9   -535.9052334  0.169293E+00  0.528E-01    0.01       1.0  T
  10   -536.0613149 -0.156082E+00  0.221E-01    0.00       1.0  T
  11   -536.0799386 -0.186237E-01  0.146E-01    0.00       1.0  T
  12   -536.0909482 -0.110096E-01  0.750E-02    0.00       1.0  T
  13   -536.0924172 -0.146892E-02  0.577E-02    0.01       1.0  T
  14   -536.0938197 -0.140250E-02  0.367E-02    0.00       1.0  T
  15   -536.0939061 -0.863959E-04  0.337E-02    0.00       1.0  T
  16   -536.0946858 -0.779692E-03  0.403E-03    0.00       1.5  T
  17   -536.0946618  0.239275E-04  0.731E-03    0.00       1.0  T
  18   -536.0946886 -0.267889E-04  0.343E-03    0.00       1.8  T
  19   -536.0946920 -0.340515E-05  0.249E-03    0.00       2.5  T
  20   -536.0946946 -0.262119E-05  0.141E-03    0.00       4.4  T
  21   -536.0946959 -0.125129E-05  0.387E-04    0.00      16.0  T
  22   -536.0946959  0.385558E-07  0.471E-04    0.00      13.2  T
  23   -536.0946960 -0.132210E-06  0.106E-04    0.00      58.6  T
  24   -536.0946960  0.460057E-08  0.133E-04    0.00      46.6  T
     SCC iter.                  ...        0 min, 12.631 sec
     gradient                   ...        0 min,  1.393 sec
 * total energy  :  -529.5925674 Eh     change       -0.5332360E-01 Eh
   gradient norm :     0.0748354 Eh/α   predicted    -0.5471434E-01 (   2.61%)
   displ. norm   :     0.7688567 α      lambda       -0.3926856E-01
   maximum displ.:     0.2860597 α      in ANC's #68, #69, #49, ...

........................................................................
.............................. CYCLE    6 ..............................
........................................................................
   1   -536.1367593 -0.536137E+03  0.103E-01    0.00       0.0  T
   2   -534.2112163  0.192554E+01  0.167E+00    0.06       1.0  T
   3   -534.8787152 -0.667499E+00  0.136E+00    0.01       1.0  T
   4   -535.4936888 -0.614974E+00  0.949E-01    0.06       1.0  T
   5   -535.7260174 -0.232329E+00  0.801E-01    0.01       1.0  T
   6   -536.0370198 -0.311002E+00  0.386E-01    0.01       1.0  T
   7   -536.1109101 -0.738902E-01  0.228E-01    0.00       1.0  T
   8   -536.1258369 -0.149268E-01  0.154E-01    0.01       1.0  T
   9   -536.1142946  0.115423E-01  0.198E-01    0.01       1.0  T
  10   -536.1121340  0.216063E-02  0.218E-01    0.00       1.0  T
  11   -536.1160124 -0.387844E-02  0.193E-01    0.01       1.0  T
  12   -536.1339177 -0.179053E-01  0.107E-01    0.00       1.0  T
  13   -536.1402285 -0.631084E-02  0.490E-02    0.00       1.0  T
  14   -536.1416457 -0.141722E-02  0.607E-03    0.00       1.0  T
  15   -536.1413836  0.262136E-03  0.211E-02    0.00       1.0  T
  16   -536.1415000 -0.116376E-03  0.165E-02    0.00       1.0  T
  17   -536.1416209 -0.120883E-03  0.883E-03    0.00       1.0  T
  18   -536.1416618 -0.409135E-04  0.343E-03    0.00       1.8  T
  19   -536.1416614  0.383046E-06  0.335E-03    0.00       1.9  T
  20   -536.1416666 -0.522866E-05  0.176E-03    0.00       3.5  T
  21   -536.1416684 -0.178746E-05  0.563E-04    0.00      11.0  T
  22   -536.1416685 -0.141560E-06  0.325E-04    0.00      19.1  T
  23   -536.1416686 -0.428919E-07  0.200E-04    0.00      31.0  T
  24   -536.1416686 -0.264705E-07  0.298E-05    0.00     208.4  T
  25   -536.1416686  0.492923E-08  0.897E-05    0.00      69.1  T
     SCC iter.                  ...        0 min, 12.918 sec
     gradient                   ...        0 min,  1.428 sec
 * total energy  :  -529.6251230 Eh     change       -0.3255560E-01 Eh
   gradient norm :     0.0550408 Eh/α   predicted    -0.3124093E-01 (  -4.04%)
   displ. norm   :     0.8060650 α      lambda       -0.3117719E-01
   maximum displ.:     0.3170705 α      in ANC's #69, #68, #49, ...

........................................................................
.............................. CYCLE    7 ..............................
........................................................................
   1   -536.1962049 -0.536196E+03  0.101E-01    0.00       0.0  T
   2   -534.9629532  0.123325E+01  0.135E+00    0.00       1.0  T
   3   -535.6088902 -0.645937E+00  0.970E-01    0.03       1.0  T
   4   -535.8941786 -0.285288E+00  0.655E-01    0.02       1.0  T
   5   -535.9853878 -0.912093E-01  0.565E-01    0.02       1.0  T
   6   -536.0687253 -0.833375E-01  0.439E-01    0.00       1.0  T
   7   -536.1575365 -0.888112E-01  0.270E-01    0.01       1.0  T
   8   -536.1989000 -0.413635E-01  0.624E-02    0.00       1.0  T
   9   -536.1808746  0.180255E-01  0.171E-01    0.00       1.0  T
  10   -536.1982659 -0.173914E-01  0.645E-02    0.00       1.0  T
  11   -536.1991266 -0.860706E-03  0.524E-02    0.00       1.0  T
  12   -536.2009199 -0.179327E-02  0.988E-03    0.00       1.0  T
  13   -536.2009075  0.124234E-04  0.114E-02    0.00       1.0  T
  14   -536.2009601 -0.526544E-04  0.631E-03    0.00       1.0  T
  15   -536.2009796 -0.194223E-04  0.338E-03    0.00       1.8  T
  16   -536.2009849 -0.537751E-05  0.203E-03    0.00       3.1  T
  17   -536.2009825  0.243100E-05  0.281E-03    0.00       2.2  T
  18   -536.2009869 -0.436207E-05  0.921E-04    0.00       6.7  T
  19   -536.2009873 -0.417221E-06  0.441E-04    0.00      14.1  T
  20   -536.2009874 -0.103591E-06  0.176E-04    0.00      35.1  T
  21   -536.2009874 -0.138542E-07  0.976E-05    0.00      63.5  T
     SCC iter.                  ...        0 min, 10.515 sec
     gradient                   ...        0 min,  1.365 sec
 * total energy  :  -529.6518525 Eh     change       -0.2672949E-01 Eh
   gradient norm :     0.0461480 Eh/α   predicted    -0.2571721E-01 (  -3.79%)
   displ. norm   :     0.8559616 α      lambda       -0.2528284E-01
   maximum displ.:     0.3574333 α      in ANC's #68, #69, #49, ...

........................................................................
.............................. CYCLE    8 ..............................
........................................................................
   1   -536.2602293 -0.536260E+03  0.631E-02    0.00       0.0  T
   2   -534.6967983  0.156343E+01  0.147E+00    0.04       1.0  T
   3   -535.6899547 -0.993156E+00  0.956E-01    0.08       1.0  T
   4   -536.1484310 -0.458476E+00  0.401E-01    0.01       1.0  T
   5   -536.2145345 -0.661035E-01  0.262E-01    0.00       1.0  T
   6   -535.9606950  0.253840E+00  0.666E-01    0.03       1.0  T
   7   -536.2367631 -0.276068E+00  0.182E-01    0.01       1.0  T
   8   -536.1513018  0.854613E-01  0.405E-01    0.00       1.0  T
   9   -536.2317831 -0.804813E-01  0.211E-01    0.00       1.0  T
  10   -536.2551593 -0.233762E-01  0.101E-01    0.01       1.0  T
  11   -536.2619940 -0.683468E-02  0.231E-02    0.00       1.0  T
  12   -536.2618707  0.123303E-03  0.259E-02    0.00       1.0  T
  13   -536.2622004 -0.329639E-03  0.151E-02    0.00       1.0  T
  14   -536.2622967 -0.963415E-04  0.825E-03    0.00       1.0  T
  15   -536.2623252 -0.284888E-04  0.502E-03    0.00       1.2  T
  16   -536.2623364 -0.111736E-04  0.264E-03    0.00       2.3  T
  17   -536.2623402 -0.388206E-05  0.112E-03    0.00       5.5  T
  18   -536.2623408 -0.547663E-06  0.641E-04    0.00       9.7  T
  19   -536.2623410 -0.246602E-06  0.264E-04    0.00      23.5  T
  20   -536.2623410  0.113820E-07  0.307E-04    0.00      20.2  T
  21   -536.2623411 -0.356931E-07  0.189E-04    0.00      32.8  T
  22   -536.2623411 -0.156566E-07  0.108E-04    0.00      57.5  T
     SCC iter.                  ...        0 min, 11.959 sec
     gradient                   ...        0 min,  1.436 sec
 * total energy  :  -529.6742971 Eh     change       -0.2244465E-01 Eh
   gradient norm :     0.0393590 Eh/α   predicted    -0.2190341E-01 (  -2.41%)
   displ. norm   :     0.8679639 α      lambda       -0.2154849E-01
   maximum displ.:     0.3579394 α      in ANC's #69, #68, #30, ...

........................................................................
.............................. CYCLE    9 ..............................
........................................................................
   1   -536.3213903 -0.536321E+03  0.511E-02    0.00       0.0  T
   2   -535.5253626  0.796028E+00  0.105E+00    0.09       1.0  T
   3   -535.9154817 -0.390119E+00  0.794E-01    0.01       1.0  T
   4   -536.2627582 -0.347277E+00  0.290E-01    0.01       1.0  T
   5   -536.1578574  0.104901E+00  0.513E-01    0.01       1.0  T
   6   -536.2927594 -0.134902E+00  0.210E-01    0.01       1.0  T
   7   -536.2964637 -0.370438E-02  0.197E-01    0.01       1.0  T
   8   -536.3217144 -0.252506E-01  0.423E-02    0.00       1.0  T
   9   -536.3165512  0.516313E-02  0.944E-02    0.00       1.0  T
  10   -536.3186497 -0.209848E-02  0.786E-02    0.00       1.0  T
  11   -536.3223948 -0.374503E-02  0.273E-02    0.00       1.0  T
  12   -536.3224436 -0.488615E-04  0.267E-02    0.00       1.0  T
  13   -536.3228482 -0.404631E-03  0.970E-03    0.00       1.0  T
  14   -536.3228824 -0.341533E-04  0.669E-03    0.00       1.0  T
  15   -536.3229055 -0.231434E-04  0.312E-03    0.00       2.0  T
  16   -536.3229121 -0.656065E-05  0.722E-04    0.00       8.6  T
  17   -536.3229124 -0.273955E-06  0.317E-04    0.00      19.5  T
  18   -536.3229124 -0.455902E-07  0.176E-04    0.00      35.1  T
  19   -536.3229124 -0.168487E-07  0.690E-05    0.00      89.9  T
     SCC iter.                  ...        0 min,  9.463 sec
     gradient                   ...        0 min,  1.500 sec
 * total energy  :  -529.6930276 Eh     change       -0.1873043E-01 Eh
   gradient norm :     0.0321830 Eh/α   predicted    -0.1889114E-01 (   0.86%)
   displ. norm   :     0.8754546 α      lambda       -0.1839638E-01
   maximum displ.:     0.3530507 α      in ANC's #68, #69, #30, ...

........................................................................
.............................. CYCLE   10 ..............................
........................................................................
   1   -536.3771185 -0.536377E+03  0.423E-02    0.00       0.0  T
   2   -535.5231349  0.853984E+00  0.111E+00    0.18       1.0  T
   3   -536.3313265 -0.808192E+00  0.261E-01    0.00       1.0  T
   4   -536.3578249 -0.264984E-01  0.173E-01    0.01       1.0  T
   5   -536.3446360  0.131889E-01  0.222E-01    0.01       1.0  T
   6   -536.3497466 -0.511054E-02  0.217E-01    0.00       1.0  T
   7   -536.3275222  0.222244E-01  0.265E-01    0.02       1.0  T
   8   -536.2522021  0.753202E-01  0.417E-01    0.03       1.0  T
   9   -536.3383819 -0.861799E-01  0.235E-01    0.02       1.0  T
  10   -536.3643985 -0.260166E-01  0.139E-01    0.01       1.0  T
  11   -536.3780095 -0.136110E-01  0.223E-02    0.00       1.0  T
  12   -536.3782959 -0.286373E-03  0.104E-02    0.00       1.0  T
  13   -536.3783525 -0.565783E-04  0.476E-03    0.00       1.3  T
  14   -536.3783651 -0.126380E-04  0.231E-03    0.00       2.7  T
  15   -536.3783677 -0.258938E-05  0.124E-03    0.00       5.0  T
  16   -536.3783686 -0.901746E-06  0.488E-04    0.00      12.7  T
  17   -536.3783687 -0.127992E-06  0.223E-04    0.00      27.8  T
  18   -536.3783688 -0.129087E-07  0.170E-04    0.00      36.5  T
  19   -536.3783688 -0.175631E-07  0.355E-05    0.00     174.9  T
     SCC iter.                  ...        0 min,  9.158 sec
     gradient                   ...        0 min,  1.523 sec
 * total energy  :  -529.7083281 Eh     change       -0.1530053E-01 Eh
   gradient norm :     0.0286572 Eh/α   predicted    -0.1624788E-01 (   6.19%)
   displ. norm   :     0.8492012 α      lambda       -0.1446227E-01
   maximum displ.:     0.3395889 α      in ANC's #30, #69, #68, ...

........................................................................
.............................. CYCLE   11 ..............................
........................................................................
   1   -536.4247576 -0.536425E+03  0.371E-02    0.00       0.0  T
   2   -535.6045479  0.820210E+00  0.108E+00    0.18       1.0  T
   3   -536.2033748 -0.598827E+00  0.594E-01    0.01       1.0  T
   4   -536.4117229 -0.208348E+00  0.144E-01    0.00       1.0  T
   5   -536.4229674 -0.112445E-01  0.661E-02    0.00       1.0  T
   6   -536.2870420  0.135925E+00  0.462E-01    0.02       1.0  T
   7   -536.3989942 -0.111952E+00  0.193E-01    0.00       1.0  T
   8   -536.3031925  0.958017E-01  0.410E-01    0.03       1.0  T
   9   -536.3965179 -0.933254E-01  0.200E-01    0.01       1.0  T
  10   -536.4114490 -0.149312E-01  0.140E-01    0.01       1.0  T
  11   -536.4252261 -0.137771E-01  0.251E-02    0.00       1.0  T
  12   -536.4256495 -0.423410E-03  0.690E-03    0.00       1.0  T
  13   -536.4256596 -0.101063E-04  0.569E-03    0.00       1.1  T
  14   -536.4256809 -0.212945E-04  0.157E-03    0.00       4.0  T
  15   -536.4256818 -0.836804E-06  0.119E-03    0.00       5.2  T
  16   -536.4256827 -0.899679E-06  0.329E-04    0.00      18.9  T
  17   -536.4256827 -0.677574E-07  0.950E-05    0.00      65.3  T
  18   -536.4256827 -0.435398E-08  0.497E-05    0.00     124.7  T
     SCC iter.                  ...        0 min,  8.708 sec
     gradient                   ...        0 min,  1.398 sec
 * total energy  :  -529.7205723 Eh     change       -0.1224414E-01 Eh
   gradient norm :     0.0246019 Eh/α   predicted    -0.1244582E-01 (   1.65%)
   displ. norm   :     0.8391606 α      lambda       -0.1122834E-01
   maximum displ.:     0.3900714 α      in ANC's #30, #49, #69, ...

........................................................................
.............................. CYCLE   12 ..............................
........................................................................
   1   -536.4656018 -0.536466E+03  0.306E-02    0.00       0.0  T
   2   -535.7321126  0.733489E+00  0.101E+00    0.09       1.0  T
   3   -536.3466924 -0.614580E+00  0.439E-01    0.03       1.0  T
   4   -536.4645112 -0.117819E+00  0.521E-02    0.00       1.0  T
   5   -536.2896817  0.174829E+00  0.511E-01    0.04       1.0  T
   6   -536.4632929 -0.173611E+00  0.805E-02    0.01       1.0  T
   7   -536.4636597 -0.366785E-03  0.589E-02    0.00       1.0  T
   8   -536.4629049  0.754790E-03  0.681E-02    0.00       1.0  T
   9   -536.4659325 -0.302758E-02  0.189E-02    0.00       1.0  T
  10   -536.4658763  0.562227E-04  0.203E-02    0.00       1.0  T
  11   -536.4659087 -0.324092E-04  0.193E-02    0.00       1.0  T
  12   -536.4661614 -0.252702E-03  0.436E-03    0.00       1.4  T
  13   -536.4661635 -0.213379E-05  0.388E-03    0.00       1.6  T
  14   -536.4661735 -0.100123E-04  0.101E-03    0.00       6.2  T
  15   -536.4661739 -0.383294E-06  0.711E-04    0.00       8.7  T
  16   -536.4661742 -0.271035E-06  0.311E-04    0.00      19.9  T
  17   -536.4661743 -0.605917E-07  0.716E-05    0.00      86.6  T
  18   -536.4661743 -0.291061E-08  0.307E-05    0.00     201.9  T
     SCC iter.                  ...        0 min,  9.784 sec
     gradient                   ...        0 min,  1.476 sec
 * total energy  :  -529.7298958 Eh     change       -0.9323522E-02 Eh
   gradient norm :     0.0240468 Eh/α   predicted    -0.9567617E-02 (   2.62%)
   displ. norm   :     0.8290065 α      lambda       -0.9247380E-02
   maximum displ.:     0.4360394 α      in ANC's #30, #49, #68, ...

........................................................................
.............................. CYCLE   13 ..............................
........................................................................
   1   -536.5013365 -0.536501E+03  0.376E-02    0.00       0.0  T
   2   -534.8678173  0.163352E+01  0.150E+00    0.01       1.0  T
   3   -536.3973874 -0.152957E+01  0.386E-01    0.00       1.0  T
   4   -536.2506131  0.146774E+00  0.610E-01    0.06       1.0  T
   5   -536.4885438 -0.237931E+00  0.144E-01    0.01       1.0  T
   6   -536.4558812  0.326626E-01  0.271E-01    0.01       1.0  T
   7   -536.4529296  0.295159E-02  0.263E-01    0.00       1.0  T
   8   -536.5016628 -0.487332E-01  0.330E-02    0.00       1.0  T
   9   -536.4971850  0.447774E-02  0.853E-02    0.00       1.0  T
  10   -536.5013873 -0.420224E-02  0.372E-02    0.00       1.0  T
  11   -536.5017005 -0.313222E-03  0.310E-02    0.00       1.0  T
  12   -536.5023003 -0.599785E-03  0.851E-03    0.00       1.0  T
  13   -536.5023323 -0.320068E-04  0.519E-03    0.00       1.2  T
  14   -536.5023482 -0.159373E-04  0.243E-03    0.00       2.5  T
  15   -536.5023507 -0.252149E-05  0.156E-03    0.00       4.0  T
  16   -536.5023514 -0.669100E-06  0.124E-03    0.00       5.0  T
  17   -536.5023510  0.353791E-06  0.142E-03    0.00       4.4  T
  18   -536.5023526 -0.150842E-05  0.111E-04    0.00      55.8  T
  19   -536.5023526  0.508408E-09  0.115E-04    0.00      54.1  T
  20   -536.5023526 -0.701050E-08  0.517E-05    0.00     119.9  T
     SCC iter.                  ...        0 min, 10.263 sec
     gradient                   ...        0 min,  1.438 sec
 * total energy  :  -529.7371428 Eh     change       -0.7247038E-02 Eh
   gradient norm :     0.0230872 Eh/α   predicted    -0.7801331E-02 (   7.65%)
   displ. norm   :     0.7878903 α      lambda       -0.6862918E-02
   maximum displ.:     0.4790835 α      in ANC's #30, #49, #69, ...

........................................................................
.............................. CYCLE   14 ..............................
........................................................................
   1   -536.5328742 -0.536533E+03  0.308E-02    0.00       0.0  T
   2   -535.8494709  0.683403E+00  0.983E-01    0.03       1.0  T
   3   -536.5074755 -0.658005E+00  0.194E-01    0.00       1.0  T
   4   -536.3339850  0.173490E+00  0.551E-01    0.00       1.0  T
   5   -536.5263629 -0.192378E+00  0.107E-01    0.00       1.0  T
   6   -536.5024360  0.239269E-01  0.212E-01    0.01       1.0  T
   7   -536.5329862 -0.305503E-01  0.277E-02    0.00       1.0  T
   8   -536.5332124 -0.226189E-03  0.201E-02    0.00       1.0  T
   9   -536.5321938  0.101863E-02  0.430E-02    0.00       1.0  T
  10   -536.5330278 -0.834034E-03  0.256E-02    0.00       1.0  T
  11   -536.5332984 -0.270528E-03  0.158E-02    0.00       1.0  T
  12   -536.5333976 -0.992413E-04  0.106E-02    0.00       1.0  T
  13   -536.5334499 -0.522974E-04  0.623E-03    0.00       1.0  T
  14   -536.5334769 -0.270218E-04  0.482E-04    0.00      12.9  T
  15   -536.5334766  0.300471E-06  0.781E-04    0.00       7.9  T
  16   -536.5334768 -0.173064E-06  0.619E-04    0.00      10.0  T
  17   -536.5334770 -0.206418E-06  0.298E-04    0.00      20.8  T
  18   -536.5334770 -0.321596E-07  0.209E-04    0.00      29.7  T
  19   -536.5334771 -0.294058E-07  0.533E-05    0.00     116.4  T
  20   -536.5334771 -0.180660E-08  0.160E-05    0.00     387.2  T
     SCC iter.                  ...        0 min,  9.794 sec
     gradient                   ...        0 min,  1.467 sec
 * total energy  :  -529.7427783 Eh     change       -0.5635530E-02 Eh
   gradient norm :     0.0156265 Eh/α   predicted    -0.5561607E-02 (  -1.31%)
   displ. norm   :     0.7977745 α      lambda       -0.5497955E-02
   maximum displ.:     0.5253431 α      in ANC's #30, #49, #29, ...

........................................................................
.............................. CYCLE   15 ..............................
........................................................................
   1   -536.5507217 -0.536551E+03  0.513E-02    0.00       0.0  T
   2   -534.5907240  0.196000E+01  0.167E+00    0.01       1.0  T
   3   -536.1583760 -0.156765E+01  0.773E-01    0.02       1.0  T
   4   -536.4102874 -0.251911E+00  0.445E-01    0.03       1.0  T
   5   -536.4863164 -0.760289E-01  0.309E-01    0.02       1.0  T
   6   -536.4786379  0.767843E-02  0.324E-01    0.01       1.0  T
   7   -536.4944444 -0.158064E-01  0.294E-01    0.01       1.0  T
   8   -536.5520552 -0.576108E-01  0.331E-02    0.00       1.0  T
   9   -536.5515100  0.545142E-03  0.439E-02    0.00       1.0  T
  10   -536.5526323 -0.112224E-02  0.140E-02    0.00       1.0  T
  11   -536.5526580 -0.256859E-04  0.122E-02    0.00       1.0  T
  12   -536.5526525  0.543566E-05  0.125E-02    0.00       1.0  T
  13   -536.5527398 -0.872344E-04  0.504E-03    0.00       1.2  T
  14   -536.5527428 -0.299599E-05  0.485E-03    0.00       1.3  T
  15   -536.5527570 -0.142269E-04  0.134E-03    0.00       4.6  T
  16   -536.5527570 -0.395966E-07  0.136E-03    0.00       4.5  T
  17   -536.5527578 -0.769899E-06  0.819E-04    0.00       7.6  T
  18   -536.5527582 -0.355920E-06  0.385E-04    0.00      16.1  T
  19   -536.5527582 -0.567378E-07  0.243E-04    0.00      25.6  T
  20   -536.5527583 -0.406465E-07  0.329E-05    0.00     188.4  T
  21   -536.5527583 -0.491582E-09  0.227E-05    0.00     273.1  T
     SCC iter.                  ...        0 min, 11.568 sec
     gradient                   ...        0 min,  1.492 sec
 * total energy  :  -529.7470625 Eh     change       -0.4284162E-02 Eh
   gradient norm :     0.0308757 Eh/α   predicted    -0.4498547E-02 (   5.00%)
   displ. norm   :     0.7665216 α      lambda       -0.5580832E-02
   maximum displ.:     0.5360808 α      in ANC's #30, #29, #49, ...

........................................................................
.............................. CYCLE   16 ..............................
........................................................................
   1   -536.5875641 -0.536588E+03  0.318E-02    0.00       0.0  T
   2   -535.8907787  0.696785E+00  0.102E+00    0.13       1.0  T
   3   -536.4290494 -0.538271E+00  0.464E-01    0.03       1.0  T
   4   -536.5588072 -0.129758E+00  0.202E-01    0.01       1.0  T
   5   -536.5816273 -0.228201E-01  0.103E-01    0.00       1.0  T
   6   -536.5252932  0.563341E-01  0.318E-01    0.02       1.0  T
   7   -536.5565422 -0.312490E-01  0.214E-01    0.00       1.0  T
   8   -536.5300681  0.264741E-01  0.287E-01    0.00       1.0  T
   9   -536.5852807 -0.552126E-01  0.667E-02    0.00       1.0  T
  10   -536.5869648 -0.168411E-02  0.430E-02    0.00       1.0  T
  11   -536.5879902 -0.102541E-02  0.178E-02    0.00       1.0  T
  12   -536.5881649 -0.174652E-03  0.793E-03    0.00       1.0  T
  13   -536.5882055 -0.405847E-04  0.152E-03    0.00       4.1  T
  14   -536.5882064 -0.912528E-06  0.949E-04    0.00       6.5  T
  15   -536.5882066 -0.262774E-06  0.700E-04    0.00       8.9  T
  16   -536.5882069 -0.284787E-06  0.298E-04    0.00      20.8  T
  17   -536.5882070 -0.530631E-07  0.106E-04    0.00      58.7  T
  18   -536.5882070 -0.642171E-08  0.339E-05    0.00     183.0  T
     SCC iter.                  ...        0 min,  9.006 sec
     gradient                   ...        0 min,  1.482 sec
 * total energy  :  -529.7506719 Eh     change       -0.3609432E-02 Eh
   gradient norm :     0.0317468 Eh/α   predicted    -0.4429946E-02 (  22.73%)
   displ. norm   :     0.7072909 α      lambda       -0.4824161E-02
   maximum displ.:     0.5098007 α      in ANC's #30, #29, #35, ...

........................................................................
.............................. CYCLE   17 ..............................
........................................................................
   1   -536.5927222 -0.536593E+03  0.331E-02    0.00       0.0  T
   2   -536.0116111  0.581111E+00  0.924E-01    0.07       1.0  T
   3   -536.3420651 -0.330454E+00  0.605E-01    0.04       1.0  T
   4   -536.5798020 -0.237737E+00  0.146E-01    0.00       1.0  T
   5   -536.5152294  0.645726E-01  0.335E-01    0.01       1.0  T
   6   -536.5879921 -0.727626E-01  0.913E-02    0.00       1.0  T
   7   -536.5885712 -0.579173E-03  0.833E-02    0.00       1.0  T
   8   -536.5889122 -0.340977E-03  0.799E-02    0.01       1.0  T
   9   -536.5934453 -0.453310E-02  0.805E-03    0.00       1.0  T
  10   -536.5933402  0.105132E-03  0.144E-02    0.00       1.0  T
  11   -536.5933535 -0.132983E-04  0.141E-02    0.00       1.0  T
  12   -536.5934358 -0.823567E-04  0.855E-03    0.00       1.0  T
  13   -536.5934829 -0.471126E-04  0.234E-03    0.00       2.6  T
  14   -536.5934862 -0.327776E-05  0.905E-04    0.00       6.9  T
  15   -536.5934867 -0.438043E-06  0.463E-04    0.00      13.4  T
  16   -536.5934868 -0.137945E-06  0.109E-04    0.00      57.0  T
  17   -536.5934868  0.104612E-07  0.161E-04    0.00      38.4  T
     SCC iter.                  ...        0 min,  8.057 sec
     gradient                   ...        0 min,  1.463 sec
 * total energy  :  -529.7543797 Eh     change       -0.3707802E-02 Eh
   gradient norm :     0.0174652 Eh/α   predicted    -0.3618749E-02 (  -2.40%)
   displ. norm   :     0.7473008 α      lambda       -0.4453023E-02
   maximum displ.:     0.5376050 α      in ANC's #30, #29, #24, ...

........................................................................
.............................. CYCLE   18 ..............................
........................................................................
   1   -536.5994572 -0.536599E+03  0.445E-02    0.00       0.0  T
   2   -535.7226165  0.876841E+00  0.111E+00    0.14       1.0  T
   3   -536.3153814 -0.592765E+00  0.657E-01    0.05       1.0  T
   4   -536.5386833 -0.223302E+00  0.299E-01    0.02       1.0  T
   5   -536.5270628  0.116205E-01  0.324E-01    0.01       1.0  T
   6   -536.3077827  0.219280E+00  0.641E-01    0.06       1.0  T
   7   -536.3700844 -0.623017E-01  0.563E-01    0.04       1.0  T
   8   -536.4289020 -0.588176E-01  0.485E-01    0.04       1.0  T
   9   -536.5834835 -0.154582E+00  0.156E-01    0.01       1.0  T
  10   -536.5974522 -0.139687E-01  0.713E-02    0.00       1.0  T
  11   -536.5987852 -0.133296E-02  0.545E-02    0.01       1.0  T
  12   -536.6008599 -0.207468E-02  0.932E-03    0.00       1.0  T
  13   -536.6008453  0.145667E-04  0.103E-02    0.00       1.0  T
  14   -536.6008884 -0.430605E-04  0.648E-03    0.00       1.0  T
  15   -536.6009173 -0.289511E-04  0.116E-03    0.00       5.3  T
  16   -536.6009180 -0.701458E-06  0.659E-04    0.00       9.4  T
  17   -536.6009182 -0.123893E-06  0.497E-04    0.00      12.5  T
  18   -536.6009183 -0.113609E-06  0.241E-04    0.00      25.8  T
  19   -536.6009183 -0.291263E-07  0.114E-04    0.00      54.2  T
  20   -536.6009183 -0.556906E-08  0.667E-05    0.00      93.0  T
     SCC iter.                  ...        0 min, 10.905 sec
     gradient                   ...        0 min,  1.510 sec
 * total energy  :  -529.7571284 Eh     change       -0.2748624E-02 Eh
   gradient norm :     0.0385612 Eh/α   predicted    -0.3469927E-02 (  26.24%)
   displ. norm   :     0.6890858 α      lambda       -0.4718001E-02
   maximum displ.:     0.5080414 α      in ANC's #30, #29, #24, ...

........................................................................
.............................. CYCLE   19 ..............................
........................................................................
   1   -536.6006869 -0.536601E+03  0.162E-02    0.00       0.0  T
   2   -536.5190382  0.816487E-01  0.355E-01    0.02       1.0  T
   3   -536.6001996 -0.811613E-01  0.301E-02    0.00       1.0  T
   4   -536.5833179  0.168816E-01  0.159E-01    0.00       1.0  T
   5   -536.5602758  0.230422E-01  0.235E-01    0.00       1.0  T
   6   -536.5890548 -0.287790E-01  0.132E-01    0.00       1.0  T
   7   -536.5960990 -0.704423E-02  0.830E-02    0.00       1.0  T
   8   -536.5994043 -0.330526E-02  0.421E-02    0.00       1.0  T
   9   -536.6006179 -0.121360E-02  0.128E-02    0.00       1.0  T
  10   -536.6007082 -0.902985E-04  0.553E-03    0.00       1.1  T
  11   -536.6007280 -0.198153E-04  0.101E-03    0.00       6.1  T
  12   -536.6007279  0.144385E-06  0.112E-03    0.00       5.5  T
  13   -536.6007287 -0.818657E-06  0.241E-04    0.00      25.8  T
  14   -536.6007287 -0.244661E-07  0.145E-04    0.00      42.8  T
  15   -536.6007287 -0.150268E-07  0.233E-05    0.00     265.8  T
     SCC iter.                  ...        0 min,  7.603 sec
     gradient                   ...        0 min,  1.486 sec
 * total energy  :  -529.7599139 Eh     change       -0.2785538E-02 Eh
   gradient norm :     0.0369851 Eh/α   predicted    -0.3479147E-02 (  24.90%)
   displ. norm   :     0.6379956 α      lambda       -0.4715474E-02
   maximum displ.:     0.4492529 α      in ANC's #30, #29, #24, ...

........................................................................
.............................. CYCLE   20 ..............................
........................................................................
   1   -536.6108054 -0.536611E+03  0.310E-02    0.00       0.0  T
   2   -535.9091150  0.701690E+00  0.988E-01    0.10       1.0  T
   3   -536.3874282 -0.478313E+00  0.585E-01    0.02       1.0  T
   4   -536.5993237 -0.211895E+00  0.130E-01    0.00       1.0  T
   5   -536.5026646  0.966590E-01  0.412E-01    0.01       1.0  T
   6   -536.6034851 -0.100820E+00  0.107E-01    0.01       1.0  T
   7   -536.6096547 -0.616963E-02  0.490E-02    0.00       1.0  T
   8   -536.6098452 -0.190500E-03  0.467E-02    0.00       1.0  T
   9   -536.6113162 -0.147091E-02  0.891E-03    0.00       1.0  T
  10   -536.6110496  0.266532E-03  0.217E-02    0.00       1.0  T
  11   -536.6113462 -0.296535E-03  0.513E-03    0.00       1.2  T
  12   -536.6113438  0.238812E-05  0.561E-03    0.00       1.1  T
  13   -536.6113635 -0.197786E-04  0.128E-03    0.00       4.9  T
  14   -536.6113644 -0.890957E-06  0.609E-04    0.00      10.2  T
  15   -536.6113646 -0.176037E-06  0.350E-04    0.00      17.7  T
  16   -536.6113647 -0.474199E-07  0.204E-04    0.00      30.4  T
  17   -536.6113647 -0.281510E-07  0.304E-05    0.00     204.0  T
  18   -536.6113647 -0.187697E-09  0.262E-05    0.00     236.9  T
     SCC iter.                  ...        0 min,  9.268 sec
     gradient                   ...        0 min,  1.454 sec
 * total energy  :  -529.7629118 Eh     change       -0.2997950E-02 Eh
   gradient norm :     0.0221178 Eh/α   predicted    -0.3317429E-02 (  10.66%)
   displ. norm   :     0.7554425 α      lambda       -0.3415635E-02
   maximum displ.:     0.5597636 α      in ANC's #30, #29, #24, ...
 * RMSD in coord.:     0.7193738 α      energy gain  -0.7216502E+00 Eh

generating ANC from model Hessian ...
Using Lindh-Hessian (1995)
 Shifting diagonal of input Hessian by    1.0011995644591027E-002
 Lowest  eigenvalues of input Hessian
    0.010000    0.010003    0.010003    0.010004    0.010005    0.010006
    0.010008    0.000000    0.000000    0.000000    0.000000    0.000000
    0.000000    0.010015    0.010023    0.010052    0.010071    0.010075
 Highest eigenvalues
    3.651261    3.661874    3.661938    3.662268    3.666553    3.670960


........................................................................
.............................. CYCLE   21 ..............................
........................................................................
   1   -536.6154147 -0.536615E+03  0.270E-02    0.00       0.0  T
   2   -536.0920009  0.523414E+00  0.856E-01    0.07       1.0  T
   3   -536.3822126 -0.290212E+00  0.592E-01    0.01       1.0  T
   4   -536.6061385 -0.223926E+00  0.122E-01    0.00       1.0  T
   5   -536.5301124  0.760261E-01  0.366E-01    0.01       1.0  T
   6   -536.6096125 -0.795001E-01  0.961E-02    0.00       1.0  T
   7   -536.6064363  0.317625E-02  0.115E-01    0.01       1.0  T
   8   -536.6027657  0.367053E-02  0.135E-01    0.01       1.0  T
   9   -536.6113788 -0.861310E-02  0.816E-02    0.00       1.0  T
  10   -536.6150103 -0.363149E-02  0.362E-02    0.00       1.0  T
  11   -536.6158565 -0.846193E-03  0.731E-03    0.00       1.0  T
  12   -536.6158705 -0.139589E-04  0.548E-03    0.00       1.1  T
  13   -536.6158878 -0.172814E-04  0.226E-03    0.00       2.7  T
  14   -536.6158896 -0.186797E-05  0.160E-03    0.00       3.9  T
  15   -536.6158913 -0.166485E-05  0.439E-04    0.00      14.1  T
  16   -536.6158914 -0.126208E-06  0.610E-05    0.00     101.7  T
  17   -536.6158914  0.593900E-09  0.666E-05    0.00      93.1  T
     SCC iter.                  ...        0 min,  8.806 sec
     gradient                   ...        0 min,  1.455 sec
 * total energy  :  -529.7655501 Eh     change       -0.2638211E-02 Eh
   gradient norm :     0.0229382 Eh/α   predicted     0.0000000E+00 (-100.00%)
   displ. norm   :     0.2604254 α      lambda       -0.1394068E-02
   maximum displ.:     0.1624170 α      in ANC's #35, #30, #14, ...

........................................................................
.............................. CYCLE   22 ..............................
........................................................................
   1   -536.6186209 -0.536619E+03  0.131E-02    0.00       0.0  T
   2   -536.3680852  0.250536E+00  0.609E-01    0.01       1.0  T
   3   -536.6079602 -0.239875E+00  0.131E-01    0.00       1.0  T
   4   -536.6155173 -0.755705E-02  0.710E-02    0.00       1.0  T
   5   -536.6112134  0.430389E-02  0.102E-01    0.00       1.0  T
   6   -536.6065073  0.470610E-02  0.138E-01    0.01       1.0  T
   7   -536.6186892 -0.121819E-01  0.718E-03    0.00       1.0  T
   8   -536.6187160 -0.268301E-04  0.236E-03    0.00       2.6  T
   9   -536.6187018  0.142261E-04  0.517E-03    0.00       1.2  T
  10   -536.6186753  0.264869E-04  0.806E-03    0.00       1.0  T
  11   -536.6187163 -0.409512E-04  0.229E-03    0.00       2.7  T
  12   -536.6187198 -0.353352E-05  0.611E-04    0.00      10.2  T
  13   -536.6187201 -0.269499E-06  0.656E-05    0.00      94.5  T
  14   -536.6187201 -0.212094E-08  0.388E-05    0.00     159.9  T
     SCC iter.                  ...        0 min,  7.241 sec
     gradient                   ...        0 min,  1.502 sec
 * total energy  :  -529.7667314 Eh     change       -0.1181358E-02 Eh
   gradient norm :     0.0085262 Eh/α   predicted    -0.7443631E-03 ( -36.99%)
   displ. norm   :     0.5668564 α      lambda       -0.2100516E-02
   maximum displ.:     0.3480717 α      in ANC's #35, #30, #14, ...

........................................................................
.............................. CYCLE   23 ..............................
........................................................................
   1   -536.6221141 -0.536622E+03  0.216E-02    0.00       0.0  T
   2   -536.1112176  0.510896E+00  0.849E-01    0.08       1.0  T
   3   -536.5171031 -0.405885E+00  0.409E-01    0.00       1.0  T
   4   -536.6112808 -0.941778E-01  0.128E-01    0.00       1.0  T
   5   -536.5881431  0.231377E-01  0.226E-01    0.01       1.0  T
   6   -536.6156188 -0.274757E-01  0.108E-01    0.01       1.0  T
   7   -536.6221003 -0.648142E-02  0.210E-02    0.00       1.0  T
   8   -536.6220863  0.139760E-04  0.206E-02    0.00       1.0  T
   9   -536.6223677 -0.281400E-03  0.589E-03    0.00       1.1  T
  10   -536.6223742 -0.654636E-05  0.509E-03    0.00       1.2  T
  11   -536.6223864 -0.121386E-04  0.288E-03    0.00       2.2  T
  12   -536.6223902 -0.383839E-05  0.176E-03    0.00       3.5  T
  13   -536.6223911 -0.878206E-06  0.137E-03    0.00       4.5  T
  14   -536.6223923 -0.124506E-05  0.369E-04    0.00      16.8  T
  15   -536.6223924 -0.862808E-07  0.138E-04    0.00      44.8  T
  16   -536.6223924 -0.107641E-07  0.565E-05    0.00     109.8  T
     SCC iter.                  ...        0 min,  8.251 sec
     gradient                   ...        0 min,  1.439 sec
 * total energy  :  -529.7684621 Eh     change       -0.1730693E-02 Eh
   gradient norm :     0.0147242 Eh/α   predicted    -0.1387734E-02 ( -19.82%)
   displ. norm   :     0.6502269 α      lambda       -0.1873389E-02
   maximum displ.:     0.3946795 α      in ANC's #35, #30, #14, ...

........................................................................
.............................. CYCLE   24 ..............................
........................................................................
   1   -536.6243595 -0.536624E+03  0.188E-02    0.00       0.0  T
   2   -536.0588125  0.565547E+00  0.886E-01    0.09       1.0  T
   3   -536.6107642 -0.551952E+00  0.144E-01    0.00       1.0  T
   4   -536.5943027  0.164615E-01  0.222E-01    0.01       1.0  T
   5   -536.6223985 -0.280958E-01  0.586E-02    0.00       1.0  T
   6   -536.5551841  0.672144E-01  0.332E-01    0.02       1.0  T
   7   -536.6235016 -0.683175E-01  0.384E-02    0.01       1.0  T
   8   -536.6225820  0.919644E-03  0.525E-02    0.00       1.0  T
   9   -536.6245328 -0.195082E-02  0.815E-03    0.00       1.0  T
  10   -536.6245697 -0.368875E-04  0.402E-03    0.00       1.5  T
  11   -536.6245760 -0.633965E-05  0.267E-03    0.00       2.3  T
  12   -536.6245783 -0.224885E-05  0.208E-03    0.00       3.0  T
  13   -536.6245803 -0.204295E-05  0.116E-03    0.00       5.3  T
  14   -536.6245811 -0.833881E-06  0.435E-04    0.00      14.3  T
  15   -536.6245813 -0.134659E-06  0.735E-05    0.00      84.4  T
  16   -536.6245813 -0.356476E-08  0.125E-05    0.00     496.5  T
     SCC iter.                  ...        0 min,  7.803 sec
     gradient                   ...        0 min,  1.438 sec
 * total energy  :  -529.7701471 Eh     change       -0.1684969E-02 Eh
   gradient norm :     0.0207864 Eh/α   predicted    -0.1332724E-02 ( -20.91%)
   displ. norm   :     0.7298292 α      lambda       -0.2074363E-02
   maximum displ.:     0.4398656 α      in ANC's #35, #30, #14, ...

........................................................................
.............................. CYCLE   25 ..............................
........................................................................
   1   -536.6266518 -0.536627E+03  0.228E-02    0.00       0.0  T
   2   -536.2098372  0.416815E+00  0.762E-01    0.02       1.0  T
   3   -536.5754158 -0.365579E+00  0.273E-01    0.00       1.0  T
   4   -536.6212089 -0.457931E-01  0.100E-01    0.00       1.0  T
   5   -536.6243576 -0.314871E-02  0.648E-02    0.00       1.0  T
   6   -536.6068259  0.175318E-01  0.179E-01    0.01       1.0  T
   7   -536.6257104 -0.188845E-01  0.418E-02    0.01       1.0  T
   8   -536.6254857  0.224694E-03  0.460E-02    0.00       1.0  T
   9   -536.6268377 -0.135199E-02  0.155E-02    0.00       1.0  T
  10   -536.6269434 -0.105695E-03  0.912E-03    0.00       1.0  T
  11   -536.6269980 -0.545804E-04  0.207E-03    0.00       3.0  T
  12   -536.6269974  0.600179E-06  0.223E-03    0.00       2.8  T
  13   -536.6270001 -0.277511E-05  0.902E-04    0.00       6.9  T
  14   -536.6270007 -0.541469E-06  0.195E-04    0.00      31.8  T
  15   -536.6270007 -0.134946E-07  0.125E-04    0.00      49.6  T
     SCC iter.                  ...        0 min,  8.035 sec
     gradient                   ...        0 min,  1.509 sec
 * total energy  :  -529.7720264 Eh     change       -0.1879329E-02 Eh
   gradient norm :     0.0170085 Eh/α   predicted    -0.1589638E-02 ( -15.41%)
   displ. norm   :     0.7900718 α      lambda       -0.2105521E-02
   maximum displ.:     0.4753307 α      in ANC's #30, #35, #14, ...

........................................................................
.............................. CYCLE   26 ..............................
........................................................................
   1   -536.6311620 -0.536631E+03  0.299E-02    0.00       0.0  T
   2   -536.1569080  0.474254E+00  0.823E-01    0.02       1.0  T
   3   -536.5528718 -0.395964E+00  0.357E-01    0.01       1.0  T
   4   -536.6213182 -0.684463E-01  0.128E-01    0.01       1.0  T
   5   -536.6188453  0.247285E-02  0.138E-01    0.01       1.0  T
   6   -536.6180562  0.789120E-03  0.140E-01    0.01       1.0  T
   7   -536.6314261 -0.133699E-01  0.231E-02    0.00       1.0  T
   8   -536.6316647 -0.238606E-03  0.129E-02    0.00       1.0  T
   9   -536.6317209 -0.561955E-04  0.893E-03    0.00       1.0  T
  10   -536.6315680  0.152945E-03  0.174E-02    0.00       1.0  T
  11   -536.6317609 -0.192964E-03  0.439E-03    0.00       1.4  T
  12   -536.6317737 -0.127628E-04  0.639E-04    0.00       9.7  T
  13   -536.6317737 -0.316521E-07  0.584E-04    0.00      10.6  T
  14   -536.6317736  0.159082E-06  0.780E-04    0.00       8.0  T
  15   -536.6317740 -0.402557E-06  0.128E-04    0.00      48.4  T
  16   -536.6317740 -0.276873E-08  0.108E-04    0.00      57.2  T
     SCC iter.                  ...        0 min,  7.998 sec
     gradient                   ...        0 min,  1.537 sec
 * total energy  :  -529.7738354 Eh     change       -0.1808952E-02 Eh
   gradient norm :     0.0131271 Eh/α   predicted    -0.1709908E-02 (  -5.48%)
   displ. norm   :     0.7718453 α      lambda       -0.1683702E-02
   maximum displ.:     0.4735076 α      in ANC's #30, #35, #14, ...

........................................................................
.............................. CYCLE   27 ..............................
........................................................................
   1   -536.6380475 -0.536638E+03  0.312E-02    0.00       0.0  T
   2   -535.9925394  0.645508E+00  0.940E-01    0.03       1.0  T
   3   -536.4516096 -0.459070E+00  0.531E-01    0.00       1.0  T
   4   -536.6321454 -0.180536E+00  0.965E-02    0.01       1.0  T
   5   -536.5758317  0.563138E-01  0.318E-01    0.01       1.0  T
   6   -536.6329349 -0.571032E-01  0.919E-02    0.00       1.0  T
   7   -536.6377456 -0.481071E-02  0.383E-02    0.00       1.0  T
   8   -536.6386771 -0.931472E-03  0.980E-03    0.00       1.0  T
   9   -536.6382428  0.434299E-03  0.265E-02    0.01       1.0  T
  10   -536.6387287 -0.485935E-03  0.486E-03    0.00       1.3  T
  11   -536.6384228  0.305904E-03  0.214E-02    0.00       1.0  T
  12   -536.6387117 -0.288861E-03  0.668E-03    0.00       1.0  T
  13   -536.6387425 -0.308844E-04  0.599E-04    0.00      10.4  T
  14   -536.6387426 -0.232036E-07  0.577E-04    0.00      10.8  T
  15   -536.6387426 -0.779324E-07  0.466E-04    0.00      13.3  T
  16   -536.6387427 -0.897321E-07  0.281E-04    0.00      22.1  T
  17   -536.6387428 -0.379735E-07  0.156E-04    0.00      39.8  T
  18   -536.6387428 -0.983300E-08  0.970E-05    0.00      63.9  T
     SCC iter.                  ...        0 min,  8.931 sec
     gradient                   ...        0 min,  1.482 sec
 * total energy  :  -529.7752821 Eh     change       -0.1446751E-02 Eh
   gradient norm :     0.0150326 Eh/α   predicted    -0.1343389E-02 (  -7.14%)
   displ. norm   :     0.7455843 α      lambda       -0.1453655E-02
   maximum displ.:     0.4637537 α      in ANC's #30, #35, #14, ...

........................................................................
.............................. CYCLE   28 ..............................
........................................................................
   1   -536.6471369 -0.536647E+03  0.324E-02    0.00       0.0  T
   2   -535.7846274  0.862510E+00  0.109E+00    0.08       1.0  T
   3   -536.4735074 -0.688880E+00  0.513E-01    0.03       1.0  T
   4   -536.6357309 -0.162223E+00  0.130E-01    0.01       1.0  T
   5   -536.5467485  0.889824E-01  0.405E-01    0.03       1.0  T
   6   -536.6279412 -0.811927E-01  0.165E-01    0.01       1.0  T
   7   -536.6397481 -0.118069E-01  0.108E-01    0.01       1.0  T
   8   -536.6442633 -0.451519E-02  0.715E-02    0.01       1.0  T
   9   -536.6468616 -0.259827E-02  0.387E-02    0.01       1.0  T
  10   -536.6474475 -0.585945E-03  0.266E-02    0.00       1.0  T
  11   -536.6479111 -0.463618E-03  0.494E-03    0.00       1.3  T
  12   -536.6479167 -0.562261E-05  0.410E-03    0.00       1.5  T
  13   -536.6479263 -0.953410E-05  0.206E-03    0.00       3.0  T
  14   -536.6479287 -0.245412E-05  0.659E-04    0.00       9.4  T
  15   -536.6479290 -0.274585E-06  0.233E-04    0.00      26.6  T
  16   -536.6479290 -0.903901E-08  0.202E-04    0.00      30.7  T
  17   -536.6479290 -0.273260E-07  0.594E-05    0.00     104.5  T
  18   -536.6479290 -0.223883E-08  0.216E-05    0.00     287.2  T
     SCC iter.                  ...        0 min,  8.907 sec
     gradient                   ...        0 min,  1.487 sec
 * total energy  :  -529.7765455 Eh     change       -0.1263352E-02 Eh
   gradient norm :     0.0114492 Eh/α   predicted    -0.1130880E-02 ( -10.49%)
   displ. norm   :     0.7534982 α      lambda       -0.1254997E-02
   maximum displ.:     0.4738999 α      in ANC's #30, #35, #14, ...

........................................................................
.............................. CYCLE   29 ..............................
........................................................................
   1   -536.6562654 -0.536656E+03  0.361E-02    0.00       0.0  T
   2   -535.7708157  0.885450E+00  0.111E+00    0.09       1.0  T
   3   -536.5679310 -0.797115E+00  0.365E-01    0.02       1.0  T
   4   -536.6310221 -0.630912E-01  0.190E-01    0.02       1.0  T
   5   -536.5379320  0.930901E-01  0.434E-01    0.01       1.0  T
   6   -536.5521707 -0.142387E-01  0.383E-01    0.02       1.0  T
   7   -536.5859540 -0.337833E-01  0.313E-01    0.02       1.0  T
   8   -536.6263187 -0.403647E-01  0.206E-01    0.02       1.0  T
   9   -536.6562348 -0.299161E-01  0.388E-02    0.00       1.0  T
  10   -536.6568433 -0.608541E-03  0.251E-02    0.00       1.0  T
  11   -536.6572580 -0.414695E-03  0.658E-03    0.00       1.0  T
  12   -536.6572254  0.326693E-04  0.938E-03    0.00       1.0  T
  13   -536.6572853 -0.599476E-04  0.244E-03    0.00       2.5  T
  14   -536.6572858 -0.477974E-06  0.223E-03    0.00       2.8  T
  15   -536.6572888 -0.300486E-05  0.925E-04    0.00       6.7  T
  16   -536.6572893 -0.540554E-06  0.299E-04    0.00      20.8  T
  17   -536.6572894 -0.563219E-07  0.946E-05    0.00      65.5  T
  18   -536.6572894 -0.444891E-08  0.505E-05    0.00     122.8  T
     SCC iter.                  ...        0 min, 10.111 sec
     gradient                   ...        0 min,  1.529 sec
 * total energy  :  -529.7776022 Eh     change       -0.1056720E-02 Eh
   gradient norm :     0.0076473 Eh/α   predicted    -0.9837667E-03 (  -6.90%)
   displ. norm   :     0.7354073 α      lambda       -0.9514212E-03
   maximum displ.:     0.4673066 α      in ANC's #30, #35, #14, ...

........................................................................
.............................. CYCLE   30 ..............................
........................................................................
   1   -536.6643106 -0.536664E+03  0.384E-02    0.00       0.0  T
   2   -535.7587076  0.905603E+00  0.112E+00    0.09       1.0  T
   3   -536.5285567 -0.769849E+00  0.454E-01    0.03       1.0  T
   4   -536.6284606 -0.999039E-01  0.225E-01    0.02       1.0  T
   5   -536.5807874  0.476731E-01  0.363E-01    0.03       1.0  T
   6   -536.4912689  0.895185E-01  0.492E-01    0.04       1.0  T
   7   -536.5530860 -0.618170E-01  0.393E-01    0.03       1.0  T
   8   -536.6324859 -0.793999E-01  0.213E-01    0.02       1.0  T
   9   -536.6640907 -0.316048E-01  0.446E-02    0.00       1.0  T
  10   -536.6651429 -0.105216E-02  0.219E-02    0.00       1.0  T
  11   -536.6654743 -0.331458E-03  0.500E-03    0.00       1.2  T
  12   -536.6654591  0.152465E-04  0.679E-03    0.00       1.0  T
  13   -536.6654880 -0.289337E-04  0.248E-03    0.00       2.5  T
  14   -536.6654872  0.861247E-06  0.268E-03    0.00       2.3  T
  15   -536.6654919 -0.470988E-05  0.828E-04    0.00       7.5  T
  16   -536.6654923 -0.430426E-06  0.281E-04    0.00      22.1  T
  17   -536.6654923 -0.467186E-07  0.106E-04    0.00      58.8  T
  18   -536.6654923 -0.648186E-08  0.377E-05    0.00     164.3  T
     SCC iter.                  ...        0 min,  9.282 sec
     gradient                   ...        0 min,  1.456 sec
 * total energy  :  -529.7783957 Eh     change       -0.7935390E-03 Eh
   gradient norm :     0.0071546 Eh/α   predicted    -0.7329862E-03 (  -7.63%)
   displ. norm   :     0.6874947 α      lambda       -0.7180840E-03
   maximum displ.:     0.4398302 α      in ANC's #30, #14, #35, ...

........................................................................
.............................. CYCLE   31 ..............................
........................................................................
   1   -536.6709537 -0.536671E+03  0.393E-02    0.00       0.0  T
   2   -535.7691454  0.901808E+00  0.112E+00    0.10       1.0  T
   3   -536.4839778 -0.714832E+00  0.532E-01    0.04       1.0  T
   4   -536.6276265 -0.143649E+00  0.249E-01    0.02       1.0  T
   5   -536.6052948  0.223317E-01  0.313E-01    0.02       1.0  T
   6   -536.4937596  0.111535E+00  0.495E-01    0.04       1.0  T
   7   -536.5935215 -0.997619E-01  0.327E-01    0.02       1.0  T
   8   -536.6471859 -0.536644E-01  0.185E-01    0.01       1.0  T
   9   -536.6718138 -0.246279E-01  0.241E-02    0.00       1.0  T
  10   -536.6717514  0.624075E-04  0.248E-02    0.00       1.0  T
  11   -536.6721770 -0.425564E-03  0.609E-03    0.00       1.0  T
  12   -536.6721759  0.109078E-05  0.612E-03    0.00       1.0  T
  13   -536.6721900 -0.141093E-04  0.433E-03    0.00       1.4  T
  14   -536.6721980 -0.802994E-05  0.275E-03    0.00       2.3  T
  15   -536.6722032 -0.517404E-05  0.565E-04    0.00      11.0  T
  16   -536.6722033 -0.115778E-06  0.421E-04    0.00      14.7  T
  17   -536.6722034 -0.999796E-07  0.159E-04    0.00      39.0  T
  18   -536.6722034 -0.145079E-07  0.642E-05    0.00      96.5  T
     SCC iter.                  ...        0 min,  8.904 sec
     gradient                   ...        0 min,  1.390 sec
 * total energy  :  -529.7789899 Eh     change       -0.5941977E-03 Eh
   gradient norm :     0.0060096 Eh/α   predicted    -0.5287483E-03 ( -11.01%)
   displ. norm   :     0.6503172 α      lambda       -0.5663779E-03
   maximum displ.:     0.4147229 α      in ANC's #30, #14, #35, ...

........................................................................
.............................. CYCLE   32 ..............................
........................................................................
   1   -536.6747945 -0.536675E+03  0.423E-02    0.00       0.0  T
   2   -535.7263664  0.948428E+00  0.115E+00    0.08       1.0  T
   3   -536.4443477 -0.717981E+00  0.594E-01    0.02       1.0  T
   4   -536.6178729 -0.173525E+00  0.286E-01    0.02       1.0  T
   5   -536.6187994 -0.926501E-03  0.284E-01    0.01       1.0  T
   6   -536.5116517  0.107148E+00  0.476E-01    0.03       1.0  T
   7   -536.6709271 -0.159275E+00  0.907E-02    0.00       1.0  T
   8   -536.6728453 -0.191816E-02  0.680E-02    0.01       1.0  T
   9   -536.6750880 -0.224270E-02  0.417E-02    0.00       1.0  T
  10   -536.6762016 -0.111366E-02  0.782E-03    0.00       1.0  T
  11   -536.6760529  0.148748E-03  0.162E-02    0.00       1.0  T
  12   -536.6762260 -0.173076E-03  0.494E-03    0.00       1.3  T
  13   -536.6762349 -0.896965E-05  0.327E-03    0.00       1.9  T
  14   -536.6762369 -0.197800E-05  0.276E-03    0.00       2.2  T
  15   -536.6762421 -0.515768E-05  0.730E-04    0.00       8.5  T
  16   -536.6762424 -0.302385E-06  0.363E-04    0.00      17.1  T
  17   -536.6762424 -0.410961E-07  0.243E-04    0.00      25.6  T
  18   -536.6762424 -0.127509E-07  0.197E-04    0.00      31.5  T
  19   -536.6762425 -0.232928E-07  0.753E-05    0.00      82.3  T
     SCC iter.                  ...        0 min, 10.536 sec
     gradient                   ...        0 min,  1.530 sec
 * total energy  :  -529.7794628 Eh     change       -0.4728319E-03 Eh
   gradient norm :     0.0060099 Eh/α   predicted    -0.4029538E-03 ( -14.78%)
   displ. norm   :     0.6091407 α      lambda       -0.5274562E-03
   maximum displ.:     0.3716705 α      in ANC's #30, #14, #24, ...

........................................................................
.............................. CYCLE   33 ..............................
........................................................................
   1   -536.6793971 -0.536679E+03  0.440E-02    0.00       0.0  T
   2   -535.6912249  0.988172E+00  0.117E+00    0.07       1.0  T
   3   -536.3982132 -0.706988E+00  0.657E-01    0.01       1.0  T
   4   -536.6185979 -0.220385E+00  0.295E-01    0.02       1.0  T
   5   -536.6304871 -0.118892E-01  0.265E-01    0.01       1.0  T
   6   -536.4963703  0.134117E+00  0.507E-01    0.03       1.0  T
   7   -536.5809944 -0.846241E-01  0.370E-01    0.02       1.0  T
   8   -536.6778042 -0.968098E-01  0.658E-02    0.01       1.0  T
   9   -536.6790332 -0.122904E-02  0.529E-02    0.01       1.0  T
  10   -536.6807328 -0.169958E-02  0.173E-02    0.00       1.0  T
  11   -536.6807653 -0.325106E-04  0.154E-02    0.00       1.0  T
  12   -536.6808943 -0.129000E-03  0.778E-03    0.00       1.0  T
  13   -536.6809319 -0.375741E-04  0.298E-03    0.00       2.1  T
  14   -536.6809354 -0.351989E-05  0.195E-03    0.00       3.2  T
  15   -536.6809381 -0.263760E-05  0.453E-04    0.00      13.7  T
  16   -536.6809381 -0.330264E-07  0.376E-04    0.00      16.5  T
  17   -536.6809381  0.357237E-07  0.427E-04    0.00      14.5  T
  18   -536.6809382 -0.100987E-06  0.195E-04    0.00      31.8  T
  19   -536.6809382 -0.177183E-07  0.112E-04    0.00      55.2  T
     SCC iter.                  ...        0 min,  9.513 sec
     gradient                   ...        0 min,  1.536 sec
 * total energy  :  -529.7798906 Eh     change       -0.4278548E-03 Eh
   gradient norm :     0.0053959 Eh/α   predicted    -0.3615854E-03 ( -15.49%)
   displ. norm   :     0.6933761 α      lambda       -0.5758654E-03
   maximum displ.:     0.4134641 α      in ANC's #30, #14, #24, ...

........................................................................
.............................. CYCLE   34 ..............................
........................................................................
   1   -536.6742270 -0.536674E+03  0.519E-02    0.00       0.0  T
   2   -535.1277741  0.154645E+01  0.146E+00    0.00       1.0  T
   3   -536.2554110 -0.112764E+01  0.827E-01    0.07       1.0  T
   4   -536.6316116 -0.376201E+00  0.255E-01    0.01       1.0  T
   5   -536.5677171  0.638945E-01  0.393E-01    0.01       1.0  T
[...]
    26   6 C       27   6 C                                       1.3556704
    27   6 C       28   6 C                                       1.4325565
    25   6 C       29   7 N                                       1.3632622
    28   6 C       29   7 N                                       1.3774151
    28   6 C       30   6 C                                       1.3867393
    31   6 C       32   6 C                                       1.3973407
    32   6 C       33   6 C                                       1.3849120
    33   6 C       34   6 C                                       1.3855461
    34   6 C       35  16 S                                       1.7537072
    35  16 S       36   8 O                                       1.4322889
    35  16 S       37   8 O                                       1.6239219
    35  16 S       38   8 O                                       1.4336546
    34   6 C       39   6 C                                       1.3852259
    31   6 C       40   6 C                                       1.3968750
    39   6 C       40   6 C                                       1.3853045
    30   6 C       41   6 C                                       1.3921931
    41   6 C       42   6 C                                       1.4338419
    42   6 C       43   6 C                                       1.3543434
     2   6 C       44   6 C                                       1.3788045
    43   6 C       44   6 C                                       1.4322715
    41   6 C       45   7 N                                       1.3666651
    44   6 C       45   7 N                                       1.3733576
     2   6 C       46   1 H                                       1.0835932
     4   6 C       47   1 H                                       1.0782888
     5   6 C       48   1 H                                       1.0777983
    10   6 C       49   1 H                                       1.0836273
    11   6 C       50   1 H                                       1.0827604
    15   8 O       51   1 H                                       0.9650018
    17   6 C       52   1 H                                       1.0827722
    18   6 C       53   1 H                                       1.0837856
    20   6 C       54   1 H                                       1.0779099
    21   6 C       55   1 H                                       1.0779958
    26   6 C       56   1 H                                       1.0778405
    27   6 C       57   1 H                                       1.0776867
    32   6 C       58   1 H                                       1.0837539
    33   6 C       59   1 H                                       1.0827689
    37   8 O       60   1 H                                       0.9650155
    39   6 C       61   1 H                                       1.0827484
    40   6 C       62   1 H                                       1.0836561
    42   6 C       63   1 H                                       1.0780223
    43   6 C       64   1 H                                       1.0782243
    66   6 C       67   6 C                                       1.3795139
    67   6 C       68   6 C                                       1.4313009
    68   6 C       69   6 C                                       1.3540618
    69   6 C       70   6 C                                       1.4344256
    67   6 C       71   7 N                                       1.3715763
    70   6 C       71   7 N                                       1.3717845
    70   6 C       72   6 C                                       1.3887997
    73   6 C       74   6 C                                       1.3972011
    74   6 C       75   6 C                                       1.3851727
    75   6 C       76   6 C                                       1.3854172
    76   6 C       77  16 S                                       1.7534182
    77  16 S       78   8 O                                       1.4328868
    77  16 S       79   8 O                                       1.6240839
    77  16 S       80   8 O                                       1.4336172
    76   6 C       81   6 C                                       1.3854754
    73   6 C       82   6 C                                       1.3975634
    81   6 C       82   6 C                                       1.3848600
    72   6 C       83   6 C                                       1.3886372
    83   6 C       84   6 C                                       1.4320253
    84   6 C       85   6 C                                       1.3551890
    83   6 C       86   7 N                                       1.3739011
    85   6 C       87   6 C                                       1.4291732
    86   7 N       87   6 C                                       1.3682076
    87   6 C       88   6 C                                       1.3965017
    88   6 C       89   6 C                                       1.3975324
    89   6 C       90   6 C                                       1.4285010
    90   6 C       91   6 C                                       1.3552106
    91   6 C       92   6 C                                       1.4324562
    89   6 C       93   7 N                                       1.3665366
    92   6 C       93   7 N                                       1.3760040
    92   6 C       94   6 C                                       1.3873093
    95   6 C       96   6 C                                       1.3973085
    96   6 C       97   6 C                                       1.3850885
    97   6 C       98   6 C                                       1.3854357
    98   6 C       99  16 S                                       1.7535304
    99  16 S      100   8 O                                       1.4327824
    99  16 S      101   8 O                                       1.6240587
    99  16 S      102   8 O                                       1.4338165
    98   6 C      103   6 C                                       1.3854040
    95   6 C      104   6 C                                       1.3973653
   103   6 C      104   6 C                                       1.3849639
    94   6 C      105   6 C                                       1.3899747
   105   6 C      106   6 C                                       1.4341098
   106   6 C      107   6 C                                       1.3539113
    66   6 C      108   6 C                                       1.3783713
   107   6 C      108   6 C                                       1.4318719
   105   6 C      109   7 N                                       1.3697015
   108   6 C      109   7 N                                       1.3732432
    66   6 C      110   1 H                                       1.0834669
    68   6 C      111   1 H                                       1.0782773
    69   6 C      112   1 H                                       1.0779044
    74   6 C      113   1 H                                       1.0836959
    75   6 C      114   1 H                                       1.0827550
    79   8 O      115   1 H                                       0.9649696 (min)
    81   6 C      116   1 H                                       1.0827647
    82   6 C      117   1 H                                       1.0837825
    84   6 C      118   1 H                                       1.0778435
    85   6 C      119   1 H                                       1.0780411
    90   6 C      120   1 H                                       1.0779955
    91   6 C      121   1 H                                       1.0777868
    96   6 C      122   1 H                                       1.0837432
    97   6 C      123   1 H                                       1.0827736
   101   8 O      124   1 H                                       0.9650112
   103   6 C      125   1 H                                       1.0827418
   104   6 C      126   1 H                                       1.0837432
   106   6 C      127   1 H                                       1.0779495
   107   6 C      128   1 H                                       1.0782392
   129   6 C      130   6 C                                       1.2180192
   131   6 C      132   6 C                                       1.2192051
   133   6 C      134   6 C                                       1.2170934
   136   6 C      137   6 C                                       1.3992819
   137   6 C      138   6 C                                       1.4286140
   138   6 C      139   6 C                                       1.3563898
   139   6 C      140   6 C                                       1.4312882
   137   6 C      141   7 N                                       1.3667977
   140   6 C      141   7 N                                       1.3732501
   140   6 C      142   6 C                                       1.3903582
   143   6 C      144   6 C                                       1.3975096
   144   6 C      145   6 C                                       1.3849253
   145   6 C      146   6 C                                       1.3854377
   146   6 C      147  16 S                                       1.7538555
   147  16 S      148   8 O                                       1.4322977
   147  16 S      149   8 O                                       1.6232152
   147  16 S      150   8 O                                       1.4335900
   146   6 C      151   6 C                                       1.3853343
   143   6 C      152   6 C                                       1.3974591
   151   6 C      152   6 C                                       1.3850237
   142   6 C      153   6 C                                       1.3884896
   153   6 C      154   6 C                                       1.4316637
   154   6 C      155   6 C                                       1.3562586
   153   6 C      156   7 N                                       1.3758493
   155   6 C      157   6 C                                       1.4278868
   156   7 N      157   6 C                                       1.3648451
   157   6 C      158   6 C                                       1.4015190
   158   6 C      159   6 C                                       1.4003061
   159   6 C      160   6 C                                       1.4280906
   160   6 C      161   6 C                                       1.3562540
   161   6 C      162   6 C                                       1.4312548
   159   6 C      163   7 N                                       1.3664179
   162   6 C      163   7 N                                       1.3740663
   162   6 C      164   6 C                                       1.3895515
   165   6 C      166   6 C                                       1.3975340
   166   6 C      167   6 C                                       1.3849156
   167   6 C      168   6 C                                       1.3854962
   168   6 C      169  16 S                                       1.7537963
   169  16 S      170   8 O                                       1.4323094
   169  16 S      171   8 O                                       1.6235496
   169  16 S      172   8 O                                       1.4336152
   168   6 C      173   6 C                                       1.3853162
   165   6 C      174   6 C                                       1.3974281
   173   6 C      174   6 C                                       1.3850392
   164   6 C      175   6 C                                       1.3892600
   175   6 C      176   6 C                                       1.4316889
   176   6 C      177   6 C                                       1.3562124
   136   6 C      178   6 C                                       1.3995244
   177   6 C      178   6 C                                       1.4279812
   175   6 C      179   7 N                                       1.3748620
   178   6 C      179   7 N                                       1.3658382
   138   6 C      180   1 H                                       1.0779506
   139   6 C      181   1 H                                       1.0778273
   144   6 C      182   1 H                                       1.0837331
   145   6 C      183   1 H                                       1.0827775
   149   8 O      184   1 H                                       0.9650432
   151   6 C      185   1 H                                       1.0827448
   152   6 C      186   1 H                                       1.0837338
   154   6 C      187   1 H                                       1.0777847
   155   6 C      188   1 H                                       1.0774914
   160   6 C      189   1 H                                       1.0775076
   161   6 C      190   1 H                                       1.0778248
   166   6 C      191   1 H                                       1.0837407
   167   6 C      192   1 H                                       1.0827734
   171   8 O      193   1 H                                       0.9650425
   173   6 C      194   1 H                                       1.0827525
   174   6 C      195   1 H                                       1.0837283
   176   6 C      196   1 H                                       1.0777904
   177   6 C      197   1 H                                       1.0777926
   199   6 C      200   6 C                                       1.4013573
   200   6 C      201   6 C                                       1.4279906
   201   6 C      202   6 C                                       1.3560747
   202   6 C      203   6 C                                       1.4318052
   200   6 C      204   7 N                                       1.3649202
   203   6 C      204   7 N                                       1.3763113
   203   6 C      205   6 C                                       1.3880481
   206   6 C      207   6 C                                       1.3974751
   207   6 C      208   6 C                                       1.3849785
   208   6 C      209   6 C                                       1.3853307
   209   6 C      210  16 S                                       1.7538948 (max)
   210  16 S      211   8 O                                       1.4331090
   210  16 S      212   8 O                                       1.6227593
   210  16 S      213   8 O                                       1.4327021
   209   6 C      214   6 C                                       1.3853745
   206   6 C      215   6 C                                       1.3974568
   214   6 C      215   6 C                                       1.3850039
   205   6 C      216   6 C                                       1.3908190
   216   6 C      217   6 C                                       1.4312338
   217   6 C      218   6 C                                       1.3564404
   216   6 C      219   7 N                                       1.3726966
   218   6 C      220   6 C                                       1.4285554
   219   7 N      220   6 C                                       1.3674091
   220   6 C      221   6 C                                       1.3982071
   221   6 C      222   6 C                                       1.3986846
   222   6 C      223   6 C                                       1.4282589
   223   6 C      224   6 C                                       1.3561346
   224   6 C      225   6 C                                       1.4317483
   222   6 C      226   7 N                                       1.3665049
   225   6 C      226   7 N                                       1.3746586
   225   6 C      227   6 C                                       1.3894650
   228   6 C      229   6 C                                       1.3973802
   229   6 C      230   6 C                                       1.3850218
   230   6 C      231   6 C                                       1.3853591
   231   6 C      232  16 S                                       1.7536630
   232  16 S      233   8 O                                       1.4329290
   232  16 S      234   8 O                                       1.6230402
   232  16 S      235   8 O                                       1.4330171
   231   6 C      236   6 C                                       1.3853876
   228   6 C      237   6 C                                       1.3974872
   236   6 C      237   6 C                                       1.3849426
   227   6 C      238   6 C                                       1.3892635
   238   6 C      239   6 C                                       1.4312968
   239   6 C      240   6 C                                       1.3562228
   199   6 C      241   6 C                                       1.4003735
   240   6 C      241   6 C                                       1.4280592
   238   6 C      242   7 N                                       1.3740700
   241   6 C      242   7 N                                       1.3662057
   201   6 C      243   1 H                                       1.0774965
   202   6 C      244   1 H                                       1.0777704
   207   6 C      245   1 H                                       1.0837331
   208   6 C      246   1 H                                       1.0827472
   212   8 O      247   1 H                                       0.9651007
   214   6 C      248   1 H                                       1.0827741
   215   6 C      249   1 H                                       1.0837384
   217   6 C      250   1 H                                       1.0778144
   218   6 C      251   1 H                                       1.0780137
   223   6 C      252   1 H                                       1.0779529
   224   6 C      253   1 H                                       1.0777682
   229   6 C      254   1 H                                       1.0837219
   230   6 C      255   1 H                                       1.0827627
   234   8 O      256   1 H                                       0.9650628
   236   6 C      257   1 H                                       1.0827539
   237   6 C      258   1 H                                       1.0837417
   239   6 C      259   1 H                                       1.0778195
   240   6 C      260   1 H                                       1.0775161

 * 6 distinct bonds (by element types)

   Z      Z             #   av. dist./Å        max./Å        min./Å
   1 H    6 C          66     1.0806487     1.0837856     1.0774914
   6 C    6 C         131     1.3919905     1.4344341     1.2170934
   6 C    7 N          32     1.3705273     1.3774151     1.3632622
   1 H    8 O           8     0.9650309     0.9651007     0.9649696
   6 C   16 S           8     1.7536871     1.7538948     1.7534182
   8 O   16 S          24     1.4965475     1.6240839     1.4322889


optimized geometry written to: xtbopt.xyz


           -------------------------------------------------
          | TOTAL ENERGY             -529.788772042898 Eh   |
          | GRADIENT NORM               0.000779418114 Eh/α |
          | HOMO-LUMO GAP               0.002847065972 eV   |
           -------------------------------------------------

------------------------------------------------------------------------
 * finished run on 2022/07/30 at 06:40:12.685     
------------------------------------------------------------------------
 total:
 * wall-time:     0 d,  0 h, 49 min, 39.672 sec
 *  cpu-time:     0 d,  0 h, 48 min, 49.240 sec
 * ratio c/w:     0.983 speedup
 SCF:
 * wall-time:     0 d,  0 h,  0 min, 34.745 sec
 *  cpu-time:     0 d,  0 h,  0 min, 34.555 sec
 * ratio c/w:     0.995 speedup
 ANC optimizer:
 * wall-time:     0 d,  0 h, 49 min,  4.341 sec
 *  cpu-time:     0 d,  0 h, 48 min, 14.108 sec
 * ratio c/w:     0.983 speedup

