      -----------------------------------------------------------      
     |                   =====================                   |     
     |                           x T B                           |     
     |                   =====================                   |     
     |                         S. Grimme                         |     
     |          Mulliken Center for Theoretical Chemistry        |     
     |                    University of Bonn                     |     
      -----------------------------------------------------------      

   * xtb version 6.5.1 (b24c23e) compiled by 'conda@728c89f4b128' on 2022-07-12

   xtb is free software: you can redistribute it and/or modify it under
   the terms of the GNU Lesser General Public License as published by
   the Free Software Foundation, either version 3 of the License, or
   (at your option) any later version.
   
   xtb is distributed in the hope that it will be useful,
   but WITHOUT ANY WARRANTY; without even the implied warranty of
   MERCHANTABILITY or FITNESS FOR A PARTICULAR PURPOSE.  See the
   GNU Lesser General Public License for more details.
   
   Cite this work as:
   * C. Bannwarth, E. Caldeweyher, S. Ehlert, A. Hansen, P. Pracht,
     J. Seibert, S. Spicher, S. Grimme, WIREs Comput. Mol. Sci., 2020, 11,
     e01493. DOI: 10.1002/wcms.1493
   
   for GFN2-xTB:
   * C. Bannwarth, S. Ehlert and S. Grimme., J. Chem. Theory Comput., 2019,
     15, 1652-1671. DOI: 10.1021/acs.jctc.8b01176
   for GFN1-xTB:
   * S. Grimme, C. Bannwarth, P. Shushkov, J. Chem. Theory Comput., 2017,
     13, 1989-2009. DOI: 10.1021/acs.jctc.7b00118
   for GFN0-xTB:
   * P. Pracht, E. Caldeweyher, S. Ehlert, S. Grimme, ChemRxiv, 2019, preprint.
     DOI: 10.26434/chemrxiv.8326202.v1
   for GFN-FF:
   * S. Spicher and S. Grimme, Angew. Chem. Int. Ed., 2020, 59, 15665-15673.
     DOI: 10.1002/anie.202004239
   
   for ALPB and GBSA implicit solvation:
   * S. Ehlert, M. Stahn, S. Spicher, S. Grimme, J. Chem. Theory Comput.,
     2021, 17, 4250-4261. DOI: 10.1021/acs.jctc.1c00471
   
   for DFT-D4:
   * E. Caldeweyher, C. Bannwarth and S. Grimme, J. Chem. Phys., 2017,
     147, 034112. DOI: 10.1063/1.4993215
   * E. Caldeweyher, S. Ehlert, A. Hansen, H. Neugebauer, S. Spicher,
     C. Bannwarth and S. Grimme, J. Chem. Phys., 2019, 150, 154122.
     DOI: 10.1063/1.5090222
   * E. Caldeweyher, J.-M. Mewes, S. Ehlert and S. Grimme, Phys. Chem. Chem. Phys.
     2020, 22, 8499-8512. DOI: 10.1039/D0CP00502A
   
   for sTDA-xTB:
   * S. Grimme and C. Bannwarth, J. Chem. Phys., 2016, 145, 054103.
     DOI: 10.1063/1.4959605
   
   in the mass-spec context:
   * V. Asgeirsson, C. Bauer and S. Grimme, Chem. Sci., 2017, 8, 4879.
     DOI: 10.1039/c7sc00601b
   * J. Koopman and S. Grimme, ACS Omega 2019, 4, 12, 15120-15133.
     DOI: 10.1021/acsomega.9b02011
   
   for metadynamics refer to:
   * S. Grimme, J. Chem. Theory Comput., 2019, 155, 2847-2862
     DOI: 10.1021/acs.jctc.9b00143
   
   for SPH calculations refer to:
   * S. Spicher and S. Grimme, J. Chem. Theory Comput., 2021, 17, 1701-1714
     DOI: 10.1021/acs.jctc.0c01306
   
   with help from (in alphabetical order)
   P. Atkinson, C. Bannwarth, F. Bohle, G. Brandenburg, E. Caldeweyher
   M. Checinski, S. Dohm, S. Ehlert, S. Ehrlich, I. Gerasimov, C. Hölzer
   A. Katbashev, J. Koopman, C. Lavigne, S. Lehtola, F. März, M. Müller,
   F. Musil, H. Neugebauer, J. Pisarek, C. Plett, P. Pracht, F. Pultar,
   J. Seibert, P. Shushkov, S. Spicher, M. Stahn, M. Steiner, T. Strunk,
   J. Stückrath, T. Rose, and J. Unsleber
   
 * started run on 2022/07/29 at 02:09:43.060     

           -------------------------------------------------
          |                Calculation Setup                |
           -------------------------------------------------

          program call               : xtb xtbopt.xyz --gfn 1 --vipea
          hostname                   : cx3-5-14.cx3.hpc.ic.ac.uk
          coordinate file            : xtbopt.xyz
          omp threads                :                     1

   ID    Z sym.   atoms
    1    6 C      1-5, 7-11, 13-17, 19-24, 26-30, 32-37, 60-64, 66-70, 72-76,
                  78-83, 85-89, 91-96, 119-163, 165-169, 171-175, 177-182,
                  184-188, 190-195, 217-221, 223-227, 229-233, 235-240,
                  242-246, 248-253, 275-279, 281-285, 287-291, 293-298,
                  300-304, 306-311, 333-337, 339-343, 345-349, 351-356,
                  358-362, 364-369
    2    7 N      6, 18, 25, 38, 65, 77, 84, 97, 164, 176, 183, 196, 222,
                  234, 241, 254, 280, 292, 299, 312, 338, 350, 357, 370
    3    8 O      12, 31, 71, 90, 170, 189, 228, 247, 286, 305, 344, 363
    4    1 H      39-59, 98-118, 197-216, 255-274, 313-332, 371-390

           -------------------------------------------------
          |                 I P E A - x T B                 |
           -------------------------------------------------

        Reference                      10.1039/c7sc00601b
      * Hamiltonian:
        H0-scaling (s, p, d)           2.150000    2.300000    2.000000
        zeta-weighting                 0.000000
      * Dispersion:
        s8                             2.400000
        a1                             0.630000
        a2                             5.000000
        s9                             0.000000
      * Repulsion:
        kExp                           1.500000
        rExp                           1.000000
      * Coulomb:
        alpha                          1.000000
        third order                    atomic
        anisotropic                    false
      * Halogen bond correction:
        rad-scale                      1.300000
        damping                        0.440000


          ...................................................
          :                      SETUP                      :
          :.................................................:
          :  # basis functions                1584          :
          :  # atomic orbitals                1584          :
          :  # shells                         1048          :
          :  # electrons                      1242          :
          :  # halogen bonds                     0          :
          :  max. iterations                   250          :
          :  Hamiltonian                  GFN1-xTB          :
          :  restarted?                      false          :
          :  GBSA solvation                  false          :
          :  PC potential                    false          :
          :  electronic temp.          300.0000000     K    :
          :  accuracy                    1.0000000          :
          :  -> integral cutoff          0.2500000E+02      :
          :  -> integral neglect         0.1000000E-07      :
          :  -> SCF convergence          0.1000000E-05 Eh   :
          :  -> wf. convergence          0.2000000E-04 e    :
          :  Broyden damping             0.4000000          :
          ...................................................

 iter      E             dE          RMSdq      gap      omega  full diag
   1   -787.1187411 -0.787119E+03  0.103E+01    0.59       0.0  T
   2   -788.2316954 -0.111295E+01  0.637E+00    1.15       1.0  T
   3   -775.5155748  0.127161E+02  0.479E+00    0.25       1.0  T
   4   -790.1904310 -0.146749E+02  0.109E+00    1.12       1.0  T
   5   -791.2290186 -0.103859E+01  0.304E-01    0.96       1.0  T
   6   -791.3004789 -0.714603E-01  0.121E-01    0.96       1.0  T
   7   -791.3092940 -0.881508E-02  0.583E-02    0.96       1.0  T
   8   -791.3113704 -0.207635E-02  0.309E-02    0.96       1.0  T
   9   -791.3116242 -0.253851E-03  0.220E-02    0.96       1.0  T
  10   -791.3118652 -0.240966E-03  0.883E-03    0.96       1.0  T
  11   -791.3119059 -0.407461E-04  0.371E-03    0.96       1.4  T
  12   -791.3119151 -0.913641E-05  0.106E-03    0.96       4.8  T
  13   -791.3119158 -0.723655E-06  0.481E-04    0.96      10.5  T
  14   -791.3119160 -0.155484E-06  0.216E-04    0.96      23.4  T
  15   -791.3119160 -0.250108E-07  0.107E-04    0.96      47.2  T
  16   -791.3119160 -0.786417E-08  0.486E-05    0.96     104.1  T

   *** convergence criteria satisfied after 16 iterations ***

         #    Occupation            Energy/Eh            Energy/eV
      -------------------------------------------------------------
         1        2.0000           -1.0428111             -28.3763
       ...           ...                  ...                  ...
       615        2.0000           -0.3878074             -10.5528
       616        2.0000           -0.3756051             -10.2207
       617        2.0000           -0.3715319             -10.1099
       618        2.0000           -0.3686070             -10.0303
       619        2.0000           -0.3667782              -9.9805
       620        2.0000           -0.3633101              -9.8862
       621        2.0000           -0.3600290              -9.7969 (HOMO)
       622                         -0.3247515              -8.8369 (LUMO)
       623                         -0.3202298              -8.7139
       624                         -0.3148847              -8.5684
       625                         -0.3105887              -8.4515
       626                         -0.3086483              -8.3987
       ...                                ...                  ...
      1584                        515.8337298           14036.5502
      -------------------------------------------------------------
                  HL-Gap            0.0352775 Eh            0.9600 eV
             Fermi-level           -0.3423791 Eh           -9.3166 eV

 SCC (total)                   0 d,  0 h,  0 min, 29.249 sec
 SCC setup                      ...        0 min,  0.021 sec (  0.073%)
 Dispersion                     ...        0 min,  0.023 sec (  0.078%)
 classical contributions        ...        0 min,  0.006 sec (  0.019%)
 integral evaluation            ...        0 min,  1.479 sec (  5.057%)
 iterations                     ...        0 min, 24.822 sec ( 84.865%)
 molecular gradient             ...        0 min,  2.519 sec (  8.614%)
 printout                       ...        0 min,  0.378 sec (  1.294%)

         :::::::::::::::::::::::::::::::::::::::::::::::::::::
         ::                     SUMMARY                     ::
         :::::::::::::::::::::::::::::::::::::::::::::::::::::
         :: total energy            -775.007644628499 Eh    ::
         :: gradient norm              0.112344606536 Eh/a0 ::
         :: HOMO-LUMO gap              0.959950281852 eV    ::
         ::.................................................::
         :: SCC energy              -791.311915985763 Eh    ::
         :: -> electrostatic           0.539360905620 Eh    ::
         :: repulsion energy          16.632006638407 Eh    ::
         :: dispersion energy         -0.327735281143 Eh    ::
         :: halogen bond corr.         0.000000000000 Eh    ::
         :: add. restraining           0.000000000000 Eh    ::
         :: total charge               0.000000000413 e     ::
         :::::::::::::::::::::::::::::::::::::::::::::::::::::

           ------------------------------------------------- 
          |        vertical delta SCC IP calculation        |
           ------------------------------------------------- 
   1   -790.9307888 -0.790931E+03  0.544E-02    0.96       0.0  T
   2   -790.9155132  0.152756E-01  0.928E-02    0.85       1.0  T
   3   -790.9331651 -0.176519E-01  0.394E-02    0.94       1.0  T
   4   -790.9332587 -0.936685E-04  0.350E-02    0.95       1.0  T
   5   -790.9346965 -0.143773E-02  0.250E-02    0.94       1.0  T
   6   -790.9360304 -0.133397E-02  0.121E-02    0.95       1.0  T
   7   -790.9362282 -0.197754E-03  0.685E-03    0.95       1.0  T
   8   -790.9362666 -0.384020E-04  0.395E-03    0.95       1.3  T
   9   -790.9362821 -0.154825E-04  0.163E-03    0.95       3.1  T
  10   -790.9362841 -0.201911E-05  0.532E-04    0.95       9.5  T
  11   -790.9362843 -0.175439E-06  0.246E-04    0.95      20.6  T
  12   -790.9362843 -0.391029E-07  0.128E-04    0.95      39.5  T
  13   -790.9362843 -0.163972E-07  0.619E-05    0.95      81.7  T
     SCC iter.                  ...        0 min, 20.663 sec
     gradient                   ...        0 min,  2.576 sec
------------------------------------------------------------------------
empirical IP shift (eV):    4.8455
delta SCC IP (eV):    5.3760
------------------------------------------------------------------------
           ------------------------------------------------- 
          |        vertical delta SCC EA calculation        |
           ------------------------------------------------- 
   1   -791.6046548 -0.791605E+03  0.945E-02    0.14       0.0  T
   2   -791.6087118 -0.405698E-02  0.859E-02    0.03       1.0  T
   3   -791.6164282 -0.771635E-02  0.494E-02    0.09       1.0  T
   4   -791.6151844  0.124377E-02  0.453E-02    0.07       1.0  T
   5   -791.6142198  0.964550E-03  0.402E-02    0.09       1.0  T
   6   -791.6176075 -0.338762E-02  0.248E-02    0.08       1.0  T
   7   -791.6189983 -0.139083E-02  0.123E-02    0.06       1.0  T
   8   -791.6191485 -0.150181E-03  0.529E-03    0.07       1.0  T
   9   -791.6191803 -0.317906E-04  0.227E-03    0.07       2.2  T
  10   -791.6191842 -0.392510E-05  0.104E-03    0.06       4.9  T
  11   -791.6191850 -0.761304E-06  0.614E-04    0.07       8.2  T
  12   -791.6191852 -0.249863E-06  0.241E-04    0.07      21.0  T
  13   -791.6191852 -0.308485E-07  0.102E-04    0.07      49.5  T
  14   -791.6191852 -0.735110E-08  0.543E-05    0.07      93.3  T
     SCC iter.                  ...        0 min, 21.421 sec
     gradient                   ...        0 min,  2.525 sec
------------------------------------------------------------------------
empirical EA shift (eV):    4.8455
delta SCC EA (eV):    3.5157
------------------------------------------------------------------------
           -------------------------------------------------
          |                Property Printout                |
           -------------------------------------------------

    * Orbital Energies and Occupations

         #    Occupation            Energy/Eh            Energy/eV
      -------------------------------------------------------------
         1        2.0000           -1.0168523             -27.6700
       ...           ...                  ...                  ...
       610        2.0000           -0.3617865              -9.8447
       611        2.0000           -0.3611074              -9.8262
       612        2.0000           -0.3575862              -9.7304
       613        2.0000           -0.3570282              -9.7152
       614        2.0000           -0.3554557              -9.6724
       615        2.0000           -0.3553543              -9.6697
       616        2.0000           -0.3442915              -9.3686
       617        2.0000           -0.3438335              -9.3562
       618        2.0000           -0.3404727              -9.2647
       619        2.0000           -0.3361237              -9.1464
       620        2.0000           -0.3307739              -9.0008
       621        2.0000           -0.3257962              -8.8654
       622        0.7705           -0.2904800              -7.9044 (HOMO)
       623        0.2129           -0.2880873              -7.8393 (LUMO)
       624        0.0154           -0.2853783              -7.7655
       625        0.0012           -0.2829688              -7.7000
       626        0.0000           -0.2790368              -7.5930
       627        0.0000           -0.2784639              -7.5774
       628        0.0000           -0.2774094              -7.5487
       629                         -0.2735890              -7.4447
       630                         -0.2714354              -7.3861
       631                         -0.2708718              -7.3708
       632                         -0.2693521              -7.3294
       633                         -0.2690730              -7.3218
       ...                                ...                  ...
      1584                        515.8592400           14037.2444
      -------------------------------------------------------------
                  HL-Gap            0.0023926 Eh            0.0651 eV
             Fermi-level           -0.2987521 Eh           -8.1295 eV

  Mulliken/CM5 charges         n(s)   n(p)   n(d)
     1C    -0.02259 -0.06342   1.088  2.935  0.000
     2C     0.06176  0.12215   1.105  2.834  0.000
     3C    -0.03543 -0.08074   1.081  2.954  0.000
     4C    -0.03291 -0.07790   1.076  2.956  0.000
     5C     0.06241  0.12633   1.102  2.836  0.000
     6N    -0.15936 -0.51228   1.312  3.847  0.000
     7C     0.00903  0.01476   1.093  2.898  0.000
     8C    -0.00331 -0.01192   1.072  2.931  0.000
     9C    -0.02299 -0.07619   1.078  2.945  0.000
    10C    -0.04129 -0.09331   1.067  2.974  0.000
    11C     0.08753  0.09955   1.124  2.788  0.000
    12O    -0.29669 -0.49627   1.631  4.666  0.000
    13C    -0.03511 -0.08580   1.081  2.954  0.000
    14C    -0.02351 -0.07662   1.077  2.947  0.000
    15C     0.05862  0.12661   1.118  2.823  0.000
    16C    -0.03801 -0.08402   1.085  2.953  0.000
    17C    -0.03867 -0.08411   1.090  2.948  0.000
    18N    -0.28559 -0.47222   1.293  3.992  0.000
    19C     0.06428  0.13513   1.129  2.806  0.000
    20C     0.01664  0.02383   1.084  2.900  0.000
    21C     0.06655  0.13149   1.109  2.824  0.000
    22C    -0.03361 -0.07804   1.080  2.954  0.000
    23C    -0.03262 -0.07760   1.075  2.957  0.000
    24C     0.06155  0.12482   1.100  2.839  0.000
    25N    -0.15716 -0.50932   1.314  3.843  0.000
    26C     0.00852  0.01430   1.093  2.899  0.000
    27C    -0.00333 -0.01192   1.072  2.931  0.000
    28C    -0.02301 -0.07611   1.077  2.946  0.000
    29C    -0.03472 -0.08540   1.081  2.954  0.000
    30C     0.08748  0.09951   1.124  2.788  0.000
    31O    -0.29659 -0.49618   1.631  4.666  0.000
    32C    -0.04177 -0.09379   1.067  2.975  0.000
    33C    -0.02358 -0.07679   1.078  2.945  0.000
    34C     0.05998  0.12936   1.121  2.819  0.000
    35C    -0.03835 -0.08434   1.087  2.951  0.000
    36C    -0.04050 -0.08688   1.092  2.949  0.000
    37C     0.05857  0.12424   1.125  2.817  0.000
    38N    -0.28798 -0.47497   1.293  3.995  0.000
    39H     0.02810  0.08712   0.972  0.000  0.000
    40H     0.03855  0.09522   0.961  0.000  0.000
    41H     0.03008  0.08882   0.970  0.000  0.000
    42H     0.16362  0.37194   0.836  0.000  0.000
    43H     0.02659  0.08455   0.973  0.000  0.000
    44H     0.03828  0.09653   0.962  0.000  0.000
    45H     0.22804  0.40032   0.772  0.000  0.000
    46H     0.03865  0.09768   0.961  0.000  0.000
    47H     0.02657  0.08453   0.973  0.000  0.000
    48H     0.02079  0.07955   0.979  0.000  0.000
    49H     0.02441  0.08249   0.976  0.000  0.000
    50H     0.03451  0.09260   0.965  0.000  0.000
    51H     0.03070  0.08948   0.969  0.000  0.000
    52H     0.16239  0.37068   0.838  0.000  0.000
    53H     0.02741  0.08537   0.973  0.000  0.000
    54H     0.03937  0.09841   0.961  0.000  0.000
    55H     0.22769  0.39997   0.772  0.000  0.000
    56H     0.03742  0.09567   0.963  0.000  0.000
    57H     0.02571  0.08366   0.974  0.000  0.000
    58H     0.02010  0.07877   0.980  0.000  0.000
    59H     0.02837  0.08480   0.972  0.000  0.000
    60C    -0.02220 -0.06303   1.088  2.934  0.000
    61C     0.06187  0.12226   1.105  2.833  0.000
    62C    -0.03520 -0.08051   1.081  2.954  0.000
    63C    -0.03275 -0.07773   1.076  2.956  0.000
    64C     0.06264  0.12656   1.102  2.835  0.000
    65N    -0.15917 -0.51209   1.312  3.847  0.000
    66C     0.00914  0.01487   1.093  2.898  0.000
    67C    -0.00337 -0.01198   1.072  2.931  0.000
    68C    -0.02302 -0.07623   1.078  2.945  0.000
    69C    -0.04127 -0.09328   1.067  2.974  0.000
    70C     0.08759  0.09962   1.124  2.788  0.000
    71O    -0.29660 -0.49618   1.631  4.666  0.000
    72C    -0.03505 -0.08574   1.081  2.954  0.000
    73C    -0.02352 -0.07662   1.077  2.947  0.000
    74C     0.05889  0.12689   1.118  2.823  0.000
    75C    -0.03781 -0.08382   1.086  2.952  0.000
    76C    -0.03843 -0.08387   1.091  2.948  0.000
    77N    -0.28552 -0.47211   1.293  3.992  0.000
    78C     0.06439  0.13522   1.129  2.806  0.000
    79C     0.01685  0.02404   1.084  2.900  0.000
    80C     0.06671  0.13164   1.109  2.824  0.000
    81C    -0.03333 -0.07776   1.080  2.954  0.000
    82C    -0.03240 -0.07739   1.075  2.957  0.000
    83C     0.06181  0.12507   1.100  2.839  0.000
    84N    -0.15710 -0.50924   1.314  3.843  0.000
    85C     0.00869  0.01447   1.093  2.899  0.000
    86C    -0.00336 -0.01196   1.072  2.931  0.000
    87C    -0.02303 -0.07613   1.077  2.946  0.000
    88C    -0.03467 -0.08536   1.081  2.953  0.000
    89C     0.08757  0.09960   1.124  2.788  0.000
    90O    -0.29646 -0.49605   1.631  4.665  0.000
    91C    -0.04170 -0.09372   1.067  2.974  0.000
    92C    -0.02355 -0.07677   1.078  2.945  0.000
    93C     0.06019  0.12957   1.121  2.819  0.000
    94C    -0.03821 -0.08421   1.087  2.951  0.000
    95C    -0.04033 -0.08670   1.092  2.949  0.000
    96C     0.05869  0.12436   1.125  2.816  0.000
    97N    -0.28772 -0.47472   1.293  3.995  0.000
    98H     0.02846  0.08748   0.972  0.000  0.000
    99H     0.03885  0.09553   0.961  0.000  0.000
   100H     0.03034  0.08909   0.970  0.000  0.000
   101H     0.16375  0.37205   0.836  0.000  0.000
   102H     0.02669  0.08464   0.973  0.000  0.000
   103H     0.03840  0.09665   0.962  0.000  0.000
   104H     0.22814  0.40042   0.772  0.000  0.000
   105H     0.03880  0.09784   0.961  0.000  0.000
   106H     0.02666  0.08462   0.973  0.000  0.000
   107H     0.02107  0.07982   0.979  0.000  0.000
   108H     0.02465  0.08272   0.975  0.000  0.000
   109H     0.03482  0.09293   0.965  0.000  0.000
   110H     0.03100  0.08979   0.969  0.000  0.000
   111H     0.16251  0.37078   0.837  0.000  0.000
   112H     0.02748  0.08543   0.973  0.000  0.000
   113H     0.03952  0.09855   0.960  0.000  0.000
   114H     0.22782  0.40011   0.772  0.000  0.000
   115H     0.03758  0.09584   0.962  0.000  0.000
   116H     0.02583  0.08379   0.974  0.000  0.000
   117H     0.02035  0.07902   0.980  0.000  0.000
   118H     0.02867  0.08509   0.971  0.000  0.000
   119C    -0.01715 -0.01878   1.092  2.925  0.000
   120C    -0.01969 -0.02046   1.061  2.959  0.000
   121C    -0.01612 -0.01622   1.075  2.941  0.000
   122C    -0.01516 -0.01516   1.077  2.938  0.000
   123C    -0.01777 -0.01777   1.075  2.943  0.000
   124C    -0.01329 -0.01338   1.078  2.935  0.000
   125C    -0.02204 -0.02278   1.059  2.963  0.000
   126C    -0.01432 -0.01592   1.095  2.919  0.000
   127C    -0.01658 -0.01817   1.093  2.924  0.000
   128C    -0.02100 -0.02174   1.060  2.961  0.000
   129C    -0.01566 -0.01575   1.076  2.939  0.000
   130C    -0.01678 -0.01679   1.076  2.941  0.000
   131C    -0.01732 -0.01733   1.076  2.942  0.000
   132C    -0.01500 -0.01510   1.077  2.938  0.000
   133C    -0.02145 -0.02219   1.060  2.962  0.000
   134C    -0.01584 -0.01743   1.094  2.922  0.000
   135C    -0.01607 -0.01766   1.093  2.923  0.000
   136C    -0.02120 -0.02194   1.060  2.961  0.000
   137C    -0.01521 -0.01530   1.077  2.939  0.000
   138C    -0.01698 -0.01699   1.076  2.941  0.000
   139C    -0.01698 -0.01699   1.076  2.941  0.000
   140C    -0.01523 -0.01532   1.077  2.939  0.000
   141C    -0.02119 -0.02193   1.060  2.961  0.000
   142C    -0.01610 -0.01769   1.093  2.923  0.000
   143C    -0.01574 -0.01733   1.094  2.922  0.000
   144C    -0.02152 -0.02227   1.060  2.962  0.000
   145C    -0.01487 -0.01496   1.077  2.938  0.000
   146C    -0.01740 -0.01741   1.076  2.942  0.000
   147C    -0.01663 -0.01664   1.076  2.940  0.000
   148C    -0.01575 -0.01584   1.076  2.940  0.000
   149C    -0.02083 -0.02158   1.060  2.961  0.000
   150C    -0.01667 -0.01827   1.093  2.924  0.000
   151C    -0.01396 -0.01557   1.096  2.918  0.000
   152C    -0.02194 -0.02269   1.059  2.963  0.000
   153C    -0.01285 -0.01295   1.078  2.935  0.000
   154C    -0.01756 -0.01757   1.075  2.943  0.000
   155C    -0.01473 -0.01474   1.077  2.938  0.000
   156C    -0.01588 -0.01597   1.075  2.941  0.000
   157C    -0.01936 -0.02013   1.061  2.959  0.000
   158C    -0.01695 -0.01858   1.092  2.925  0.000
   159C     0.01362  0.02084   1.081  2.905  0.000
   160C     0.06585  0.13076   1.109  2.825  0.000
   161C    -0.03601 -0.08045   1.078  2.958  0.000
   162C    -0.03357 -0.07853   1.075  2.958  0.000
   163C     0.05993  0.12328   1.097  2.843  0.000
   164N    -0.15672 -0.50904   1.314  3.843  0.000
   165C     0.01138  0.01700   1.094  2.894  0.000
   166C    -0.00264 -0.01133   1.073  2.930  0.000
   167C    -0.02278 -0.07603   1.078  2.945  0.000
   168C    -0.04145 -0.09348   1.067  2.974  0.000
   169C     0.08739  0.09943   1.124  2.788  0.000
   170O    -0.29702 -0.49661   1.631  4.666  0.000
   171C    -0.03495 -0.08564   1.081  2.954  0.000
   172C    -0.02287 -0.07601   1.077  2.946  0.000
   173C     0.05731  0.12523   1.116  2.826  0.000
   174C    -0.03858 -0.08460   1.086  2.953  0.000
   175C    -0.03991 -0.08536   1.090  2.950  0.000
   176N    -0.28539 -0.47147   1.293  3.992  0.000
   177C     0.06386  0.13474   1.129  2.807  0.000
   178C     0.01521  0.02242   1.082  2.902  0.000
   179C     0.06597  0.13090   1.109  2.825  0.000
   180C    -0.03532 -0.07976   1.078  2.957  0.000
   181C    -0.03347 -0.07844   1.075  2.958  0.000
   182C     0.06013  0.12342   1.097  2.843  0.000
   183N    -0.15638 -0.50868   1.314  3.843  0.000
   184C     0.01110  0.01673   1.094  2.895  0.000
   185C    -0.00269 -0.01137   1.073  2.930  0.000
   186C    -0.02278 -0.07592   1.077  2.946  0.000
   187C    -0.03485 -0.08554   1.081  2.954  0.000
   188C     0.08743  0.09947   1.124  2.788  0.000
   189O    -0.29692 -0.49651   1.631  4.666  0.000
   190C    -0.04153 -0.09355   1.067  2.974  0.000
   191C    -0.02286 -0.07612   1.078  2.945  0.000
   192C     0.05745  0.12547   1.116  2.826  0.000
   193C    -0.03854 -0.08457   1.086  2.953  0.000
   194C    -0.04031 -0.08577   1.090  2.951  0.000
   195C     0.06365  0.13443   1.129  2.807  0.000
   196N    -0.28595 -0.47206   1.292  3.994  0.000
   197H     0.03208  0.09017   0.968  0.000  0.000
   198H     0.02893  0.08783   0.971  0.000  0.000
   199H     0.16240  0.37030   0.838  0.000  0.000
   200H     0.02645  0.08438   0.974  0.000  0.000
   201H     0.03754  0.09580   0.962  0.000  0.000
   202H     0.22740  0.39968   0.773  0.000  0.000
   203H     0.03838  0.09742   0.962  0.000  0.000
   204H     0.02673  0.08467   0.973  0.000  0.000
   205H     0.01946  0.07828   0.981  0.000  0.000
   206H     0.02289  0.08093   0.977  0.000  0.000
   207H     0.03306  0.09114   0.967  0.000  0.000
   208H     0.02929  0.08817   0.971  0.000  0.000
   209H     0.16231  0.37020   0.838  0.000  0.000
   210H     0.02696  0.08491   0.973  0.000  0.000
   211H     0.03864  0.09768   0.961  0.000  0.000
   212H     0.22734  0.39961   0.773  0.000  0.000
   213H     0.03734  0.09560   0.963  0.000  0.000
   214H     0.02616  0.08412   0.974  0.000  0.000
   215H     0.01924  0.07808   0.981  0.000  0.000
   216H     0.02219  0.08022   0.978  0.000  0.000
   217C     0.01468  0.02190   1.082  2.903  0.000
   218C     0.06593  0.13086   1.109  2.825  0.000
   219C    -0.03558 -0.08002   1.078  2.957  0.000
   220C    -0.03348 -0.07845   1.075  2.958  0.000
   221C     0.06003  0.12335   1.097  2.843  0.000
   222N    -0.15644 -0.50874   1.314  3.843  0.000
   223C     0.01139  0.01701   1.094  2.894  0.000
   224C    -0.00263 -0.01132   1.073  2.930  0.000
   225C    -0.02278 -0.07604   1.078  2.945  0.000
   226C    -0.04147 -0.09350   1.067  2.974  0.000
   227C     0.08742  0.09946   1.124  2.788  0.000
   228O    -0.29697 -0.49657   1.631  4.666  0.000
   229C    -0.03488 -0.08557   1.081  2.954  0.000
   230C    -0.02278 -0.07592   1.077  2.946  0.000
   231C     0.05736  0.12529   1.116  2.826  0.000
   232C    -0.03854 -0.08457   1.086  2.953  0.000
   233C    -0.04000 -0.08545   1.090  2.950  0.000
   234N    -0.28549 -0.47155   1.293  3.993  0.000
   235C     0.06379  0.13465   1.129  2.807  0.000
   236C     0.01490  0.02211   1.082  2.903  0.000
   237C     0.06597  0.13090   1.109  2.825  0.000
   238C    -0.03543 -0.07987   1.078  2.957  0.000
   239C    -0.03341 -0.07838   1.075  2.958  0.000
   240C     0.06007  0.12338   1.097  2.843  0.000
   241N    -0.15642 -0.50872   1.314  3.843  0.000
   242C     0.01138  0.01700   1.094  2.894  0.000
   243C    -0.00264 -0.01133   1.073  2.930  0.000
   244C    -0.02276 -0.07590   1.077  2.946  0.000
   245C    -0.03485 -0.08554   1.081  2.954  0.000
   246C     0.08744  0.09948   1.124  2.788  0.000
   247O    -0.29694 -0.49654   1.631  4.666  0.000
   248C    -0.04149 -0.09352   1.067  2.974  0.000
   249C    -0.02279 -0.07605   1.078  2.945  0.000
   250C     0.05734  0.12528   1.116  2.826  0.000
   251C    -0.03857 -0.08460   1.086  2.953  0.000
   252C    -0.04012 -0.08557   1.090  2.950  0.000
   253C     0.06374  0.13459   1.129  2.807  0.000
   254N    -0.28553 -0.47159   1.293  3.993  0.000
   255H     0.03266  0.09075   0.967  0.000  0.000
   256H     0.02911  0.08801   0.971  0.000  0.000
   257H     0.16237  0.37024   0.838  0.000  0.000
   258H     0.02633  0.08428   0.974  0.000  0.000
   259H     0.03742  0.09568   0.963  0.000  0.000
   260H     0.22733  0.39960   0.773  0.000  0.000
   261H     0.03849  0.09753   0.962  0.000  0.000
   262H     0.02687  0.08482   0.973  0.000  0.000
   263H     0.01936  0.07820   0.981  0.000  0.000
   264H     0.02265  0.08068   0.977  0.000  0.000
   265H     0.03286  0.09094   0.967  0.000  0.000
   266H     0.02920  0.08809   0.971  0.000  0.000
   267H     0.16235  0.37022   0.838  0.000  0.000
   268H     0.02692  0.08488   0.973  0.000  0.000
   269H     0.03856  0.09760   0.961  0.000  0.000
   270H     0.22733  0.39959   0.773  0.000  0.000
   271H     0.03738  0.09564   0.963  0.000  0.000
   272H     0.02627  0.08422   0.974  0.000  0.000
   273H     0.01929  0.07814   0.981  0.000  0.000
   274H     0.02247  0.08050   0.978  0.000  0.000
   275C     0.01489  0.02211   1.082  2.903  0.000
   276C     0.06596  0.13089   1.109  2.825  0.000
   277C    -0.03544 -0.07988   1.078  2.957  0.000
   278C    -0.03344 -0.07840   1.075  2.958  0.000
   279C     0.06006  0.12337   1.097  2.843  0.000
   280N    -0.15643 -0.50873   1.314  3.843  0.000
   281C     0.01137  0.01699   1.094  2.894  0.000
   282C    -0.00262 -0.01132   1.073  2.930  0.000
   283C    -0.02282 -0.07608   1.078  2.945  0.000
   284C    -0.04151 -0.09353   1.067  2.974  0.000
   285C     0.08740  0.09944   1.124  2.788  0.000
   286O    -0.29698 -0.49658   1.631  4.666  0.000
   287C    -0.03485 -0.08554   1.081  2.954  0.000
   288C    -0.02277 -0.07590   1.077  2.946  0.000
   289C     0.05732  0.12527   1.116  2.826  0.000
   290C    -0.03860 -0.08463   1.086  2.953  0.000
   291C    -0.04016 -0.08561   1.090  2.950  0.000
   292N    -0.28557 -0.47162   1.293  3.993  0.000
   293C     0.06374  0.13459   1.129  2.807  0.000
   294C     0.01458  0.02179   1.082  2.904  0.000
   295C     0.06592  0.13085   1.109  2.825  0.000
   296C    -0.03563 -0.08007   1.078  2.957  0.000
   297C    -0.03349 -0.07846   1.075  2.958  0.000
   298C     0.06001  0.12333   1.097  2.843  0.000
   299N    -0.15645 -0.50876   1.314  3.843  0.000
   300C     0.01141  0.01703   1.094  2.894  0.000
   301C    -0.00263 -0.01132   1.073  2.930  0.000
   302C    -0.02279 -0.07593   1.077  2.946  0.000
   303C    -0.03488 -0.08557   1.081  2.954  0.000
   304C     0.08742  0.09946   1.124  2.788  0.000
   305O    -0.29697 -0.49657   1.631  4.666  0.000
   306C    -0.04147 -0.09350   1.067  2.974  0.000
   307C    -0.02278 -0.07603   1.078  2.945  0.000
   308C     0.05735  0.12528   1.116  2.826  0.000
   309C    -0.03854 -0.08457   1.086  2.953  0.000
   310C    -0.04000 -0.08545   1.090  2.950  0.000
   311C     0.06380  0.13465   1.129  2.807  0.000
   312N    -0.28549 -0.47156   1.293  3.993  0.000
   313H     0.03285  0.09093   0.967  0.000  0.000
   314H     0.02919  0.08808   0.971  0.000  0.000
   315H     0.16235  0.37022   0.838  0.000  0.000
   316H     0.02626  0.08421   0.974  0.000  0.000
   317H     0.03734  0.09559   0.963  0.000  0.000
   318H     0.22729  0.39956   0.773  0.000  0.000
   319H     0.03855  0.09758   0.961  0.000  0.000
   320H     0.02693  0.08487   0.973  0.000  0.000
   321H     0.01926  0.07810   0.981  0.000  0.000
   322H     0.02242  0.08044   0.978  0.000  0.000
   323H     0.03262  0.09071   0.967  0.000  0.000
   324H     0.02909  0.08799   0.971  0.000  0.000
   325H     0.16236  0.37023   0.838  0.000  0.000
   326H     0.02686  0.08481   0.973  0.000  0.000
   327H     0.03848  0.09752   0.962  0.000  0.000
   328H     0.22734  0.39961   0.773  0.000  0.000
   329H     0.03743  0.09569   0.963  0.000  0.000
   330H     0.02635  0.08429   0.974  0.000  0.000
   331H     0.01937  0.07820   0.981  0.000  0.000
   332H     0.02266  0.08069   0.977  0.000  0.000
   333C     0.01545  0.02266   1.083  2.902  0.000
   334C     0.06600  0.13094   1.109  2.825  0.000
   335C    -0.03521 -0.07965   1.078  2.957  0.000
   336C    -0.03345 -0.07842   1.075  2.958  0.000
   337C     0.06023  0.12353   1.097  2.842  0.000
   338N    -0.15632 -0.50862   1.314  3.842  0.000
   339C     0.01103  0.01666   1.094  2.895  0.000
   340C    -0.00269 -0.01138   1.073  2.930  0.000
   341C    -0.02291 -0.07618   1.078  2.945  0.000
   342C    -0.04156 -0.09359   1.067  2.974  0.000
   343C     0.08739  0.09943   1.124  2.788  0.000
   344O    -0.29694 -0.49654   1.631  4.666  0.000
   345C    -0.03484 -0.08553   1.081  2.954  0.000
   346C    -0.02279 -0.07592   1.077  2.946  0.000
   347C     0.05757  0.12560   1.117  2.826  0.000
   348C    -0.03851 -0.08453   1.086  2.953  0.000
   349C    -0.04028 -0.08574   1.090  2.951  0.000
   350N    -0.28600 -0.47211   1.292  3.994  0.000
   351C     0.06368  0.13444   1.129  2.807  0.000
   352C     0.01354  0.02076   1.081  2.906  0.000
   353C     0.06593  0.13083   1.109  2.825  0.000
   354C    -0.03589 -0.08033   1.078  2.958  0.000
   355C    -0.03340 -0.07837   1.075  2.958  0.000
   356C     0.06005  0.12339   1.097  2.843  0.000
   357N    -0.15677 -0.50907   1.314  3.843  0.000
   358C     0.01144  0.01707   1.094  2.894  0.000
   359C    -0.00267 -0.01136   1.073  2.930  0.000
   360C    -0.02288 -0.07602   1.077  2.946  0.000
   361C    -0.03492 -0.08561   1.081  2.954  0.000
   362C     0.08746  0.09951   1.124  2.788  0.000
   363O    -0.29691 -0.49650   1.631  4.666  0.000
   364C    -0.04140 -0.09343   1.067  2.974  0.000
   365C    -0.02278 -0.07602   1.078  2.945  0.000
   366C     0.05741  0.12535   1.116  2.826  0.000
   367C    -0.03853 -0.08454   1.086  2.953  0.000
   368C    -0.03984 -0.08529   1.090  2.950  0.000
   369C     0.06387  0.13473   1.129  2.807  0.000
   370N    -0.28527 -0.47137   1.293  3.992  0.000
   371H     0.03320  0.09129   0.967  0.000  0.000
   372H     0.02938  0.08824   0.971  0.000  0.000
   373H     0.16236  0.37026   0.838  0.000  0.000
   374H     0.02614  0.08409   0.974  0.000  0.000
   375H     0.03730  0.09555   0.963  0.000  0.000
   376H     0.22731  0.39958   0.773  0.000  0.000
   377H     0.03869  0.09773   0.961  0.000  0.000
   378H     0.02703  0.08497   0.973  0.000  0.000
   379H     0.01926  0.07811   0.981  0.000  0.000
   380H     0.02216  0.08020   0.978  0.000  0.000
   381H     0.03224  0.09033   0.968  0.000  0.000
   382H     0.02913  0.08803   0.971  0.000  0.000
   383H     0.16245  0.37034   0.838  0.000  0.000
   384H     0.02674  0.08469   0.973  0.000  0.000
   385H     0.03847  0.09750   0.962  0.000  0.000
   386H     0.22751  0.39978   0.772  0.000  0.000
   387H     0.03765  0.09590   0.962  0.000  0.000
   388H     0.02650  0.08444   0.973  0.000  0.000
   389H     0.01958  0.07840   0.980  0.000  0.000
   390H     0.02301  0.08104   0.977  0.000  0.000

Wiberg/Mayer (AO) data.
largest (>0.10) Wiberg bond orders for each atom

 ---------------------------------------------------------------------------
     #   Z sym  total        # sym  WBO       # sym  WBO       # sym  WBO
 ---------------------------------------------------------------------------
     1   6 C    3.812 --    37 C    1.384     2 C    1.372    39 H    0.996
     2   6 C    3.925 --     1 C    1.372     3 C    1.241     6 N    1.230
     3   6 C    3.839 --     4 C    1.598     2 C    1.241    40 H    0.993
     4   6 C    3.826 --     3 C    1.598     5 C    1.252    41 H    0.999
     5   6 C    3.899 --     7 C    1.341     4 C    1.252     6 N    1.229
     6   7 N    3.247 --     2 C    1.230     5 C    1.229    42 H    0.961
     7   6 C    3.845 --    15 C    1.368     5 C    1.341     8 C    1.052
     8   6 C    3.876 --     9 C    1.417    14 C    1.410     7 C    1.052
     9   6 C    3.869 --    10 C    1.448     8 C    1.417    43 H    0.989
    10   6 C    3.873 --     9 C    1.448    11 C    1.394    44 H    0.981
    11   6 C    3.970 --    10 C    1.394    13 C    1.385    12 O    1.126
    12   8 O    2.171 --    11 C    1.126    45 H    0.964
    13   6 C    3.905 --    14 C    1.457    11 C    1.385    46 H    0.983
    14   6 C    3.865 --    13 C    1.457     8 C    1.410    47 H    0.990
    15   6 C    3.925 --     7 C    1.368    18 N    1.354    16 C    1.162
    16   6 C    3.840 --    17 C    1.692    15 C    1.162    48 H    0.999
    17   6 C    3.852 --    16 C    1.692    19 C    1.166    49 H    0.999
    18   7 N    2.566 --    19 C    1.413    15 C    1.354
    19   6 C    3.943 --    18 N    1.413    20 C    1.286    17 C    1.166
    20   6 C    3.847 --    21 C    1.287    19 C    1.286   119 C    1.220
    21   6 C    3.903 --    20 C    1.287    22 C    1.266    25 N    1.250
    22   6 C    3.834 --    23 C    1.584    21 C    1.266    50 H    0.998
    23   6 C    3.819 --    22 C    1.584    24 C    1.258    51 H    0.999
    24   6 C    3.895 --    26 C    1.346    23 C    1.258    25 N    1.220
    25   7 N    3.258 --    21 C    1.250    24 C    1.220    52 H    0.960
    26   6 C    3.832 --    34 C    1.356    24 C    1.346    27 C    1.052
    27   6 C    3.877 --    33 C    1.417    28 C    1.409    26 C    1.052
    28   6 C    3.865 --    29 C    1.457    27 C    1.409    53 H    0.990
    29   6 C    3.905 --    28 C    1.457    30 C    1.385    54 H    0.982
    30   6 C    3.970 --    32 C    1.394    29 C    1.385    31 O    1.126
    31   8 O    2.171 --    30 C    1.126    55 H    0.964
    32   6 C    3.873 --    33 C    1.448    30 C    1.394    56 H    0.982
    33   6 C    3.868 --    32 C    1.448    27 C    1.417    57 H    0.989
    34   6 C    3.945 --    38 N    1.381    26 C    1.356    35 C    1.155
    35   6 C    3.844 --    36 C    1.706    34 C    1.155    58 H    1.000
    36   6 C    3.863 --    35 C    1.706    37 C    1.148    59 H    0.993
    37   6 C    3.968 --     1 C    1.384    38 N    1.374    36 C    1.148
    38   7 N    2.553 --    34 C    1.381    37 C    1.374
    39   1 H    1.033 --     1 C    0.996
    40   1 H    1.016 --     3 C    0.993
    41   1 H    1.032 --     4 C    0.999
    42   1 H    1.083 --     6 N    0.961
    43   1 H    1.049 --     9 C    0.989
    44   1 H    1.013 --    10 C    0.981
    45   1 H    1.005 --    12 O    0.964
    46   1 H    1.023 --    13 C    0.983
    47   1 H    1.046 --    14 C    0.990
    48   1 H    1.034 --    16 C    0.999
    49   1 H    1.033 --    17 C    0.999
    50   1 H    1.029 --    22 C    0.998
    51   1 H    1.032 --    23 C    0.999
    52   1 H    1.086 --    25 N    0.960
    53   1 H    1.046 --    28 C    0.990
    54   1 H    1.023 --    29 C    0.982
    55   1 H    1.005 --    31 O    0.964
    56   1 H    1.013 --    32 C    0.982
    57   1 H    1.049 --    33 C    0.989
    58   1 H    1.034 --    35 C    1.000
    59   1 H    1.019 --    36 C    0.993
    60   6 C    3.813 --    96 C    1.385    61 C    1.372    98 H    0.996
    61   6 C    3.925 --    60 C    1.372    62 C    1.240    65 N    1.229
    62   6 C    3.839 --    63 C    1.598    61 C    1.240    99 H    0.993
    63   6 C    3.826 --    62 C    1.598    64 C    1.252   100 H    0.999
    64   6 C    3.899 --    66 C    1.341    63 C    1.252    65 N    1.230
    65   7 N    3.248 --    64 C    1.230    61 C    1.229   101 H    0.961
    66   6 C    3.845 --    74 C    1.369    64 C    1.341    67 C    1.051
    67   6 C    3.876 --    68 C    1.417    73 C    1.410    66 C    1.051
    68   6 C    3.869 --    69 C    1.448    67 C    1.417   102 H    0.989
    69   6 C    3.873 --    68 C    1.448    70 C    1.394   103 H    0.981
    70   6 C    3.970 --    69 C    1.394    72 C    1.385    71 O    1.126
    71   8 O    2.172 --    70 C    1.126   104 H    0.964
    72   6 C    3.905 --    73 C    1.457    70 C    1.385   105 H    0.983
    73   6 C    3.866 --    72 C    1.457    67 C    1.410   106 H    0.990
    74   6 C    3.926 --    66 C    1.369    77 N    1.354    75 C    1.162
    75   6 C    3.841 --    76 C    1.693    74 C    1.162   107 H    0.999
    76   6 C    3.852 --    75 C    1.693    78 C    1.165   108 H    0.999
    77   7 N    2.566 --    78 C    1.413    74 C    1.354
    78   6 C    3.943 --    77 N    1.413    79 C    1.288    76 C    1.165
    79   6 C    3.849 --    80 C    1.288    78 C    1.288   158 C    1.217
    80   6 C    3.904 --    79 C    1.288    81 C    1.265    84 N    1.250
    81   6 C    3.835 --    82 C    1.585    80 C    1.265   109 H    0.998
    82   6 C    3.820 --    81 C    1.585    83 C    1.258   110 H    0.999
    83   6 C    3.895 --    85 C    1.347    82 C    1.258    84 N    1.221
    84   7 N    3.258 --    80 C    1.250    83 C    1.221   111 H    0.960
    85   6 C    3.833 --    93 C    1.355    83 C    1.347    86 C    1.053
    86   6 C    3.876 --    92 C    1.417    87 C    1.409    85 C    1.053
    87   6 C    3.865 --    88 C    1.457    86 C    1.409   112 H    0.990
    88   6 C    3.905 --    87 C    1.457    89 C    1.385   113 H    0.982
    89   6 C    3.970 --    91 C    1.394    88 C    1.385    90 O    1.126
    90   8 O    2.171 --    89 C    1.126   114 H    0.964
    91   6 C    3.873 --    92 C    1.448    89 C    1.394   115 H    0.982
    92   6 C    3.868 --    91 C    1.448    86 C    1.417   116 H    0.989
    93   6 C    3.945 --    97 N    1.382    85 C    1.355    94 C    1.154
    94   6 C    3.844 --    95 C    1.706    93 C    1.154   117 H    1.000
    95   6 C    3.863 --    94 C    1.706    96 C    1.148   118 H    0.993
    96   6 C    3.968 --    60 C    1.385    97 N    1.374    95 C    1.148
    97   7 N    2.554 --    93 C    1.382    96 C    1.374
    98   1 H    1.033 --    60 C    0.996
    99   1 H    1.016 --    62 C    0.993
   100   1 H    1.032 --    63 C    0.999
   101   1 H    1.083 --    65 N    0.961
   102   1 H    1.049 --    68 C    0.989
   103   1 H    1.013 --    69 C    0.981
   104   1 H    1.005 --    71 O    0.964
   105   1 H    1.023 --    72 C    0.983
   106   1 H    1.046 --    73 C    0.990
   107   1 H    1.035 --    75 C    0.999
   108   1 H    1.033 --    76 C    0.999
   109   1 H    1.029 --    81 C    0.998
   110   1 H    1.032 --    82 C    0.999
   111   1 H    1.086 --    84 N    0.960
   112   1 H    1.046 --    87 C    0.990
   113   1 H    1.023 --    88 C    0.982
   114   1 H    1.005 --    90 O    0.964
   115   1 H    1.013 --    91 C    0.982
   116   1 H    1.048 --    92 C    0.989
   117   1 H    1.034 --    94 C    1.000
   118   1 H    1.019 --    95 C    0.993
   119   6 C    3.754 --   120 C    2.464    20 C    1.220   122 C    0.167
   120   6 C    3.810 --   119 C    2.464   121 C    1.363
   121   6 C    3.802 --   122 C    2.344   120 C    1.363   124 C    0.162
   122   6 C    3.839 --   121 C    2.344   123 C    1.391   119 C    0.167
   123   6 C    3.836 --   124 C    2.343   122 C    1.391   126 C    0.167
   124   6 C    3.804 --   123 C    2.343   125 C    1.365   121 C    0.162
   125   6 C    3.805 --   126 C    2.458   124 C    1.365
   126   6 C    3.756 --   125 C    2.458   159 C    1.225   123 C    0.167
   127   6 C    3.754 --   128 C    2.451   178 C    1.231   130 C    0.166
   128   6 C    3.804 --   127 C    2.451   129 C    1.371
   129   6 C    3.802 --   130 C    2.334   128 C    1.371   132 C    0.160
   130   6 C    3.836 --   129 C    2.334   131 C    1.398   127 C    0.166
   131   6 C    3.836 --   132 C    2.334   130 C    1.398   134 C    0.166
   132   6 C    3.802 --   131 C    2.334   133 C    1.371   129 C    0.160
   133   6 C    3.805 --   134 C    2.451   132 C    1.371
   134   6 C    3.755 --   133 C    2.451   217 C    1.231   131 C    0.166
   135   6 C    3.755 --   136 C    2.451   236 C    1.231   138 C    0.166
   136   6 C    3.805 --   135 C    2.451   137 C    1.371
   137   6 C    3.802 --   138 C    2.334   136 C    1.371   140 C    0.160
   138   6 C    3.836 --   137 C    2.334   139 C    1.398   135 C    0.166
   139   6 C    3.836 --   140 C    2.334   138 C    1.398   142 C    0.166
   140   6 C    3.802 --   139 C    2.334   141 C    1.371   137 C    0.160
   141   6 C    3.805 --   142 C    2.451   140 C    1.371
   142   6 C    3.755 --   141 C    2.451   275 C    1.231   139 C    0.166
   143   6 C    3.755 --   144 C    2.451   294 C    1.231   146 C    0.166
   144   6 C    3.805 --   143 C    2.451   145 C    1.371
   145   6 C    3.802 --   146 C    2.334   144 C    1.371   148 C    0.160
   146   6 C    3.836 --   145 C    2.334   147 C    1.398   143 C    0.166
   147   6 C    3.836 --   148 C    2.334   146 C    1.398   150 C    0.166
   148   6 C    3.802 --   147 C    2.334   149 C    1.371   145 C    0.160
   149   6 C    3.804 --   150 C    2.451   148 C    1.371
   150   6 C    3.754 --   149 C    2.451   333 C    1.231   147 C    0.166
   151   6 C    3.756 --   152 C    2.461   352 C    1.223   154 C    0.167
   152   6 C    3.806 --   151 C    2.461   153 C    1.363
   153   6 C    3.804 --   154 C    2.346   152 C    1.363   156 C    0.162
   154   6 C    3.837 --   153 C    2.346   155 C    1.388   151 C    0.167
   155   6 C    3.840 --   156 C    2.348   154 C    1.388   158 C    0.168
   156   6 C    3.802 --   155 C    2.348   157 C    1.360   153 C    0.162
   157   6 C    3.811 --   158 C    2.467   156 C    1.360
   158   6 C    3.754 --   157 C    2.467    79 C    1.217   155 C    0.168
   159   6 C    3.826 --   195 C    1.282   160 C    1.279   126 C    1.225
   160   6 C    3.904 --   159 C    1.279   161 C    1.271   164 N    1.252
   161   6 C    3.827 --   162 C    1.576   160 C    1.271   197 H    0.998
   162   6 C    3.821 --   161 C    1.576   163 C    1.265   198 H    0.999
   163   6 C    3.886 --   165 C    1.337   162 C    1.265   164 N    1.220
   164   7 N    3.250 --   160 C    1.252   163 C    1.220   199 H    0.961
   165   6 C    3.836 --   173 C    1.373   163 C    1.337   166 C    1.051
   166   6 C    3.877 --   167 C    1.418   172 C    1.410   165 C    1.051
   167   6 C    3.868 --   168 C    1.448   166 C    1.418   200 H    0.989
   168   6 C    3.873 --   167 C    1.448   169 C    1.394   201 H    0.982
   169   6 C    3.970 --   168 C    1.394   171 C    1.385   170 O    1.126
   170   8 O    2.170 --   169 C    1.126   202 H    0.964
   171   6 C    3.904 --   172 C    1.457   169 C    1.385   203 H    0.983
   172   6 C    3.866 --   171 C    1.457   166 C    1.410   204 H    0.990
   173   6 C    3.924 --   165 C    1.373   176 N    1.350   174 C    1.163
   174   6 C    3.840 --   175 C    1.690   173 C    1.163   205 H    1.000
   175   6 C    3.849 --   174 C    1.690   177 C    1.168   206 H    0.999
   176   7 N    2.551 --   177 C    1.417   173 C    1.350
   177   6 C    3.942 --   176 N    1.417   178 C    1.280   175 C    1.168
   178   6 C    3.827 --   177 C    1.280   179 C    1.277   127 C    1.231
   179   6 C    3.903 --   178 C    1.277   180 C    1.273   183 N    1.252
   180   6 C    3.828 --   181 C    1.575   179 C    1.273   207 H    0.998
   181   6 C    3.820 --   180 C    1.575   182 C    1.266   208 H    0.999
   182   6 C    3.886 --   184 C    1.335   181 C    1.266   183 N    1.221
   183   7 N    3.251 --   179 C    1.252   182 C    1.221   209 H    0.961
   184   6 C    3.835 --   192 C    1.374   182 C    1.335   185 C    1.051
   185   6 C    3.877 --   191 C    1.418   186 C    1.410   184 C    1.051
   186   6 C    3.865 --   187 C    1.457   185 C    1.410   210 H    0.990
   187   6 C    3.904 --   186 C    1.457   188 C    1.385   211 H    0.983
   188   6 C    3.970 --   190 C    1.394   187 C    1.385   189 O    1.126
   189   8 O    2.171 --   188 C    1.126   212 H    0.964
   190   6 C    3.873 --   191 C    1.448   188 C    1.394   213 H    0.982
   191   6 C    3.868 --   190 C    1.448   185 C    1.418   214 H    0.989
   192   6 C    3.924 --   184 C    1.374   196 N    1.350   193 C    1.162
   193   6 C    3.841 --   194 C    1.691   192 C    1.162   215 H    1.000
   194   6 C    3.849 --   193 C    1.691   195 C    1.167   216 H    0.999
   195   6 C    3.943 --   196 N    1.416   159 C    1.282   194 C    1.167
   196   7 N    2.548 --   195 C    1.416   192 C    1.350
   197   1 H    1.029 --   161 C    0.998
   198   1 H    1.032 --   162 C    0.999
   199   1 H    1.084 --   164 N    0.961
   200   1 H    1.049 --   167 C    0.989
   201   1 H    1.013 --   168 C    0.982
   202   1 H    1.005 --   170 O    0.964
   203   1 H    1.023 --   171 C    0.983
   204   1 H    1.047 --   172 C    0.990
   205   1 H    1.036 --   174 C    1.000
   206   1 H    1.033 --   175 C    0.999
   207   1 H    1.029 --   180 C    0.998
   208   1 H    1.033 --   181 C    0.999
   209   1 H    1.084 --   183 N    0.961
   210   1 H    1.047 --   186 C    0.990
   211   1 H    1.023 --   187 C    0.983
   212   1 H    1.005 --   189 O    0.964
   213   1 H    1.013 --   190 C    0.982
   214   1 H    1.049 --   191 C    0.989
   215   1 H    1.037 --   193 C    1.000
   216   1 H    1.033 --   194 C    0.999
   217   6 C    3.827 --   253 C    1.280   218 C    1.277   134 C    1.231
   218   6 C    3.903 --   217 C    1.277   219 C    1.273   222 N    1.252
   219   6 C    3.828 --   220 C    1.575   218 C    1.273   255 H    0.998
   220   6 C    3.821 --   219 C    1.575   221 C    1.266   256 H    0.999
   221   6 C    3.887 --   223 C    1.336   220 C    1.266   222 N    1.220
   222   7 N    3.250 --   218 C    1.252   221 C    1.220   257 H    0.961
   223   6 C    3.835 --   231 C    1.374   221 C    1.336   224 C    1.051
   224   6 C    3.877 --   225 C    1.418   230 C    1.410   223 C    1.051
   225   6 C    3.868 --   226 C    1.448   224 C    1.418   258 H    0.989
   226   6 C    3.873 --   225 C    1.448   227 C    1.394   259 H    0.982
   227   6 C    3.970 --   226 C    1.394   229 C    1.385   228 O    1.126
   228   8 O    2.170 --   227 C    1.126   260 H    0.964
   229   6 C    3.904 --   230 C    1.457   227 C    1.385   261 H    0.983
   230   6 C    3.865 --   229 C    1.457   224 C    1.410   262 H    0.990
   231   6 C    3.924 --   223 C    1.374   234 N    1.350   232 C    1.163
   232   6 C    3.840 --   233 C    1.690   231 C    1.163   263 H    1.000
   233   6 C    3.849 --   232 C    1.690   235 C    1.168   264 H    0.999
   234   7 N    2.550 --   235 C    1.417   231 C    1.350
   235   6 C    3.943 --   234 N    1.417   236 C    1.280   233 C    1.168
   236   6 C    3.828 --   235 C    1.280   237 C    1.278   135 C    1.231
   237   6 C    3.904 --   236 C    1.278   238 C    1.273   241 N    1.252
   238   6 C    3.828 --   239 C    1.576   237 C    1.273   265 H    0.998
   239   6 C    3.821 --   238 C    1.576   240 C    1.266   266 H    0.999
   240   6 C    3.887 --   242 C    1.336   239 C    1.266   241 N    1.220
   241   7 N    3.250 --   237 C    1.252   240 C    1.220   267 H    0.961
   242   6 C    3.835 --   250 C    1.373   240 C    1.336   243 C    1.051
   243   6 C    3.877 --   249 C    1.418   244 C    1.410   242 C    1.051
   244   6 C    3.865 --   245 C    1.457   243 C    1.410   268 H    0.990
   245   6 C    3.904 --   244 C    1.457   246 C    1.385   269 H    0.983
   246   6 C    3.970 --   248 C    1.394   245 C    1.385   247 O    1.126
   247   8 O    2.170 --   246 C    1.126   270 H    0.964
   248   6 C    3.873 --   249 C    1.448   246 C    1.394   271 H    0.982
   249   6 C    3.868 --   248 C    1.448   243 C    1.418   272 H    0.989
   250   6 C    3.924 --   242 C    1.373   254 N    1.350   251 C    1.163
   251   6 C    3.840 --   252 C    1.690   250 C    1.163   273 H    1.000
   252   6 C    3.849 --   251 C    1.690   253 C    1.168   274 H    0.999
   253   6 C    3.943 --   254 N    1.417   217 C    1.280   252 C    1.168
   254   7 N    2.550 --   253 C    1.417   250 C    1.350
   255   1 H    1.029 --   219 C    0.998
   256   1 H    1.032 --   220 C    0.999
   257   1 H    1.084 --   222 N    0.961
   258   1 H    1.049 --   225 C    0.989
   259   1 H    1.013 --   226 C    0.982
   260   1 H    1.005 --   228 O    0.964
   261   1 H    1.023 --   229 C    0.983
   262   1 H    1.047 --   230 C    0.990
   263   1 H    1.036 --   232 C    1.000
   264   1 H    1.033 --   233 C    0.999
   265   1 H    1.029 --   238 C    0.998
   266   1 H    1.032 --   239 C    0.999
   267   1 H    1.084 --   241 N    0.961
   268   1 H    1.047 --   244 C    0.990
   269   1 H    1.023 --   245 C    0.983
   270   1 H    1.005 --   247 O    0.964
   271   1 H    1.013 --   248 C    0.982
   272   1 H    1.049 --   249 C    0.989
   273   1 H    1.036 --   251 C    1.000
   274   1 H    1.033 --   252 C    0.999
   275   6 C    3.827 --   311 C    1.280   276 C    1.278   142 C    1.231
   276   6 C    3.904 --   275 C    1.278   277 C    1.273   280 N    1.252
   277   6 C    3.828 --   278 C    1.576   276 C    1.273   313 H    0.998
   278   6 C    3.821 --   277 C    1.576   279 C    1.266   314 H    0.999
   279   6 C    3.887 --   281 C    1.336   278 C    1.266   280 N    1.220
   280   7 N    3.250 --   276 C    1.252   279 C    1.220   315 H    0.961
   281   6 C    3.835 --   289 C    1.374   279 C    1.336   282 C    1.051
   282   6 C    3.877 --   283 C    1.418   288 C    1.410   281 C    1.051
   283   6 C    3.868 --   284 C    1.448   282 C    1.418   316 H    0.989
   284   6 C    3.873 --   283 C    1.448   285 C    1.394   317 H    0.982
   285   6 C    3.970 --   284 C    1.394   287 C    1.385   286 O    1.126
   286   8 O    2.170 --   285 C    1.126   318 H    0.964
   287   6 C    3.904 --   288 C    1.457   285 C    1.385   319 H    0.983
   288   6 C    3.866 --   287 C    1.457   282 C    1.410   320 H    0.990
   289   6 C    3.924 --   281 C    1.374   292 N    1.349   290 C    1.163
   290   6 C    3.840 --   291 C    1.690   289 C    1.163   321 H    1.000
   291   6 C    3.849 --   290 C    1.690   293 C    1.168   322 H    0.999
   292   7 N    2.550 --   293 C    1.417   289 C    1.349
   293   6 C    3.943 --   292 N    1.417   294 C    1.280   291 C    1.168
   294   6 C    3.827 --   293 C    1.280   295 C    1.277   143 C    1.231
   295   6 C    3.903 --   294 C    1.277   296 C    1.273   299 N    1.252
   296   6 C    3.828 --   297 C    1.575   295 C    1.273   323 H    0.998
   297   6 C    3.821 --   296 C    1.575   298 C    1.266   324 H    0.999
   298   6 C    3.887 --   300 C    1.336   297 C    1.266   299 N    1.220
   299   7 N    3.250 --   295 C    1.252   298 C    1.220   325 H    0.961
   300   6 C    3.835 --   308 C    1.374   298 C    1.336   301 C    1.051
   301   6 C    3.877 --   307 C    1.418   302 C    1.410   300 C    1.051
   302   6 C    3.865 --   303 C    1.457   301 C    1.410   326 H    0.990
   303   6 C    3.904 --   302 C    1.457   304 C    1.385   327 H    0.983
   304   6 C    3.970 --   306 C    1.394   303 C    1.385   305 O    1.126
   305   8 O    2.170 --   304 C    1.126   328 H    0.964
   306   6 C    3.873 --   307 C    1.448   304 C    1.394   329 H    0.982
   307   6 C    3.868 --   306 C    1.448   301 C    1.418   330 H    0.989
   308   6 C    3.924 --   300 C    1.374   312 N    1.350   309 C    1.163
   309   6 C    3.840 --   310 C    1.690   308 C    1.163   331 H    1.000
   310   6 C    3.849 --   309 C    1.690   311 C    1.168   332 H    0.999
   311   6 C    3.943 --   312 N    1.417   275 C    1.280   310 C    1.168
   312   7 N    2.550 --   311 C    1.417   308 C    1.350
   313   1 H    1.029 --   277 C    0.998
   314   1 H    1.031 --   278 C    0.999
   315   1 H    1.084 --   280 N    0.961
   316   1 H    1.049 --   283 C    0.989
   317   1 H    1.013 --   284 C    0.982
   318   1 H    1.005 --   286 O    0.964
   319   1 H    1.023 --   287 C    0.983
   320   1 H    1.047 --   288 C    0.990
   321   1 H    1.036 --   290 C    1.000
   322   1 H    1.033 --   291 C    0.999
   323   1 H    1.029 --   296 C    0.998
   324   1 H    1.032 --   297 C    0.999
   325   1 H    1.084 --   299 N    0.961
   326   1 H    1.047 --   302 C    0.990
   327   1 H    1.023 --   303 C    0.983
   328   1 H    1.005 --   305 O    0.964
   329   1 H    1.013 --   306 C    0.982
   330   1 H    1.049 --   307 C    0.989
   331   1 H    1.036 --   309 C    1.000
   332   1 H    1.033 --   310 C    0.999
   333   6 C    3.827 --   369 C    1.280   334 C    1.278   150 C    1.231
   334   6 C    3.903 --   333 C    1.278   335 C    1.273   338 N    1.252
   335   6 C    3.828 --   336 C    1.575   334 C    1.273   371 H    0.998
   336   6 C    3.820 --   335 C    1.575   337 C    1.266   372 H    0.999
   337   6 C    3.886 --   339 C    1.335   336 C    1.266   338 N    1.221
   338   7 N    3.251 --   334 C    1.252   337 C    1.221   373 H    0.961
   339   6 C    3.834 --   347 C    1.374   337 C    1.335   340 C    1.051
   340   6 C    3.877 --   341 C    1.418   346 C    1.410   339 C    1.051
   341   6 C    3.868 --   342 C    1.448   340 C    1.418   374 H    0.989
   342   6 C    3.873 --   341 C    1.448   343 C    1.394   375 H    0.982
   343   6 C    3.970 --   342 C    1.394   345 C    1.385   344 O    1.126
   344   8 O    2.171 --   343 C    1.126   376 H    0.964
   345   6 C    3.904 --   346 C    1.457   343 C    1.385   377 H    0.983
   346   6 C    3.865 --   345 C    1.457   340 C    1.410   378 H    0.990
   347   6 C    3.925 --   339 C    1.374   350 N    1.350   348 C    1.162
   348   6 C    3.841 --   349 C    1.692   347 C    1.162   379 H    1.000
   349   6 C    3.849 --   348 C    1.692   351 C    1.167   380 H    0.999
   350   7 N    2.548 --   351 C    1.415   347 C    1.350
   351   6 C    3.944 --   350 N    1.415   352 C    1.283   349 C    1.167
   352   6 C    3.827 --   351 C    1.283   353 C    1.280   151 C    1.223
   353   6 C    3.905 --   352 C    1.280   354 C    1.270   357 N    1.251
   354   6 C    3.827 --   355 C    1.577   353 C    1.270   381 H    0.998
   355   6 C    3.822 --   354 C    1.577   356 C    1.265   382 H    0.999
   356   6 C    3.886 --   358 C    1.338   355 C    1.265   357 N    1.220
   357   7 N    3.249 --   353 C    1.251   356 C    1.220   383 H    0.961
   358   6 C    3.836 --   366 C    1.372   356 C    1.338   359 C    1.051
   359   6 C    3.877 --   365 C    1.418   360 C    1.410   358 C    1.051
   360   6 C    3.866 --   361 C    1.457   359 C    1.410   384 H    0.990
   361   6 C    3.904 --   360 C    1.457   362 C    1.385   385 H    0.983
   362   6 C    3.970 --   364 C    1.394   361 C    1.385   363 O    1.126
   363   8 O    2.170 --   362 C    1.126   386 H    0.964
   364   6 C    3.873 --   365 C    1.448   362 C    1.394   387 H    0.982
   365   6 C    3.868 --   364 C    1.448   359 C    1.418   388 H    0.989
   366   6 C    3.923 --   358 C    1.372   370 N    1.350   367 C    1.163
   367   6 C    3.840 --   368 C    1.690   366 C    1.163   389 H    1.000
   368   6 C    3.849 --   367 C    1.690   369 C    1.168   390 H    0.999
   369   6 C    3.942 --   370 N    1.417   333 C    1.280   368 C    1.168
   370   7 N    2.551 --   369 C    1.417   366 C    1.350
   371   1 H    1.029 --   335 C    0.998
   372   1 H    1.032 --   336 C    0.999
   373   1 H    1.084 --   338 N    0.961
   374   1 H    1.049 --   341 C    0.989
   375   1 H    1.013 --   342 C    0.982
   376   1 H    1.005 --   344 O    0.964
   377   1 H    1.023 --   345 C    0.983
   378   1 H    1.046 --   346 C    0.990
   379   1 H    1.037 --   348 C    1.000
   380   1 H    1.033 --   349 C    0.999
   381   1 H    1.029 --   354 C    0.998
   382   1 H    1.032 --   355 C    0.999
   383   1 H    1.084 --   357 N    0.961
   384   1 H    1.047 --   360 C    0.990
   385   1 H    1.023 --   361 C    0.983
   386   1 H    1.005 --   363 O    0.964
   387   1 H    1.013 --   364 C    0.982
   388   1 H    1.049 --   365 C    0.989
   389   1 H    1.036 --   367 C    1.000
   390   1 H    1.033 --   368 C    0.999
 ---------------------------------------------------------------------------

Topologies differ in total number of bonds
Writing topology from bond orders to xtbtopo.mol

 dipole moment from electron density (au)
     X       Y       Z   
-207.3281  -1.0054  -1.8148  total (Debye):  527.002


           -------------------------------------------------
          | TOTAL ENERGY             -775.314913883891 Eh   |
          | GRADIENT NORM               0.112745098068 Eh/α |
          | HOMO-LUMO GAP               0.065106768477 eV   |
           -------------------------------------------------
########################################################################
[WARNING] Runtime exception occurred
-1- restart_readRestart: Dimension missmatch in restart file.
########################################################################

------------------------------------------------------------------------
 * finished run on 2022/07/29 at 02:11:05.198     
------------------------------------------------------------------------
 total:
 * wall-time:     0 d,  0 h,  1 min, 22.138 sec
 *  cpu-time:     0 d,  0 h,  1 min, 20.596 sec
 * ratio c/w:     0.981 speedup
 SCF:
 * wall-time:     0 d,  0 h,  1 min, 20.039 sec
 *  cpu-time:     0 d,  0 h,  1 min, 19.468 sec
 * ratio c/w:     0.993 speedup

