390
 energy: -688.006676373567 gnorm: 0.000627406280 xtb: 6.5.1 (b24c23e)
C           60.41794292333610        0.11128380962228        0.07286781725025
C           61.02915523910014        1.24329040114346       -0.45089511108520
C           60.37935645856242        2.38808521482131       -0.99127814759489
C           61.34354847178082        3.27048870520304       -1.39053035799314
C           62.61374474842377        2.69878406675093       -1.09441106604366
N           62.37303501069619        1.47342773703671       -0.54049751630351
C           63.87853542777155        3.25370619601829       -1.32314555690559
C           63.91437299473899        4.61423088244010       -1.91240915231128
C           64.54323885848696        4.83683399417348       -3.13816890457990
C           64.57343623485660        6.10366654678020       -3.69974911277908
C           63.97596756129543        7.17022043746656       -3.03196067537112
O           63.98338493236541        8.42744289492856       -3.54475439224785
C           63.34837416736477        6.96283716391918       -1.80496611931197
C           63.31733297310839        5.69326064818605       -1.25570891223325
C           65.09150535929885        2.62199063955713       -1.03766010690568
C           66.39023174446683        3.24847042526118       -1.20734041595852
C           67.30847092260964        2.33280161107631       -0.83487963747574
N           65.24283345809656        1.35888690347803       -0.55160883108892
C           66.56958828293668        1.15224703511509       -0.43150421839795
C           67.20399940265911       -0.03043915339098        0.00136364342235
C           66.56476103487458       -1.20422983459048        0.44407047159510
C           67.20431367316880       -2.40842478340424        0.84064510904900
C           66.23508562300012       -3.29717142180533        1.21578445993428
C           64.97275133154011       -2.65797849989518        1.06964818400999
N           65.22396972199952       -1.39920327509902        0.58975731624285
C           63.71048989484564       -3.19630132715429        1.34166198806941
C           63.67275667560009       -4.57197731465863        1.89333383512879
C           64.29966227803061       -4.87138398565861        3.10566413317852
C           64.26176207565941       -6.15271314594712        3.62619862700973
C           63.59758911948786       -7.16191079733629        2.93131745827290
O           63.58312730643915       -8.40875610468027        3.46863256445679
C           62.97148189693075       -6.87965354593399        1.71937857517279
C           63.00821191666049       -5.59113926745819        1.20977612223830
C           62.49719760908313       -2.53098305674088        1.13241736044179
C           61.19451924606376       -3.07616143483233        1.48132877485349
C           60.28341100173021       -2.14872055762165        1.12370497591350
C           61.02864940387710       -1.03388395451268        0.56674642942278
N           62.35881776835881       -1.29467218454965        0.59809349760835
H           59.33287389848771        0.13163509452274        0.09139989839706
H           59.31005318625056        2.50561948469587       -1.06654855494284
H           61.19321992321402        4.23024282255261       -1.85763948736091
H           63.09726370124670        0.82772565091195       -0.24417016360842
H           64.99711810127204        4.00511070518286       -3.66537288996107
H           65.05767320280277        6.26873822450995       -4.65626478100350
H           64.44919815919467        8.46007448612475       -4.39113455601279
H           62.89287033208898        7.80215255122707       -1.29411992653503
H           62.84235364285286        5.53644141629334       -0.29361005552717
H           66.55511726917726        4.25787394009904       -1.54786530649495
H           68.38260869644266        2.42553325037350       -0.81780405288670
H           68.27059742544542       -2.56719687674683        0.83029246815082
H           66.37851945604427       -4.31027779784687        1.55439500227475
H           64.50459446388858       -0.71792894238132        0.37067273669180
H           64.80357255038824       -4.08376259472919        3.65477353802421
H           64.73971499277552       -6.38510116026730        4.56982855353206
H           63.09394360384172       -9.02772850929657        2.91010965799176
H           62.45958697409797       -7.66909799200145        1.17953764665798
H           62.53167817576681       -5.37608949624834        0.25982804624320
H           61.02547396090336       -4.03246230155501        1.94971881070906
H           59.20967122702260       -2.18318246282174        1.22259813329531
C          160.15926374042763        0.01548930004805        0.10921680965499
C          159.54998434376270       -1.04293127749790        0.77084398325705
C          160.20165281617511       -2.12634463736492        1.42382534112400
C          159.23904734344029       -2.94284424605333        1.94757712218633
C          157.96806544264612       -2.37764037963480        1.64226187195066
N          158.20661958258205       -1.24064848519896        0.92355242810003
C          156.70472458832648       -2.87364230005804        1.98534803527416
C          156.67366195010061       -4.11529593633986        2.79612094690596
C          156.04838550209459       -5.26338928428538        2.30812317708169
C          156.02391174705426       -6.42972855794776        3.05669163115239
C          156.62347553762891       -6.45706952002203        4.31374669467993
O          156.62166899658260       -7.57731696530027        5.08103122019712
C          157.24760268813580       -5.31622725997003        4.81507189922073
C          157.27308312927613       -4.15877030680176        4.05739386397879
C          155.49001722819463       -2.28708316053412        1.62172717373157
C          154.19294319401399       -2.77813390048011        2.05135150831458
C          153.27230190642908       -1.96029658298007        1.50011506491074
N          155.33539459041125       -1.18087873908349        0.84276991548692
C          154.00808645057063       -0.96661716667346        0.74269394108364
C          153.37098885226618        0.05673088299065        0.01134800860256
C          154.00723820145240        1.08144252995393       -0.71479329083238
C          153.36397039710539        2.08633513364346       -1.48485019708596
C          154.33117669461728        2.88838306696326       -2.02429677489621
C          155.59621592005803        2.40346922573161       -1.59060388085638
N          155.34820148229790        1.30495574749895       -0.80976335068114
C          156.85776755273548        2.92006428509600       -1.90464018804313
C          156.89258339595906        4.14039285025158       -2.74594212901365
C          156.27873558665533        5.32029918537294       -2.31776121308855
C          156.31435007721930        6.46195134593180       -3.09854516596346
C          156.96325774426091        6.43630515885076       -4.33171365748718
O          156.97624009714019        7.57314042180281       -5.07402050199542
C          157.57614932266591        5.26617710506998       -4.77400778329090
C          157.54157254332799        4.12959922555631       -3.98139840587461
C          158.07341415989387        2.36930642190975       -1.48333064761282
C          159.37616427226251        2.95354225919406       -1.76179258616787
C          160.28975724809314        2.13762473312565       -1.19809565146520
C          159.54614488175687        1.06190719688097       -0.56703260892482
N          158.21455869799419        1.23967638695740       -0.75052234646040
H          161.24455423346740        0.01509823883551        0.12562808007778
H          161.27099755874136       -2.25678939508937        1.47259703644035
H          159.39070218417007       -3.86166700128933        2.49043227919108
H          157.48146671008854       -0.63540792390486        0.55332635285607
H          155.59291479091166       -5.24741930255762        1.32425407545810
H          155.54261298082918       -7.32105007740185        2.66868214230883
H          156.15783531519813       -8.30362747674511        4.64317023163423
H          157.70495169760670       -5.35007338176842        5.79618575885944
H          157.74585532322985       -3.26753811738197        4.45492306524676
H          154.03080715322537       -3.62323330557886        2.70063725595349
H          152.19841598933550       -1.99879825202272        1.58947558276378
H          152.29663182122289        2.17187199764585       -1.61026240648588
H          154.18448588630426        3.73534164069659       -2.67447651068999
H          156.06966024032982        0.73864531731082       -0.37569245733661
H          155.78709658051787        5.34605957072692       -1.35162699814660
H          155.84639717985647        7.37988524202611       -2.76493737085981
H          157.45520068351280        7.44670488951659       -5.90407350019616
H          158.07612471914982        5.24920006129884       -5.73651699902783
H          158.00752630233660        3.21586126855674       -4.33312115840655
H          159.54387926947845        3.87135138186110       -2.30212833485189
H          161.36432863243093        2.23268529282229       -1.18607603059456
C           68.60935501989002       -0.05287639933153       -0.00770738241853
C           69.83408675538998       -0.06779826809838       -0.01430742248016
C           71.17666312228411       -0.07622050791024       -0.02266047849247
C           72.40757572282689       -0.07788991712803       -0.02876806222428
C           73.74540771074608       -0.07528200566289       -0.03413081125184
C           74.97638771436858       -0.06988326523669       -0.03364167972468
C           76.31879475938855       -0.06708554673755       -0.03314820693083
C           77.54379663197226       -0.05975252048266       -0.02844801494427
C           87.21288810371759       -0.03004326328667       -0.00793892295118
C           88.43835729761192       -0.02329319140318       -0.00936284681939
C           89.78009531924334       -0.01837852593296       -0.01349736324184
C           91.01158291262882       -0.01071688552734       -0.02164958553174
C           92.34865127924742       -0.00506930478718       -0.02681218378136
C           93.58015001552859        0.00147372246335       -0.03141944972610
C           94.92187411781784        0.00682522120784       -0.03448075483241
C           96.14737336598894        0.01323854277656       -0.03440548997326
C          105.81898140547588       -0.00731437642204       -0.00018560677481
C          107.04452096654741       -0.00558139435981        0.00406018938504
C          108.38628305053535       -0.00603233821406        0.00627462402471
C          109.61784457701143       -0.00113725437813        0.00557341410190
C          110.95495114225993        0.00162242722560        0.00432665087411
C          112.18652685693151        0.00404486476257        0.00119045056497
C          113.52828641970912        0.00491587400865       -0.00280142012163
C          114.75382313310431        0.00864035301028       -0.00527898124786
C          124.42696263766543        0.01605029406310       -0.03733517327003
C          125.65244236617498        0.01813353547506       -0.03416670609690
C          126.99416674693660        0.01741424519114       -0.03067873653945
C          128.22563822456158        0.01789543938838       -0.02293422285196
C          129.56269976079341        0.01844659104100       -0.01528096015620
C          130.79417675472700        0.02355979145322       -0.00908434923854
C          132.13591389023065        0.02408020521224       -0.00145199579112
C          133.36134741590709        0.02776278222209        0.00507256669882
C          143.03027843420688        0.07322510919577       -0.03866645201200
C          144.25516160450832        0.08097506430422       -0.04032883988992
C          145.59789085977539        0.08154919490997       -0.04164305783838
C          146.82874124840595        0.08447746254323       -0.04159621650631
C          148.16689279149162        0.08453698604348       -0.03579907287072
C          149.39765535611554        0.08060120654091       -0.02954498101277
C          150.74053715455599        0.07500680068240       -0.01749392413905
C          151.96513565057893        0.06479642030629       -0.00491664550116
C           78.94837742425284       -0.06126398230865       -0.01539893071120
C           79.57822739405002       -1.16816339743078       -0.61699681041881
C           78.93132078308545       -2.25146262125419       -1.26527348766112
C           79.89813809856969       -3.09522088048627       -1.74003679638582
C           81.16436461347396       -2.55552918720984       -1.38551560397894
N           80.91981953700788       -1.38842674242474       -0.71204658700886
C           82.42533351607607       -3.08547746069023       -1.68776473287679
C           82.43942786401749       -4.38112685256193       -2.41077983967001
C           83.02718757244905       -4.48196922753201       -3.67229558426806
C           83.03501421312193       -5.68774568603267       -4.35594535839944
C           82.45643463426012       -6.81478561057452       -3.77668473977431
O           82.44305956811318       -8.01548429703571       -4.41001607134161
C           81.86980793855928       -6.72885808088211       -2.51531085645564
C           81.86048117711995       -5.51929109042844       -1.84372935368947
C           83.64923155070456       -2.49549082133377       -1.36746693371299
C           84.93735112770261       -3.10688205859384       -1.64144140927938
C           85.87318718693608       -2.25112175982890       -1.18079890903160
N           83.82433302857487       -1.30006553827794       -0.73833587395689
C           85.15545653308294       -1.12521086394708       -0.61717300164101
C           85.80902373155706       -0.03068634953695       -0.01418247262158
C           85.17879597861075        1.06815745886961        0.60263449589182
C           85.82540560474062        2.14298719687302        1.26522143012639
C           84.85853400833280        2.98290571156324        1.74679501865211
C           83.59246565484685        2.45012103027034        1.38138896570643
N           83.83742739368112        1.28922340962739        0.69670977913785
C           82.33155088733727        2.98259659432420        1.67817081850900
C           82.31311425175601        4.27242071238334        2.41108664210637
C           82.90249854177398        5.41397117362367        1.86195870565759
C           82.88228301776361        6.61892789903262        2.54164419981675
C           82.27384569365536        6.69686876020259        3.79316267892719
O           82.27513661366513        7.89366726182183        4.43390297209421
C           81.68592451023615        5.56598693471272        4.35533905892032
C           81.70485358294097        4.36502944379459        3.66366986705770
C           81.10753381804726        2.40021904921273        1.34247283584631
C           79.82003902772347        3.01936378619353        1.60209143236513
C           78.88419146532232        2.16809494572145        1.13321974745678
C           79.60128245248553        1.03664155403603        0.58039617967664
N           80.93262827272227        1.20567151892525        0.71289565202801
H           77.86290618293609       -2.35882827769777       -1.36062474435039
H           79.74827001803388       -4.00455802350018       -2.29866994282223
H           81.63956599725392       -0.77310888581840       -0.34781384236313
H           83.46582892205963       -3.60243029329312       -4.13020692976947
H           83.48702049852545       -5.75807305637005       -5.33949070627285
H           82.87896584322399       -7.96495481953668       -5.27132026203242
H           81.42804714757209       -7.61409086404084       -2.07477340695703
H           81.41625535004094       -5.45680996316658       -0.85653858163382
H           85.08450772926219       -4.06830155160698       -2.10612912597194
H           86.94642017553076       -2.35365000662684       -1.19833105121904
H           86.89370243873461        2.24744458084559        1.36509663842845
H           85.00811739497976        3.88546891307809        2.31642074732614
H           83.11774518911218        0.67908586213042        0.32376295929259
H           83.36254020843175        5.35840689955309        0.88162908078556
H           83.33128491444947        7.50705669131524        2.11446018196075
H           81.82247213729369        7.83801604890356        5.28621867892207
H           81.21715781870520        5.62987673419191        5.33144923042576
H           81.25792629410074        3.48267686825886        4.10795893435465
H           79.67328307411219        3.98271536042025        2.06286199735704
H           77.81141150004154        2.27648338097619        1.13947740667624
C           97.55115281444552        0.00722932080045       -0.02494935689398
C           98.17688320772807       -1.09162861377347       -0.64643368318526
C           97.52593828205816       -2.16083367376283       -1.31350758486813
C           98.48953835424423       -3.00243160481344       -1.79884678930159
C           99.75764977217898       -2.47588094751173       -1.43180265072546
N           99.51742058394829       -1.31746173846273       -0.74160360770448
C          101.01648842662931       -3.01047828346848       -1.73496003672850
C          101.02632298483547       -4.29598369190991       -2.47575319811103
C          101.62582011563711       -4.38331380858873       -3.73286389436433
C          101.63247128099805       -5.57934019088997       -4.43328953928893
C          101.04065075852385       -6.71042134944947       -3.87561954582594
O          101.02607187193421       -7.90208735964222       -4.52566283580106
C          100.44172636926702       -6.63796673312581       -2.61919508798800
C          100.43389437129346       -5.43792553691120       -1.93065445544199
C          102.24326401666404       -2.43408406178980       -1.40040998626761
C          103.52797554689261       -3.05336290265750       -1.67280883722715
C          104.46812258624666       -2.20977518533469       -1.19858440977613
N          102.42447589110576       -1.24652839759069       -0.75838933356636
C          103.75640668710130       -1.08346619130651       -0.62851140808438
C          104.41522823040998        0.00136047326990       -0.01394045122247
C          103.78947276548450        1.09985429892060        0.60821333195919
C          104.44020814048369        2.16717773614435        1.27851800594529
C          103.47653147519628        3.00873680092697        1.76380906436398
C          102.20857638247351        2.48413608950811        1.39346624737499
N          102.44897829678861        1.32676905558179        0.70145884426048
C          100.94976921150396        3.01972403347781        1.69489384156317
C          100.93901555046118        4.30583763403060        2.43452350243201
C          101.53366091236627        5.44643236791273        1.88892239077574
C          101.52186207146188        6.64856775499859        2.57365046028211
C          100.91649169975972        6.72465942344857        3.82679119236280
O          100.92583076604801        7.91879356763934        4.47234934030255
C          100.32366904548046        5.59467713726910        4.38558808504897
C          100.33440347974971        4.39643422591169        3.68894903199261
C           99.72297059711759        2.44456632928558        1.35802817470230
C           98.43829356488330        3.06498198836287        1.62806334335852
C           97.49819094234530        2.22125216942190        1.15400278108667
C           98.20992490543267        1.09378238419472        0.58639668493225
N           99.54185643577308        1.25659705874220        0.71685295956920
H           96.45724478644770       -2.26079307723094       -1.41362605184725
H           98.33612311824700       -3.90200306563244       -2.37213533201904
H          100.23928107499715       -0.71176134227112       -0.36563256661809
H          102.07495650594826       -3.50045465783357       -4.17389119075742
H          102.09407241173841       -5.63901746497897       -5.41306894574085
H          101.47282259690482       -7.84298784055131       -5.38085891964458
H           99.98965124288652       -7.52624281283635       -2.19556365662218
H           99.98062740244016       -5.38659251116299       -0.94693950152909
H          103.67020836384330       -4.01168968684013       -2.14533459964737
H          105.54057814240880       -2.32083325303118       -1.21098903627276
H          105.50882408339834        2.26603519992386        1.38056655042456
H          103.62973075782472        3.90687671272574        2.33941116288231
H          101.72717742586137        0.72242402248411        0.32320617320988
H          101.99138329342753        5.39224271730297        0.90742933341473
H          101.97517075905708        7.53585856000430        2.14929306865398
H          100.47442081478087        7.86244844154454        5.32527713429261
H           99.85758711700343        5.65704417312240        5.36308179996596
H           99.88402915701171        3.51467744075593        4.13092684036866
H           98.29595920251626        4.02399846956251        2.09913492564677
H           96.42578847276677        2.33302341461749        1.16478526518987
C          116.15763612575761        0.00365648554163       -0.00097536421509
C          116.78245688410253       -1.09485635241457       -0.62398077940420
C          116.13058454846772       -2.16890002923929       -1.28235899433947
C          117.09369864981086       -3.00902464336234       -1.77121465834627
C          118.36254869714919       -2.47620817292906       -1.41591626873783
N          118.12309533097664       -1.31628514846744       -0.72791122707645
C          119.62082911664781       -3.00653621802474       -1.72840452689295
C          119.62975875929762       -4.29588878406049       -2.46266587319304
C          120.21520058703365       -4.38699048504718       -3.72605545020124
C          120.22262623953226       -5.58759148540467       -4.41866390210062
C          119.64608839248163       -6.71935471939654       -3.84658840300613
O          119.63354004222954       -7.91559042382867       -4.48823736966830
C          119.06096865915049       -6.64295527887861       -2.58390037310407
C          119.05190367032048       -5.43839340325702       -1.90334399906531
C          120.84835637183279       -2.42376968702375       -1.40796385267981
C          122.13294429761028       -3.03832031641786       -1.69154580931356
C          123.07413757151342       -2.18987133356257       -1.22820224139372
N          121.03081552946176       -1.23391994709754       -0.77071101157141
C          122.36327842214992       -1.06540649265849       -0.65353924431127
C          123.02317752555639        0.02204596897449       -0.04499816446474
C          122.39838121255291        1.11853090068132        0.58154531117751
C          123.05046319997975        2.18811439311164        1.24688767199758
C          122.08748548550867        3.02461735402092        1.74214503713312
C          120.81856880163855        2.49445664387888        1.38315217284300
N          121.05778279404912        1.33947300642359        0.68690124954540
C          119.56027924822713        3.02315426586118        1.69850936444709
C          119.55192589920594        4.30593785043484        2.44412502029838
C          120.13335984580456        5.45237458605736        1.89665223195178
C          120.12693543075081        6.65015175895009        2.58907509423561
C          119.54085042082585        6.71563907764195        3.85194103657626
O          119.55649391584994        7.90531391081359        4.50556608014755
C          118.96034568229847        5.57993794278544        4.41207958016559
C          118.96514004144248        4.38622882020474        3.70762829775918
C          118.33283413294654        2.44384102360629        1.37181717549240
C          117.04847660590706        3.05876303434949        1.65548468532606
C          116.10719657014349        2.21407958489306        1.18548390860443
C          116.81779841892468        1.09084784865205        0.60797947209769
N          118.15019361573738        1.25731195862644        0.72833263697771
H          115.06154571755934       -2.27326944100734       -1.37400176256423
H          116.93962922863712       -3.91163262811180       -2.33955474738413
H          118.84535279839724       -0.70652797829559       -0.35933896870914
H          120.65286641781942       -3.50385996588128       -4.17793922811986
H          120.67331615262876       -5.65038706247574       -5.40331608165568
H          120.06903640846119       -7.85869895730251       -5.34935672258129
H          118.62074139118775       -7.53178565092506       -2.14911532229813
H          118.60943489395152       -5.38359702630469       -0.91491177795073
H          122.27458988855577       -3.99695995459038       -2.16360028385807
H          124.14688275408295       -2.29639313531985       -1.25089324225232
H          124.11951858689764        2.29181240984879        1.33901009604913
H          122.24183666314075        3.92282949388458        2.31731776679876
H          120.33548722956166        0.73183464994907        0.31493408496732
H          120.57677948786240        5.40607671197006        0.90821560730935
H          120.57024457801751        7.54195638548802        2.16361844296989
H          119.12022183397283        7.84113221487723        5.36578154423331
H          118.50890592930273        5.63422629846462        5.39689596733479
H          118.52460888839285        3.49988712568160        4.15036222570461
H          116.90729566976766        4.01525457158944        2.13202837578949
H          115.03456376647125        2.32222177982886        1.20583772425207
C          134.76524706067417        0.02587789519414        0.01384921855897
C          135.39315272381143       -1.07491999258993       -0.60179122560901
C          134.74368410853978       -2.15541565355741       -1.25234103748220
C          135.70852875877316       -2.99623823133692       -1.73626576347776
C          136.97629252618529       -2.45741633622047       -1.38584080929343
N          136.73420873077529       -1.29361852245623       -0.70513158187764
C          138.23588306528777       -2.98529293244768       -1.69568375187593
C          138.25129450574585       -4.27783161274264       -2.42401589623716
C          138.84087520563173       -4.37150151016286       -3.68537609041629
C          138.85752275945498       -5.57523444131555       -4.37228862545601
C          138.28619886830168       -6.70771576680490       -3.79642017024785
O          138.28384166209165       -7.90733483168851       -4.43197742663251
C          137.69609542543242       -6.62856663259689       -2.53624549907370
C          137.67784901173050       -5.42086328768860       -1.86136241548815
C          139.46116720131974       -2.39565488651269       -1.37781529182775
C          140.74832691603572       -3.00795250520623       -1.65489383002937
C          141.68583177482412       -2.15205928374550       -1.19803540616474
N          139.63810812540407       -1.20027504201372       -0.75058557124803
C          140.97024433036103       -1.02489657264332       -0.63444810006154
C          141.62523740141538        0.07277184638842       -0.04085876228213
C          140.99799911966298        1.17387235025295        0.57367405124581
C          141.64783361654943        2.25437984849699        1.22391287728259
C          140.68313732563570        3.09130609342174        1.71466054702076
C          139.41509137814438        2.55052385826657        1.36809365903683
N          139.65668646683841        1.38953287620764        0.68304002412587
C          138.15546015160842        3.07446975901642        1.68572814770015
C          138.14308407526033        4.36336407543679        2.42077820108627
C          138.71344316906294        5.50912655185230        1.86042541663153
C          138.70355006990832        6.71238653383443        2.54328980455987
C          138.12511853034314        6.78422441554956        3.80932835463102
O          138.13706401148357        7.97922289618659        4.45327826929823
C          137.55570472043482        5.64929014447261        4.38225465461195
C          137.56387745376060        4.45000381373371        3.68734500583757
C          136.93027609889936        2.48463391855632        1.36953268885444
C          135.64316083307295        3.09309864787368        1.65470227853267
C          134.70549774308574        2.24062492527483        1.19166090168844
C          135.42097693561200        1.11864786739492        0.61748600087092
N          136.75266110639163        1.29342114272182        0.73334265444961
H          133.67484127041840       -2.26349669714872       -1.34195408325551
H          135.55650439780450       -3.90329579260331       -2.29805109200592
H          137.45544523796539       -0.67944002507788       -0.34192622003441
H          139.27488421119074       -3.48798506307319       -4.14003541945794
H          139.31176287386242       -5.64005746513998       -5.35518338741118
H          138.72300103456047       -7.85203290559954       -5.29134208089006
H          137.25970933138757       -7.51790329830119       -2.09863082600135
H          137.23203317240294       -5.36412372025105       -0.87454936101243
H          140.89397635290075       -3.97016814369105       -2.11837916726964
H          142.75897680051341       -2.25489221186102       -1.21865491444397
H          142.71679723471809        2.36428373103778        1.30976172027928
H          140.83561777719297        3.99673480466332        2.27891419213881
H          138.93526572129846        0.77452641477992        0.32161856990743