111
 energy: -203.450935913797 gnorm: 1.676278624763 xtb: 6.5.1 (b24c23e)
Cu          18.11076700000000        0.02821600000000        0.02933000000000
C           14.73711000000000       -0.08141600000000       -0.08072200000000
C           15.41001600000000       -0.89620000000000       -0.89917400000000
C           14.78131500000000       -1.82662300000000       -1.83370100000000
C           15.74213700000000       -2.46792900000000       -2.47788400000000
C           17.02525899999999       -1.97421900000000       -1.98202900000000
N           16.83107400000000       -0.97865800000000       -0.98205100000000
C           18.21349800000000       -2.40509200000000       -2.41479000000000
C           19.51318200000000       -1.91367300000000       -1.92114300000000
C           20.79286400000000       -2.41186700000000       -2.42126700000000
C           21.74861400000000       -1.77062800000000       -1.77715600000000
N           19.66680000000000       -1.00473500000000       -1.00832400000000
C           21.07808900000000       -0.85488800000000       -0.85763400000000
C           21.68681900000000       -0.00847500000000       -0.00753300000000
C           20.93900400000000        0.89745600000000        0.90220500000000
C           21.51040900000000        1.74444000000000        1.75280400000000
C           20.44831900000000        2.44179900000000        2.45320200000000
C           19.30196100000000        1.97567700000000        1.98511100000000
N           19.51443400000000        0.97905900000000        0.98418700000000
C           17.98666600000000        2.44608300000000        2.45769200000000
C           16.81979200000000        1.98866200000000        1.99836000000000
C           15.51197600000000        2.43796600000000        2.44984400000000
C           14.63094900000000        1.74333100000000        1.75223000000000
C           15.37785800000000        0.85454100000000        0.85935900000000
N           16.65920700000000        0.99132000000000        0.99657900000000
H           13.65399800000000       -0.10394100000000       -0.10327400000000
H           13.71989700000000       -1.97633500000000       -1.98402800000000
H           15.58847200000000       -3.22390200000000       -3.23718700000000
H           18.23319600000000       -3.16957600000000       -3.18263100000000
H           20.94374400000000       -3.16799800000000       -3.18056200000000
H           22.81028700000000       -1.91741200000000       -1.92435500000000
H           22.57004100000000        1.89669100000000        1.90569900000000
H           20.56812700000000        3.20090800000000        3.21561700000000
H           17.97003600000000        3.21097300000000        3.22598200000000
H           15.28823800000000        3.18504600000000        3.20031200000000
H           13.55529100000000        1.82628600000000        1.83572700000000
Cu          41.17097499999999       -0.06042200000000       -0.00494700000000
C           44.54463200000000        0.09473000000000       -0.01260500000000
C           43.87172600000000        1.24818100000000       -0.06991900000000
C           44.50042700000000        2.56528100000000       -0.13530500000000
C           43.53960400000000        3.47314200000000       -0.18041000000000
C           42.25648300000000        2.77427200000000       -0.14573800000000
N           42.45066799999999        1.36494600000000       -0.07575500000000
C           41.06824400000000        3.38420400000000       -0.17600900000000
C           39.76856000000000        2.68851400000000       -0.14142900000000
C           38.48887700000000        3.39357400000000       -0.17624300000000
C           37.53312699999999        2.48581100000000       -0.13114700000000
N           39.61494200000000        1.40191400000000       -0.07764700000000
C           38.20365300000000        1.18966900000000       -0.06698200000000
C           37.59492300000000       -0.00847500000000       -0.00753300000000
C           38.34273700000000       -1.29077800000000        0.05599200000000
C           37.77133300000000       -2.48968100000000        0.11542500000000
C           38.83342300000000       -3.47683300000000        0.16440500000000
C           39.97978100000000       -2.81705200000000        0.13171200000000
N           39.76730700000000       -1.40630700000000        0.06174100000000
C           41.29507600000000       -3.48302300000000        0.16484400000000
C           42.46195000000000       -2.83557300000000        0.13277800000000
C           43.76976500000000       -3.47173800000000        0.16450000000000
C           44.65079300000000       -2.48847400000000        0.11574600000000
C           43.90388399999999       -1.23020200000000        0.05316700000000
N           42.62253500000000       -1.42371600000000        0.06265900000000
H           45.62774300000000        0.12656700000000       -0.01413400000000
H           45.56184499999999        2.77718200000000       -0.14579300000000
H           43.69326899999999        4.54328800000000       -0.23353300000000
H           41.04854600000000        4.46639200000000       -0.22972200000000
H           38.33799699999999        4.46383200000000       -0.22925400000000
H           36.47145400000000        2.69344200000000       -0.14129000000000
H           36.71170099999999       -2.70518800000000        0.12610400000000
H           38.71361500000000       -4.55139300000000        0.21772100000000
H           41.31170600000000       -4.56581300000000        0.21861700000000
H           43.99350399999999       -4.52936100000000        0.21707100000000
H           45.72645000000000       -2.60602400000000        0.12170700000000
C           23.86073200000000       -0.00847500000000       -0.00753300000000
C           25.08265000000000       -0.00847500000000       -0.00753300000000
C           34.19909200000000       -0.00847500000000       -0.00753300000000
C           35.42101000000000       -0.00847500000000       -0.00753300000000
Cu          29.60662600000000       -0.03581800000000       -0.03185500000000
C           26.17317400000000        0.01840400000000        0.01635800000000
C           26.83970800000000        0.89183700000000        0.79358900000000
C           26.21539400000000        1.88382800000000        1.67627800000000
C           27.17376600000000        2.56239500000000        2.28015600000000
C           28.45497500000000        2.04216600000000        1.81728800000000
N           28.26288500000000        0.98658800000000        0.87797400000000
C           29.63736000000000        2.50721800000000        2.23116400000000
C           30.94703500000000        2.00403000000000        1.78343100000000
C           32.21367800000000        2.54895800000000        2.26844000000000
C           33.18585800000000        1.88352600000000        1.67627300000000
N           31.12301200000000        1.04458900000000        0.92957600000000
C           32.53822700000000        0.90586800000000        0.80617500000000
C           33.16727600000000        0.01840400000000        0.01635800000000
C           32.43735300000000       -0.94713200000000       -0.84294700000000
C           33.02409600000000       -1.83793100000000       -1.63582000000000
C           31.97402500000000       -2.58525600000000       -2.30082700000000
C           30.81984500000000       -2.10186600000000       -1.87049400000000
N           31.01415600000000       -1.04573500000000       -0.93056100000000
C           29.51476700000000       -2.61185000000000       -2.32416700000000
C           28.33558400000000       -2.14417900000000       -1.90791700000000
C           27.04847200000000       -2.64612600000000       -2.35444600000000
C           26.14190300000000       -1.93049100000000       -1.71765100000000
C           26.84959300000000       -0.96808400000000       -0.86139300000000
N           28.13709800000000       -1.09016700000000       -0.97009800000000
H           25.15802400000000        2.05455100000000        1.82814300000000
H           27.01850200000000        3.36272700000000        2.99232900000000
H           29.64376900000000        3.31688200000000        2.95165900000000
H           32.34482300000000        3.35137800000000        2.98255900000000
H           34.24366200000000        2.05291600000000        1.82706100000000
H           34.08640100000000       -1.98903200000000       -1.77039700000000
H           32.10661600000000       -3.38783600000000       -3.01510100000000
H           29.51629600000000       -3.42196500000000       -3.04502900000000
H           26.85397200000000       -3.44159500000000       -3.06221500000000
H           25.07254200000000       -2.05146500000000       -1.82522400000000
111
 energy: -203.910693382662 gnorm: 0.461563290357 xtb: 6.5.1 (b24c23e)
Cu          18.11557129953956        0.02551314333939        0.02662845390667
C           14.73801288668392       -0.07191836047893       -0.07117848753732
C           15.41572691791983       -0.89761111295449       -0.90058795217102
C           14.77982447835780       -1.82325275806964       -1.83031210036681
C           15.74707030683889       -2.46887719662326       -2.47883329835987
C           17.02296583728922       -1.97029266547559       -1.97808133051436
N           16.81638986003379       -0.98908994836191       -0.99252525436730
C           18.22697254607597       -2.40353190294501       -2.41322015598288
C           19.50709686348356       -1.92270323392954       -1.93021223468745
C           20.78469702958503       -2.41666536246852       -2.42608010784405
C           21.74958736504061       -1.76677106988314       -1.77328669745613
N           19.67797096296897       -1.00284217936572       -1.00642537436245
C           21.08707773259650       -0.85308378660402       -0.85580845746501
C           21.70154878636909        0.00018178816613        0.00113422676440
C           20.93871392946809        0.88746971472501        0.89216954996690
C           21.51223714266804        1.75710866813056        1.76552882175076
C           20.46755355141397        2.44304591831975        2.45445299643792
C           19.29070150881656        1.96837771942367        1.97778671230057
N           19.52263340373199        0.98310684941096        0.98825404615935
C           17.99891540594798        2.44105848839594        2.45264763841799
C           16.81828079883037        1.98768101737552        1.99737804586311
C           15.51634037336401        2.43783619967290        2.44971635457623
C           14.62378236976580        1.73731197568562        1.74618844150082
C           15.36256359260954        0.84939470410555        0.85419462648070
N           16.65856375728292        0.99820105268595        1.00348863370243
H           13.65446360976486       -0.10190701711175       -0.10122687789365
H           13.71964939502065       -1.97329342369202       -1.98096904888106
H           15.59283517431623       -3.22395075075482       -3.23723299728248
H           18.23630683681197       -3.16898825979863       -3.18203744145469
H           20.94006643703021       -3.16940282941109       -3.18197071686890
H           22.81014869174561       -1.91381491557101       -1.92076086125623
H           22.57085845973708        1.89855493690477        1.90757341292905
H           20.57170354688208        3.20091524827289        3.21562542839443
H           17.97464298694435        3.20893646333937        3.22393892049957
H           15.29251261874070        3.18454087065132        3.19980744017702
H           13.55317977866696        1.82365458936338        1.83308770051336
Cu          41.16627342710775       -0.05665046000617       -0.00513462897827
C           44.54370176303418        0.08131257630474       -0.01193504967321
C           43.86603280684216        1.25020871339372       -0.07001814672069
C           44.50194388317671        2.56054848090171       -0.13506671106959
C           43.53471353030376        3.47450419447206       -0.18047476856794
C           42.25884270028765        2.76864410496520       -0.14545377036237
N           42.46543661161573        1.37990483973929       -0.07648933643426
C           41.05468490765406        3.38195548052759       -0.17589302299504
C           39.77465420039007        2.70131828013863       -0.14207898709149
C           38.49693690211991        3.40038070177813       -0.17656754031244
C           37.53190425794411        2.48053511246280       -0.13087501426239
N           39.60367673185169        1.39931939044776       -0.07749980399362
C           38.19469533326087        1.18738192929576       -0.06681229699087
C           37.58188975761117       -0.02047433936695       -0.00683534934398
C           38.34305323826702       -1.27680991452901        0.05524584253252
C           37.76936201724845       -2.50775238457096        0.11631881849259
C           38.81410672181256       -3.47858924700923        0.16449061776482
C           39.99098590841925       -2.80668148135225        0.13120552729765
N           39.75905870781678       -1.41209423461366        0.06204385458374
C           41.28282140298349       -3.47587587377717        0.16449120284566
C           42.46349866295625       -2.83418802869844        0.13271028032544
C           43.76544510910774       -3.47158419152416        0.16449548036087
C           44.65798733535960       -2.48000764682623        0.11532974603013
C           43.91916729625984       -1.22298462232160        0.05281143178205
N           42.62333261493043       -1.43358615972960        0.06315162766886
H           45.62727099236903        0.12368865562197       -0.01398757934645
H           45.56210264506149        2.77288472889922       -0.14557619979234
H           43.68891222564014        4.54336459027089       -0.23353449809484
H           41.04541280941937        4.46554052337954       -0.22967781156069
H           38.34164974581305        4.46581756144297       -0.22934910257820
H           36.47140948259722        2.68834593542830       -0.14103195903697
H           36.71086232255368       -2.70781833780331        0.12622253956434
H           38.71002063658665       -4.55138917260551        0.21772039790042
H           41.30708731915937       -4.56291670742691        0.21847360159373
H           43.98923826789506       -4.52865880495029        0.21703852937525
H           45.72857286416762       -2.60231245447723        0.12152579554545
C           23.77329326759191       -0.00811239654517       -0.00719734677965
C           24.97024152800562       -0.01419249095238       -0.01260811881120
C           34.33799292209564       -0.01806175789322       -0.01593151606599
C           35.52506832884686       -0.00995817144804       -0.00876523426170
Cu          29.60908913061085       -0.03485896042752       -0.03097923840123
C           26.24888877125323        0.01047812781707        0.00929520762730
C           26.87033553716580        0.90277211858271        0.80332623706964
C           26.21512643664652        1.87802437323262        1.67111349724252
C           27.17983432555976        2.56403098160764        2.28161397655064
C           28.45340371749677        2.04007057043178        1.81542201963381
N           28.25567862617909        1.00067614440972        0.89049969717427
C           29.65072436227276        2.50738194748612        2.23130519080653
C           30.93794168836966        2.01831723420638        1.79617177185720
C           32.20351722711665        2.55534213731560        2.27410874159368
C           33.18329835382814        1.87762543364006        1.67098786506146
N           31.12236426783500        1.04827660706028        0.93284632916354
C           32.50288290981526        0.91866725629574        0.81750072859167
C           33.05798500356975        0.01285840335070        0.01130038715292
C           32.40398880399535       -0.94685926818784       -0.84266531568821
C           33.02281593873970       -1.85038862980673       -1.64689451557458
C           31.99228040265526       -2.58738703096266       -2.30272410159904
C           30.80664122300496       -2.09675935862178       -1.86594735364718
N           31.01251883082375       -1.05437546868128       -0.93825487678923
C           29.52687406967942       -2.60758511455992       -2.32037461504127
C           28.33541750134603       -2.14471086955462       -1.90838358784438
C           27.05334736534838       -2.64628807421110       -2.35459411734936
C           26.13582173267578       -1.92281079533352       -1.71081251346950
C           26.85421221842163       -0.96983869636555       -0.86296052962418
N           28.14451454804366       -1.10067551292643       -0.97945567031905
H           25.15765922099743        2.04960131912892        1.82374256362780
H           27.02264215584799        3.36283090819396        2.99242386544709
H           29.64652826204991        3.31689854835602        2.95167361376097
H           32.34141056044843        3.35317420973172        2.98415543753680
H           34.24261686613518        2.04771941111179        1.82243081689075
H           34.08624417833391       -1.98970899965207       -1.77097801699737
H           32.11044598001313       -3.38807567071934       -3.01531346579212
H           29.52061348156055       -3.42019212636331       -3.04345128124323
H           26.85798567014136       -3.44098597208348       -3.06167269946439
H           25.07050120351232       -2.04748267901402       -1.82166360407331
111
 energy: -204.066523641582 gnorm: 0.279409239627 xtb: 6.5.1 (b24c23e)
Cu          18.12699722265546        0.01858621260139        0.01972127775343
C           14.73934300870901       -0.06012724723124       -0.05934212843682
C           15.41886993019266       -0.89786695092129       -0.90085170778873
C           14.78016391789771       -1.81810593976161       -1.82514960493761
C           15.75533557749711       -2.46855904878633       -2.47852088516187
C           17.02327619405526       -1.96719802620578       -1.97497805517794
N           16.79574838230027       -1.00347801021761       -1.00697694784489
C           18.24693362272835       -2.39800019707836       -2.40767106825366
C           19.50710304428921       -1.93003992971254       -1.93759381429132
C           20.77691788732796       -2.42136894515517       -2.43080124292833
C           21.75015946076262       -1.76372347741675       -1.77024974991694
N           19.70690333276162       -0.99841237568732       -1.00199464420168
C           21.11197402054993       -0.84846030158496       -0.85112297192646
C           21.74691755978515        0.01239252597525        0.01351549898021
C           20.95639329707305        0.87868942769422        0.88334358592860
C           21.52019068266899        1.77368578537229        1.78217000852779
C           20.49558197368735        2.44143392762422        2.45282051660827
C           19.29223246331456        1.95629971896708        1.96565775937099
N           19.54762357851937        0.98411634032022        0.98925868947553
C           18.02291136212249        2.42706064658209        2.43858319450371
C           16.81885017590572        1.98288844100076        1.99255534030267
C           15.52141623808855        2.43262848836335        2.44447702877213
C           14.61391178094056        1.72939092428041        1.73822410278677
C           15.34204678500745        0.84436323721849        0.84913078196623
N           16.65421453919528        1.00530847289375        1.01060047624999
H           13.65588423437832       -0.09583199155817       -0.09513123098836
H           13.71964951883463       -1.96419390001288       -1.97183723689694
H           15.60642627533527       -3.22362291802090       -3.23691232080412
H           18.24759167085615       -3.16476454027458       -3.17779867950543
H           20.92972317117414       -3.17358040766295       -3.18617065802548
H           22.81029783715285       -1.90601603632385       -1.91300876476301
H           22.57799235651657        1.90702491765360        1.91608240700228
H           20.58279783565212        3.20012074611067        3.21481831171365
H           17.99448275996651        3.19746342525408        3.21240772757922
H           15.30536103567788        3.18070131823933        3.19594193628881
H           13.54518314632111        1.81664553681769        1.82603945436502
Cu          41.15484349283720       -0.04689373298844       -0.00561885030664
C           44.54236822581248        0.06463717004274       -0.01111000882094
C           43.86291026267917        1.25059590420583       -0.07004104524258
C           44.50162146549467        2.55329566895631       -0.13470911049438
C           43.52644110911110        3.47407966224284       -0.18045456067037
C           42.25850537579947        2.76424940839579       -0.14523763766803
N           42.48607941742707        1.40030641418144       -0.07748684651438
C           41.03463596620053        3.37404981739186       -0.17550823162730
C           39.77451994764881        2.71156633143431       -0.14258626806400
C           38.50450735273999        3.40689684625421       -0.17683831577874
C           37.53086072026816        2.47622260297579       -0.13060500947900
N           39.57436298052957        1.39289835524095       -0.07709371671071
C           38.16927036463136        1.18049510538933       -0.06644750758189
C           37.53500993537603       -0.03875369319266       -0.00645698820006
C           38.32529262083099       -1.26458333079882        0.05444296515548
C           37.76130711258525       -2.53140641403091        0.11742962958461
C           38.78604766263570       -3.47629514366153        0.16436601960906
C           39.98948662133310       -2.78956216740797        0.13037492272489
N           39.73402178761432       -1.41351669732517        0.06214237511996
C           41.25879220165039       -3.45603556993559        0.16350827475667
C           42.46294925685359       -2.82740359505821        0.13236783020010
C           43.76038689119144       -3.46423145115433        0.16412735894848
C           44.66789425118584       -2.46881248179816        0.11477109726738
C           43.93971774661352       -1.21587477405418        0.05245209646330
N           42.62769542368708       -1.44366450130380        0.06363930626026
H           45.62584129884697        0.11509800283087       -0.01356482978028
H           45.56212511433769        2.76003053044229       -0.14494310092400
H           43.67531792998912        4.54292853744301       -0.23351876390340
H           41.03409216836967        4.45950043375436       -0.22938583882755
H           38.35194791409681        4.47166432550167       -0.22963759002544
H           36.47073114812873        2.67732309973180       -0.14050402001993
H           36.70366706318692       -2.71987026826761        0.12677189680332
H           38.69892309366748       -4.55024731577940        0.21765700201347
H           41.28722746697780       -4.54664470254871        0.21765657264687
H           43.97639945260968       -4.52324573667527        0.21676471831073
H           45.73660526818391       -2.59240262145312        0.12102925064237
C           23.63921643260455        0.00219901867903        0.00289322610001
C           24.87284873173004       -0.01586513238168       -0.01399746316793
C           34.41677214086695       -0.03197494526223       -0.02741738330684
C           35.65361055020635       -0.02187216034176       -0.00823227141541
Cu          29.61188254463582       -0.03109032843559       -0.02757520318431
C           26.22185004959742       -0.00375417374576       -0.00339877225175
C           26.86686534409624        0.90384031903196        0.80427879667617
C           26.21459296358318        1.87211936518694        1.66586091038262
C           27.18703409981131        2.56422089664830        2.28178672798500
C           28.45340169837871        2.04025740633326        1.81558100478636
N           28.23410081500382        1.01851793393626        0.90635072517093
C           29.66676334235460        2.50905730940136        2.23279584113871
C           30.92946168497092        2.03685864562604        1.81270566232001
C           32.19217132593097        2.56428234395008        2.28203128653274
C           33.17604154504250        1.87524656225966        1.66879317841130
N           31.13380562901030        1.05461278387696        0.93840971676165
C           32.50508941584222        0.92049945938754        0.81881518737336
C           33.07689304857156       -0.00462186356410       -0.00465586174454
C           32.39628226564197       -0.94377608338173       -0.83998973235550
C           33.02298669700903       -1.86866275717009       -1.66304980471833
C           32.01691661221048       -2.58868766422762       -2.30384789203336
C           30.80053758878351       -2.09173858370287       -1.86147621713933
N           31.01946852495285       -1.06462391692557       -0.94739475883229
C           29.54804471022576       -2.59860693874234       -2.31239171194735
C           28.33674784547070       -2.14276306114655       -1.90664518376589
C           27.05792520028784       -2.64114121388156       -2.35002397672917
C           26.12602452730017       -1.91400869626694       -1.70296493192208
C           26.83216991876098       -0.96673363999034       -0.86022764345241
N           28.14301306736145       -1.11134746487668       -0.98896679198312
H           25.15719630464657        2.03772313684959        1.81317817255583
H           27.03509446878842        3.36291087913687        2.99250022817444
H           29.65419597300471        3.31834874496612        2.95296438163937
H           32.33185076687325        3.36044164576370        2.99062949503647
H           34.23643768815268        2.03689389961532        1.81277699413510
H           34.08673973974744       -1.99602155328103       -1.77651877814203
H           32.12212265386795       -3.38939509186479       -3.01647504103541
H           29.53789426314373       -3.41252890078838       -3.03663496582644
H           26.86978827284473       -3.43691527488606       -3.05805217265239
H           25.06300755765550       -2.03813277412335       -1.81327843976726
111
 energy: -204.179434814066 gnorm: 0.125334308205 xtb: 6.5.1 (b24c23e)
Cu          18.14802872442834        0.01105463432098        0.01212979330742
C           14.74187055567862       -0.04985757187444       -0.04903413741153
C           15.42219978419145       -0.90100613261871       -0.90400748601542
C           14.78102470540583       -1.81404543695421       -1.82107596065302
C           15.76376320513927       -2.46845443189786       -2.47841945335978
C           17.02116605006131       -1.96371802930763       -1.97148416167723
N           16.77607081893821       -1.01708808565328       -1.02064428131219
C           18.26858804493640       -2.38821499595338       -2.39785178048591
C           19.51110761598218       -1.93275194363096       -1.94030689297065
C           20.77225287715041       -2.42289121104770       -2.43232397204505
C           21.75295721221626       -1.76155722472922       -1.76809625831401
N           19.74596604132813       -0.98646517931220       -0.98992577835673
C           21.14351591501184       -0.84452794679403       -0.84713531372662
C           21.83131503931410        0.02378831604927        0.02483668954029
C           20.99116914580305        0.86721073670608        0.87173791697660
C           21.53432243272394        1.79250167453723        1.80105213758728
C           20.52851510674940        2.43894841666574        2.45031636666728
C           19.29880338872924        1.94027996777373        1.94957727885990
N           19.58871476134920        0.98235384834036        0.98749673410470
C           18.05276666848296        2.40777723860458        2.41921072449623
C           16.81946301074742        1.97443721433209        1.98406001458028
C           15.52851003124631        2.42624113096578        2.43805491984148
C           14.60791404960568        1.72304391653271        1.73184193132981
C           15.32264494202406        0.83973655417985        0.84447936055223
N           16.65456936482926        1.01266843216724        1.01799445131385
H           13.65791586847049       -0.09203596474878       -0.09132305122923
H           13.71982186542213       -1.95472197491669       -1.96233046553496
H           15.62166372635073       -3.22354366349921       -3.23684010817756
H           18.25958690663019       -3.15690013237957       -3.16990300437373
H           20.91945133062357       -3.17607190770209       -3.18868154021288
H           22.81317135353901       -1.89957645743755       -1.90665654647514
H           22.59272047402992        1.91683379050647        1.92593180169661
H           20.59230134533915        3.19938453206006        3.21406914121536
H           18.01949479751586        3.18046161940241        3.19532187412039
H           15.32078163160701        3.17574898094532        3.19095855370767
H           13.53882354107680        1.81033247251021        1.81968961075904
Cu          41.13387650375277       -0.03623170634552       -0.00616332877033
C           44.53982754319502        0.05008270462135       -0.01038662119984
C           43.85960218338555        1.25506110634159       -0.07025868004482
C           44.50077725757106        2.54758493412318       -0.13442571829574
C           43.51802599413714        3.47397187785550       -0.18044978215391
C           42.26060105572105        2.75937930473052       -0.14498521328036
N           42.50576746516439        1.41958388511018       -0.07843519867158
C           41.01296598380837        3.36024814873050       -0.17483583415610
C           39.77049031310659        2.71549779954517       -0.14280832013900
C           38.50894975029787        3.40899137673861       -0.17689337732655
C           37.52777575953568        2.47315181642104       -0.13032775655976