796
 energy: -1217.701194418025 gnorm: 0.000948685002 xtb: 6.5.1 (b24c23e)
C          134.68674529444903       -0.13306485888284       -0.01857027596592
C          135.30226206050699       -1.37727491127833       -0.06747407055434
C          134.66752854572363       -2.65056629200948       -0.11873656055233
C          135.64377241447193       -3.60631620630498       -0.15462097647441
C          136.90599866304748       -2.94700298353883       -0.12589279584232
N          136.64932389982218       -1.60635705229313       -0.07412941756852
C          138.16988813294512       -3.54160787489649       -0.14402809680449
C          138.19845379766974       -5.03294959615256       -0.20293537156085
C          138.21998691121772       -5.68121490368869       -1.44112090122270
C          138.21999648343549       -4.87465177504942       -2.71237173328216
C          138.24379998643889       -7.07031459948296       -1.48500268554509
C          138.24755395132789       -7.82243113851682       -0.31491260645386
C          138.25309025745310       -9.32610724543752       -0.37482088702277
C          138.22595435472041       -7.16672285826312        0.91177057034001
C          138.20189048785087       -5.77863843479958        0.97933577979808
C          138.18247657387516       -5.07665826633379        2.31106382364907
C          139.38778726439290       -2.86434298957448       -0.11344731696996
C          140.67592557276234       -3.53408292809127       -0.13041071297417
C          141.61171294406827       -2.56262578953232       -0.09435634137106
N          139.56194930243018       -1.51444891228125       -0.06710583484839
C          140.89304826917871       -1.30312179632936       -0.05633997875795
C          141.54054550376367       -0.05075487107805       -0.02260263488760
C          140.89923046634061        1.20174823118049        0.01332951575797
C          141.52793398088491        2.47503558921018        0.05212071326468
C          140.54773999528652        3.42791272118949        0.09025010024774
C          139.28966785744370        2.76351406508507        0.07518881379822
N          139.55426206069117        1.42007727370963        0.02724516067131
C          138.02716230258466        3.35819617600818        0.10525334598708
C          137.99461089294093        4.84909242550267        0.16396784152943
C          137.97350661723871        5.59433292306798       -1.01844254337238
C          137.98414100158809        4.89201342712199       -2.35007834197469
C          137.94261012943511        6.98228827559727       -0.95105434179386
C          137.93320922787220        7.63841985011831        0.27553598376801
C          137.87874030977540        9.14110450128383        0.33529784082351
C          137.95298132517266        6.88675387287023        1.44577617667297
C          137.98401328964874        5.49781595189001        1.40210225440398
C          138.00599445134813        4.69183864022521        2.67355011096259
C          136.80813571086827        2.67791621682554        0.08588270093534
C          135.51377632103998        3.34082254751945        0.11635282656597
C          134.58419026813473        2.36460590673251        0.08086753050105
C          135.31043628651804        1.10739446380535        0.02947115921378
N          136.64677672342538        1.33429611894103        0.03443465454665
H          133.60166149055772       -0.14011045714228       -0.01834544790861
H          133.59973463682593       -2.80119540212648       -0.12669268101667
H          135.51378348940088       -4.67581428532531       -0.19709897028778
H          137.36031902921809       -0.88352799125850       -0.04468171874342
H          137.32215077964270       -4.25615512903192       -2.76918133938554
H          138.25170050624254       -5.52499515814215       -3.58600092825997
H          139.08525904983395       -4.20972935783639       -2.73899082620759
H          138.26175831958597       -7.57312112523800       -2.44644494011219
H          137.22706624513134       -9.70156977999956       -0.37856014786471
H          138.74587369326471       -9.67724729743957       -1.28172121928718
H          138.76461337890578       -9.74742249932888        0.49095421798032
H          138.22999056840473       -7.74532530077254        1.82976851315124
H          137.28055817509053       -4.46886643074505        2.40623426017005
H          138.20730595394119       -5.79483430393038        3.13008181705645
H          139.04362700133140       -4.41202714770143        2.40148360468071
H          140.81549558276993       -4.60269627138721       -0.16510706245030
H          142.68558562607549       -2.66064454705744       -0.09343128992122
H          142.59482506712337        2.63032917752711        0.05158350143505
H          140.67443996894332        4.49789292273362        0.12606758843948
H          138.84601333520402        0.69392903105142        0.00742053665970
H          137.94475945498499        5.60966077650880       -3.16898628340519
H          138.88981841918721        4.29145003157444       -2.45478004631830
H          137.12742715101078        4.22045985538774       -2.43104512061969
H          137.92681515032911        7.56050454644648       -1.86916466924028
H          138.35705004822370        9.51172626271163        1.24221162429207
H          136.83851433749413        9.47515547635735        0.33911319189455
H          138.37294329713313        9.58252998371971       -0.53051314560342
H          137.94533496228615        7.38989343216103        2.40718241779374
H          137.97621191562939        5.34218761881034        3.54724579461683
H          137.14853085534222        4.01731497178577        2.70940836297975
H          138.91123031871194        4.08343289229636        2.72125669679502
H          135.36897108332332        4.40866263068125        0.15853840115833
H          133.50907238230636        2.45392854240999        0.08769957754905
C          286.39022306222262        0.08155022247983       -0.04240211844056
C          285.77324406992290        1.31788724786250       -0.18440909319635
C          286.40649984350648        2.58530742611609       -0.32355668419327
C          285.42915725151852        3.53391586193651       -0.43665122048508
C          284.16774358999942        2.87578273974809       -0.37070467490390
N          284.42593513881678        1.54315647160427       -0.21799936222368
C          282.90318720828941        3.46428430841127       -0.44830428326730
C          282.87323750240529        4.94725137503630       -0.61649144639082
C          282.87779964768055        5.50489638579573       -1.89813360785655
C          282.90688202215102        4.60909010839373       -3.10782122775824
C          282.85277815042252        6.88723263130606       -2.04216699822470
C          282.82239978513917        7.72134129537829       -0.92947485702868
C          282.81605745153200        9.21686743035214       -1.09685996728983
C          282.81816314080578        7.15540198100461        0.34132287442912
C          282.84276531647043        5.77587415261964        0.50889740274337
C          282.83420456225235        5.17145324564804        1.88774385743684
C          281.68608344839851        2.78836328747896       -0.38124117124740
C          280.39726125888672        3.45076461589841       -0.47185702620942
C          279.46257587384491        2.48348341395369       -0.36447493133920
N          281.51336593933553        1.44664810844817       -0.22318283320672
C          280.18265069960756        1.23403326160509       -0.20784777312868
C          279.53636168163553       -0.01016603034125       -0.05460841185048
C          280.17924815901461       -1.25271686639444        0.10251559503319
C          279.55199249779849       -2.51809162585752        0.25500179860503
C          280.53331405428156       -3.46411534025740        0.36622291022762
C          281.79058598081770       -2.80310054943828        0.28517349188480
N          281.52442514896273       -1.46836797269024        0.12747776237251
C          283.05379811275520       -3.39350040928322        0.35050129952520
C          283.08780259247038       -4.87601705999955        0.51854344755598
C          283.09627420284863       -5.70506802609658       -0.60693342454783
C          283.07086788969997       -5.10127385136133       -1.98586553470868
C          283.12832866958598       -7.08446235823822       -0.43946400242697
C          283.15115837381950       -7.64994593113955        0.83130737623643
C          283.20651940704914       -9.14441428959048        0.99891987204729
C          283.14389121552580       -6.81541002589255        1.94410576898075
C          283.11205222094446       -5.43323463323971        1.80021467296892
C          283.10358643967049       -4.53706772258254        3.00993509319699
C          284.27208445154724       -2.71630018611582        0.27113543681943
C          285.56719349612047       -3.37420920506830        0.34558218452462
C          286.49567469225735       -2.40238380270712        0.23657165024022
C          285.76800126417606       -1.15295055816929        0.09501605225375
N          284.43191144771640       -1.38006463686302        0.11955801181507
H          287.47529031867839        0.09025110021898       -0.03949482200201
H          287.47409756994495        2.73715481525474       -0.33399826910571
H          285.55793026911368        4.59776085545954       -0.55571009394355
H          283.71578216453258        0.82302354759753       -0.14083725193118
H          283.81095425095208        3.99705668094539       -3.10476416988196
H          282.88508532577879        5.19462508831168       -4.02643720119165
H          282.04804344074358        3.93542315503243       -3.10107217066360
H          282.85499721749926        7.31967405073664       -3.03740482147910
H          283.84116425189353        9.59483872725746       -1.09886875797239
H          282.34813745282838        9.50069199107733       -2.03976526033855
H          282.27993682475818        9.69695807440950       -0.27780920343127
H          282.79334428484100        7.79838724250105        1.21508970918820
H          283.73080041905911        4.56823738329736        2.04307156844552
H          282.79828912169637        5.94679423789791        2.65242448504689
H          281.96783336554705        4.51873284878281        2.00971037848937
H          280.25650675991238        4.51204056333956       -0.60031481547854
H          278.38861201639594        2.57836787142176       -0.38515558291083
H          278.48528071142061       -2.67331181632108        0.27481549552547
H          280.40781313878233       -4.52727615746310        0.49321693590320
H          282.23184865566600       -0.74646195510305        0.03970244348595
H          283.10444929715561       -5.87640221085942       -2.75087012390709
H          282.16242674287969       -4.51197037176968       -2.12503802144450
H          283.92475021039610       -4.43543083226641       -2.12378313785584
H          283.13434518277427       -7.72772060019123       -1.31336099842113
H          282.74108434880543       -9.44803520315171        1.93689456263662
H          284.24669845891992       -9.47836732075642        1.01211245035440
H          282.70012855137304       -9.64677101970464        0.17432894417465
H          283.16201751433636       -7.24753519229741        2.93931595999635
H          283.14037872655405       -5.12234883076523        3.92823243309811
H          283.96269450710673       -3.86400969678962        2.98874218460549
H          282.20006056575630       -3.92439382468263        3.02168698507052
H          285.71320444440943       -4.43599370596745        0.46526941057626
H          287.57089770992019       -2.49006612991740        0.24701390392176
C          146.74303978879041       -0.01768646554632       -0.03601329205758
C          145.51452001340198       -0.02096597224674       -0.03139833919976
C          144.16995402127316       -0.02704132162536       -0.02830256704225
C          142.94594665133747       -0.03780984520369       -0.02533309484355
C          148.08746836139193       -0.01815342757299       -0.03923690820629
C          149.31170306239187       -0.01880411015985       -0.04399924565596
C          162.84122635170567       -0.06171391712610       -0.06690650253158
C          161.61190202986214       -0.06311230219488       -0.06633261988181
C          160.26859639074391       -0.05706608543436       -0.06737471521518
C          159.04371605911996       -0.05666272163367       -0.06427651323858
C          164.18452082687929       -0.06436218838004       -0.06712483775040
C          165.40942977847399       -0.06421036202786       -0.06921935259001
C          178.94272787750961       -0.06432486501301       -0.06996608065620
C          177.71333942641024       -0.06500404246612       -0.06996369299179
C          176.37000397027893       -0.06475800356854       -0.07085557619972
C          175.14502658671930       -0.06657214094870       -0.06973682467934
C          180.28606350472779       -0.06495584322344       -0.06928170141058
C          181.51104085269532       -0.06333414763758       -0.07029684260227
C          195.04733113420650       -0.06349963243765       -0.06814939335042
C          193.81792225935951       -0.06404150158211       -0.06811698459287
C          192.47450195829705       -0.06081213450141       -0.06888933205346
C          191.24948303089874       -0.06406453438956       -0.06812431860327
C          196.39073630620990       -0.06340872517918       -0.06844581589129
C          197.61574926419397       -0.06173811333642       -0.06861560646376
C          211.15354685273280       -0.06323995206253       -0.06918902328225
C          209.92412423597094       -0.06420398671261       -0.06874258884930
C          208.58070933559623       -0.06400877058898       -0.06934285456850
C          207.35569232348936       -0.06526071352089       -0.06842812030134
C          212.49696833066903       -0.06466896167362       -0.06877083411833
C          213.72198647812712       -0.06326635768957       -0.06967467070259
C          227.25977048484449       -0.06368088958610       -0.06950869234973
C          226.03037151717174       -0.06487603246113       -0.06938657042419
C          224.68697385068987       -0.06456891461933       -0.07023114824956
C          223.46196465341626       -0.06598530057081       -0.06944054809206
C          228.60316994918639       -0.06551169619105       -0.06909648125638
C          229.82818071622273       -0.06449211742349       -0.07042012209348
C          243.36436289740243       -0.06617932682628       -0.07113524506794
C          242.13496751401738       -0.06554988115024       -0.07028876579361
C          240.79162903805286       -0.06539390103130       -0.07086971542511
C          239.56665168109416       -0.06668375551019       -0.06969288039344
C          244.70769643384949       -0.06726832251310       -0.07139004600482
C          245.93268024542536       -0.06659394306743       -0.07250691673059
C          259.46575994306266       -0.09076397902531       -0.08386039557491
C          258.23645453193802       -0.08924044309998       -0.08149561007187
C          256.89317987097650       -0.08568489012365       -0.07906151327915
C          255.66826735582345       -0.08463460074641       -0.07810288676961
C          260.80905230412822       -0.09349710271562       -0.08299725580361
C          262.03394558289182       -0.09415620349659       -0.08564377717327
C          275.56295163215088       -0.05476445252629       -0.05823557355650
C          274.33431522350702       -0.06709624910631       -0.06446281535970
C          272.99022793160560       -0.07512059054299       -0.06958140300510
C          271.76588359522617       -0.08396781770581       -0.07192919934173
C          276.90727342128628       -0.04351617988259       -0.06284109815335
C          278.13138031450325       -0.02545783378756       -0.05722720584870
C          150.71615338528545       -0.02559864962046       -0.04642601469812
C          151.34636856914636       -0.97588266803206        0.78008830464601
C          150.71056753901709       -1.92708785252358        1.61970323886145
C          151.68683993013050       -2.64608800624975        2.25424647210373
C          152.94718200225319       -2.15306925811707        1.81866018445997
N          152.69044609125470       -1.14568153010831        0.92769388701679
C          154.20663664427602       -2.60536232621343        2.22291218661343
C          154.21386793500378       -3.71932461795354        3.21712170759952
C          154.21651932688070       -5.04658270337525        2.77808703226402
C          154.21715865680704       -5.35090428734373        1.30367295164276
C          154.21817304483980       -6.07505620743847        3.71270647165488
C          154.21620031552678       -5.80162917087021        5.07696071146977
C          154.23647981765853       -6.92633943268482        6.07652281551309
C          154.21552876856572       -4.47753262348144        5.50212780142311
C          154.21376983435260       -3.43272855149229        4.58505655260900
C          154.21139713735175       -2.00211395952247        5.05398976470191
C          155.43592022606626       -2.11573524578940        1.78804552062341
C          156.71077751359104       -2.63368457658050        2.25130770733651
C          157.66565545544205       -1.92325703735868        1.61525659142422
N          155.63673611071704       -1.11127865960647        0.88997862058438
C          156.97162678115427       -0.97457944132945        0.76646171057725
C          157.64055168987650       -0.05120838439088       -0.06413212514033
C          157.00963958516593        0.88726000550877       -0.90441240195646
C          157.64514197760130        1.82742603475633       -1.75652957692769
C          156.66870462012693        2.54440570357585       -2.39317266437760
C          155.40847671494123        2.06153558404143       -1.94601522626404
N          155.66578455444287        1.06022674283978       -1.04786267844225
C          154.14923632768753        2.52058253449855       -2.34210221986354
C          154.13988072310372        3.62976861234266       -3.34156739489886
C          154.11869336657239        3.33599864674958       -4.70788852531511
C          154.10329691676918        1.90296746237010       -5.16909484058892
C          154.10912858919076        4.37593829053124       -5.63030306502530
C          154.11912350668868        5.70232541812888       -5.21215175833253
C          154.12758395783820        6.82105033485501       -6.21857810352898
C          154.14058633184743        5.98286384489820       -3.84960279275372
C          154.15055894949353        4.95923703857142       -2.90961640230645
C          154.16943766291982        5.27130981547861       -1.43693301065217
C          152.91978487472278        2.04144008386747       -1.89483247978581
C          151.64492170501680        2.57026998393301       -2.34589611648041
C          150.69015316439010        1.86397624328539       -1.70518409766817
C          151.38412401453294        0.90620026511212       -0.86674034497575
N          152.71956174631467        1.03607408803617       -0.99862815668424
H          149.64293837644732       -2.03879103401772        1.71941962339447
H          151.55398175398906       -3.44774863989388        2.96259054067699
H          153.39927588116151       -0.60148347251017        0.44750985251898
H          153.32455294358559       -4.93688840897013        0.83064335619365
H          155.08820181872625       -4.90043061308203        0.82427340666497
H          154.23820094429877       -6.42604038113453        1.12822829107853
H          154.21926442694399       -7.10533792957704        3.37211039708767
H          153.82879801306186       -6.60352781941806        7.03461683894171
H          153.65732948993625       -7.77648026929184        5.71469023749988
H          155.26369074977541       -7.26121313658138        6.23851912384016
H          154.21455162176883       -4.25432308758074        6.56402890390208
H          153.31829457695707       -1.48688039427504        4.69506530168459
H          154.23108319961500       -1.94920955942058        6.14208762311225
H          155.08196186159918       -1.47332394870884        4.66160225244369
H          156.82958830575151       -3.43235904321796        2.96583787409326
H          158.73747070206142       -2.01174739409369        1.69394500143811
H          158.71271626552425        1.93391032658158       -1.86238569860941
H          156.80124149824991        3.33878757885862       -3.10974721675419
H          154.95715284239216        0.52357159206198       -0.55896685143057
H          154.07385804542145        1.84447500813182       -6.25668423957747
H          153.23082803477723        1.38491615108728       -4.76666727638053
H          154.99419589492862        1.38084338147158       -4.81477395141182
H          154.09121233341281        4.14727486278452       -6.69089148068400
H          153.68178568446268        6.50079568747987       -7.16044763076702
H          155.15516250997823        7.13441856122389       -6.41733769743028
H          153.57764780656973        7.68445694202123       -5.84302917545072
H          154.14727706983354        7.01487285954607       -3.51434954971193
H          155.06501917681993        4.85419651081917       -0.97235409457849
H          154.15713153479538        6.34746605598541       -1.26699252788969
H          153.30136997548908        4.82886034524905       -0.94479160580695
H          151.52590365043716        3.37271630695292       -3.05613231046878
H          149.61838421029475        1.95990177407454       -1.77525392783584
C          166.81251024770771       -0.06656816727968       -0.06854269874747
C          167.44568232791966       -0.99371107646615        0.78270051714782
C          166.81280800568831       -1.92872507880939        1.64205490974730
C          167.79143119301375       -2.63378263389957        2.28887388891186
C          169.05015017848942       -2.14766064193897        1.84142115064009
N          168.79011085108166       -1.15744675592003        0.93210189531332
C          170.31090937271134       -2.59296048931974        2.24965678139184
C          170.32068155062433       -3.69283081878132        3.25944372502804
C          170.32136070282328       -5.02599781056121        2.83859256611186
C          170.31695907132683       -5.35056412494028        1.36850279898531
C          170.32593912186329       -6.04155453914454        3.78719335318991
C          170.32880135949867       -5.74946747962254        5.14758122490752
C          170.35230555747071       -6.86049214131724        6.16224938606193
C          170.32999020673702       -4.41967771827093        5.55456540484088
C          170.32543189569245       -3.38750618811007        4.62328946244944
C          170.32537288839688       -1.95058840336755        5.07250516492813
C          171.53950721178066       -2.10978562452043        1.80565389145691
C          172.81493620738573       -2.62100717437437        2.27475210031099
C          173.76911390784181       -1.91797018866489        1.62945273357688
N          171.73933838288957       -1.11707486461928        0.89433935562149
C          173.07415953108233       -0.98063193922257        0.76906606148902
C          173.74190588362990       -0.06523243771829       -0.07135575078224
C          173.10860019487180        0.86158678920146       -0.92296943460987
C          173.74136683058163        1.79682830436249       -1.78225162099436
C          172.76270932855076        2.50107065705834       -2.42987360154073
C          171.50398596783697        2.01437794695603       -1.98301381418212
N          171.76417850727321        1.02454582230558       -1.07315492370581
C          170.24330891813136        2.45892854096088       -2.39193762302838
C          170.23230533294964        3.55789491082197       -3.40268196766606
C          170.22800230866227        3.25125334769153       -4.76629322949205
C          170.23212973556357        1.81390412360333       -5.21410965129470
C          170.21700676347319        4.28247036273752       -5.69845827638980
C          170.20912312879940        5.61271293500335       -5.29267329152941
C          170.21639403732746        6.72214159534445       -6.30933712022039
C          170.21385718195521        5.90607173708482       -3.93267093374193
C          170.22483050411523        4.89137489315255       -2.98309041618598
C          170.22557457329572        5.21732933405744       -1.51330336796883
C          169.01463387662579        1.97592362903474       -1.94762372586067
C          167.73919271510380        2.48683913491554       -2.41702121924652
C          166.78505824358103        1.78470050931146       -1.77067742938536
C          167.48009029809685        0.84807917460857       -0.90967470894344
N          168.81498267948783        0.98414304317722       -1.03546047396151
H          165.74553223134663       -2.04041458059759        1.74548837923130
H          167.66094497030471       -3.42177192182590        3.01282108363377
H          169.49697155142357       -0.62174661423329        0.43958901681693
H          169.42235615043870       -4.94373131625746        0.89301526240933
H          171.18595282260904       -4.90615975561419        0.87981082604042
H          170.33814303354058       -6.42799997953371        1.20781018439848
H          170.32560474641366       -7.07640131781369        3.46073471151811
H          169.95022195441865       -6.52395871551296        7.11797635740369
H          169.76975244704090       -7.71438783386882        5.81500312947360
H          171.37974535866962       -7.19507250749271        6.32338069871851
H          170.33279281740977       -4.18193534145309        6.61329969509569
H          169.43217927009454       -1.43936467575743        4.70813765359373
H          170.34715138159044       -1.88274893455465        6.15972961356431
H          171.19579700781102       -1.42821571974178        4.67129460971707
H          172.93468039822764       -3.41047656798537        2.99927785866398
H          174.84101731293052       -2.00463254828778        1.70893844583277
H          174.80863063303585        1.90916784363790       -1.88510164571257
H          172.89302567415498        3.28900777302101       -3.15392361510857
H          171.05733642367784        0.48862777482302       -0.58084675019320
H          170.21051210212656        1.74494814710119       -6.30126736165384
H          169.36315554062517        1.28947937732501       -4.81239715988057
H          171.12673708825531        1.30554713899284       -4.84923917604527
H          170.21216569164073        4.04382580936046       -6.75698382574140
H          169.78215217422411        6.38911005379219       -7.25217215726345
H          171.24281078364726        7.04319471115661       -6.50173267334505
H          169.65515233587163        7.58382012113528       -5.94677602632418
H          170.20656751945248        6.94114889430966       -3.60703578885853
H          171.11888830567565        4.81088584508578       -1.03512056228759
H          170.20388015752184        6.29491199155524       -1.35367201017245
H          169.35526515548310        4.77342850675046       -1.02644444824400
H          167.61925078967911        3.27545461417441       -3.14242529251211
H          165.71315141108335        1.87145864555607       -1.84997112975779
C          182.91415274575863       -0.06484485360509       -0.06882435593426
C          183.54767182140182       -0.99130670337237        0.78300407451379
C          182.91534755811074       -1.92632632599844        1.64274254743702
C          183.89438956670173       -2.63051491038369        2.28987139508049
C          185.15288348561384       -2.14392060076245        1.84221302361317
N          184.89221335715965       -1.15418836664968        0.93250488798961
C          186.41373876979222       -2.58880799111148        2.25061140445243
C          186.42360012554124       -3.68839203203780        3.26074607381047
C          186.42495123159102       -5.02166553094866        2.84025008564482
C          186.42091120018159       -5.34662932116572        1.37024681046440
C          186.43000079654493       -6.03696892296839        3.78912959269602
C          186.43270651615313       -5.74451552500311        5.14942609433279
C          186.45693461699702       -6.85515907109627        6.16448775441290
C          186.43321233820890       -4.41460272969317        5.55605556269389
C          186.42817401540427       -3.38268624941078        4.62451328448277
C          186.42755929740810       -1.94564546079890        5.07333608339424
C          187.64260523418872       -2.10609414895306        1.80669637021751
C          188.91770758687187       -2.61771510118335        2.27632664685284
C          189.87240522980863       -1.91533449773663        1.63107153772519
N          187.84316200833587       -1.11383082426151        0.89511321690992
C          189.17813572467497       -0.97803749715525        0.77015381541840
C          189.84632050100458       -0.06308398242669       -0.07040798007098
C          189.21274627110600        0.86364111118614       -0.92196041469582
C          189.84499442448674        1.79908922742003       -1.78133879002786
C          188.86591987175117        2.50309572411600       -2.42861069061488
C          187.60743085414242        2.01607886197848       -1.98138712121176
N          187.86819374994116        1.02628782555124       -1.07169108169236
C          186.34660838925191        2.46051777568177       -2.39022931207161
C          186.33610179331029        3.55965099528476       -3.40084988980659
C          186.33238888661501        3.25319780407221       -4.76451165499655
C          186.33620306433426        1.81590960120458       -5.21252723360242