      -----------------------------------------------------------      
     |                   =====================                   |     
     |                           x T B                           |     
     |                   =====================                   |     
     |                         S. Grimme                         |     
     |          Mulliken Center for Theoretical Chemistry        |     
     |                    University of Bonn                     |     
      -----------------------------------------------------------      

   * xtb version 6.5.1 (b24c23e) compiled by 'conda@728c89f4b128' on 2022-07-12

   xtb is free software: you can redistribute it and/or modify it under
   the terms of the GNU Lesser General Public License as published by
   the Free Software Foundation, either version 3 of the License, or
   (at your option) any later version.
   
   xtb is distributed in the hope that it will be useful,
   but WITHOUT ANY WARRANTY; without even the implied warranty of
   MERCHANTABILITY or FITNESS FOR A PARTICULAR PURPOSE.  See the
   GNU Lesser General Public License for more details.
   
   Cite this work as:
   * C. Bannwarth, E. Caldeweyher, S. Ehlert, A. Hansen, P. Pracht,
     J. Seibert, S. Spicher, S. Grimme, WIREs Comput. Mol. Sci., 2020, 11,
     e01493. DOI: 10.1002/wcms.1493
   
   for GFN2-xTB:
   * C. Bannwarth, S. Ehlert and S. Grimme., J. Chem. Theory Comput., 2019,
     15, 1652-1671. DOI: 10.1021/acs.jctc.8b01176
   for GFN1-xTB:
   * S. Grimme, C. Bannwarth, P. Shushkov, J. Chem. Theory Comput., 2017,
     13, 1989-2009. DOI: 10.1021/acs.jctc.7b00118
   for GFN0-xTB:
   * P. Pracht, E. Caldeweyher, S. Ehlert, S. Grimme, ChemRxiv, 2019, preprint.
     DOI: 10.26434/chemrxiv.8326202.v1
   for GFN-FF:
   * S. Spicher and S. Grimme, Angew. Chem. Int. Ed., 2020, 59, 15665-15673.
     DOI: 10.1002/anie.202004239
   
   for ALPB and GBSA implicit solvation:
   * S. Ehlert, M. Stahn, S. Spicher, S. Grimme, J. Chem. Theory Comput.,
     2021, 17, 4250-4261. DOI: 10.1021/acs.jctc.1c00471
   
   for DFT-D4:
   * E. Caldeweyher, C. Bannwarth and S. Grimme, J. Chem. Phys., 2017,
     147, 034112. DOI: 10.1063/1.4993215
   * E. Caldeweyher, S. Ehlert, A. Hansen, H. Neugebauer, S. Spicher,
     C. Bannwarth and S. Grimme, J. Chem. Phys., 2019, 150, 154122.
     DOI: 10.1063/1.5090222
   * E. Caldeweyher, J.-M. Mewes, S. Ehlert and S. Grimme, Phys. Chem. Chem. Phys.
     2020, 22, 8499-8512. DOI: 10.1039/D0CP00502A
   
   for sTDA-xTB:
   * S. Grimme and C. Bannwarth, J. Chem. Phys., 2016, 145, 054103.
     DOI: 10.1063/1.4959605
   
   in the mass-spec context:
   * V. Asgeirsson, C. Bauer and S. Grimme, Chem. Sci., 2017, 8, 4879.
     DOI: 10.1039/c7sc00601b
   * J. Koopman and S. Grimme, ACS Omega 2019, 4, 12, 15120-15133.
     DOI: 10.1021/acsomega.9b02011
   
   for metadynamics refer to:
   * S. Grimme, J. Chem. Theory Comput., 2019, 155, 2847-2862
     DOI: 10.1021/acs.jctc.9b00143
   
   for SPH calculations refer to:
   * S. Spicher and S. Grimme, J. Chem. Theory Comput., 2021, 17, 1701-1714
     DOI: 10.1021/acs.jctc.0c01306
   
   with help from (in alphabetical order)
   P. Atkinson, C. Bannwarth, F. Bohle, G. Brandenburg, E. Caldeweyher
   M. Checinski, S. Dohm, S. Ehlert, S. Ehrlich, I. Gerasimov, C. Hölzer
   A. Katbashev, J. Koopman, C. Lavigne, S. Lehtola, F. März, M. Müller,
   F. Musil, H. Neugebauer, J. Pisarek, C. Plett, P. Pracht, F. Pultar,
   J. Seibert, P. Shushkov, S. Spicher, M. Stahn, M. Steiner, T. Strunk,
   J. Stückrath, T. Rose, and J. Unsleber
   
 * started run on 2022/07/31 at 23:12:46.440     

           -------------------------------------------------
          |                Calculation Setup                |
           -------------------------------------------------

          program call               : xtb BSA_C4_2.xyz --gfn 1 --opt -T 48
          hostname                   : cx3-15-19.cx3.hpc.ic.ac.uk
          coordinate file            : BSA_C4_2.xyz
          omp threads                :                     1

   ID    Z sym.   atoms
    1    6 C      1-5, 7-11, 16-20, 22-27, 29-33, 38-43, 66-70, 72-76, 81-85,
                  87-92, 94-98, 103-108, 131-134
    2    7 N      6, 21, 28, 44, 71, 86, 93, 109
    3   16 S      12, 34, 77, 99
    4    8 O      13-15, 35-37, 78-80, 100-102
    5    1 H      45-65, 110-130
########################################################################
[WARNING] Please study the warnings concerning your input carefully
-1- prog_main_parseArguments: Unknown option '-T' provided
########################################################################

           -------------------------------------------------
          |                 G F N 1 - x T B                 |
           -------------------------------------------------

        Reference                      10.1021/acs.jctc.7b00118
      * Hamiltonian:
        H0-scaling (s, p, d)           1.850000    2.250000    2.000000
        zeta-weighting                 0.000000
      * Dispersion:
        s8                             2.400000
        a1                             0.630000
        a2                             5.000000
        s9                             0.000000
      * Repulsion:
        kExp                           1.500000
        rExp                           1.000000
      * Coulomb:
        alpha                          2.000000
        third order                    atomic
        anisotropic                    false
      * Halogen bond correction:
        rad-scale                      1.300000
        damping                        0.440000


          ...................................................
          :                      SETUP                      :
          :.................................................:
          :  # basis functions                 476          :
          :  # atomic orbitals                 472          :
          :  # shells                          272          :
          :  # electrons                       450          :
          :  # halogen bonds                     0          :
          :  max. iterations                   250          :
          :  Hamiltonian                  GFN1-xTB          :
          :  restarted?                      false          :
          :  GBSA solvation                  false          :
          :  PC potential                    false          :
          :  electronic temp.          300.0000000     K    :
          :  accuracy                    1.0000000          :
          :  -> integral cutoff          0.2500000E+02      :
          :  -> integral neglect         0.1000000E-07      :
          :  -> SCF convergence          0.1000000E-05 Eh   :
          :  -> wf. convergence          0.2000000E-04 e    :
          :  Broyden damping             0.4000000          :
          ...................................................

 iter      E             dE          RMSdq      gap      omega  full diag
   1   -265.2204188 -0.265220E+03  0.101E+01    0.10       0.0  T
   2   -265.1399752  0.804437E-01  0.623E+00    0.12       1.0  T
   3   -260.4054249  0.473455E+01  0.834E+00    0.01       1.0  T
   4   -264.3457074 -0.394028E+01  0.172E+00    0.48       1.0  T
   5   -265.2026036 -0.856896E+00  0.113E+00    0.66       1.0  T
   6   -265.4336058 -0.231002E+00  0.834E-01    0.59       1.0  T
   7   -265.5427964 -0.109191E+00  0.722E-01    0.28       1.0  T
   8   -265.6518603 -0.109064E+00  0.522E-01    0.16       1.0  T
   9   -265.6417658  0.100945E-01  0.532E-01    0.17       1.0  T
  10   -265.7215130 -0.797473E-01  0.321E-01    0.14       1.0  T
  11   -265.7420959 -0.205828E-01  0.227E-01    0.13       1.0  T
  12   -265.7252043  0.168915E-01  0.274E-01    0.13       1.0  T
  13   -265.7710464 -0.458420E-01  0.272E-02    0.11       1.0  T
  14   -265.7712557 -0.209335E-03  0.113E-02    0.11       1.0  T
  15   -265.7712974 -0.416696E-04  0.354E-03    0.11       2.4  T
  16   -265.7712968  0.580393E-06  0.311E-03    0.11       2.8  T
  17   -265.7712996 -0.279688E-05  0.201E-03    0.11       4.3  T
  18   -265.7712986  0.977153E-06  0.211E-03    0.11       4.1  T
  19   -265.7713013 -0.271495E-05  0.272E-04    0.11      31.8  T
  20   -265.7713013  0.192753E-07  0.315E-04    0.11      27.5  T
  21   -265.7713013 -0.350674E-07  0.207E-04    0.11      41.6  T
  22   -265.7713014 -0.255179E-07  0.512E-05    0.11     168.7  T
  23   -265.7713014 -0.157974E-08  0.569E-06    0.11    1518.8  T

   *** convergence criteria satisfied after 23 iterations ***

         #    Occupation            Energy/Eh            Energy/eV
      -------------------------------------------------------------
         1        2.0000           -1.0413905             -28.3377
       ...           ...                  ...                  ...
       219        2.0000           -0.4316759             -11.7465
       220        2.0000           -0.4313927             -11.7388
       221        2.0000           -0.4266660             -11.6102
       222        2.0000           -0.4256325             -11.5820
       223        2.0000           -0.4186182             -11.3912
       224        2.0000           -0.4007856             -10.9059
       225        1.7791           -0.3868929             -10.5279 (HOMO)
       226        0.2209           -0.3829295             -10.4200 (LUMO)
       227                         -0.3599076              -9.7936
       228                         -0.3518030              -9.5730
       229                         -0.3264977              -8.8845
       230                         -0.3237569              -8.8099
       ...                                ...                  ...
       472                          2.8761554              78.2642
      -------------------------------------------------------------
                  HL-Gap            0.0039635 Eh            0.1079 eV
             Fermi-level           -0.3849112 Eh          -10.4740 eV

 SCC (total)                   0 d,  0 h,  0 min,  1.334 sec
 SCC setup                      ...        0 min,  0.005 sec (  0.341%)
 Dispersion                     ...        0 min,  0.003 sec (  0.237%)
 classical contributions        ...        0 min,  0.001 sec (  0.099%)
 integral evaluation            ...        0 min,  0.102 sec (  7.632%)
 iterations                     ...        0 min,  0.950 sec ( 71.177%)
 molecular gradient             ...        0 min,  0.265 sec ( 19.850%)
 printout                       ...        0 min,  0.009 sec (  0.663%)

         :::::::::::::::::::::::::::::::::::::::::::::::::::::
         ::                     SUMMARY                     ::
         :::::::::::::::::::::::::::::::::::::::::::::::::::::
         :: total energy            -262.009704955293 Eh    ::
         :: gradient norm              1.541551194043 Eh/a0 ::
         :: HOMO-LUMO gap              0.107851369935 eV    ::
         ::.................................................::
         :: SCC energy              -265.771301376179 Eh    ::
         :: -> electrostatic           0.499460662403 Eh    ::
         :: repulsion energy           3.875010199725 Eh    ::
         :: dispersion energy         -0.113413778840 Eh    ::
         :: halogen bond corr.         0.000000000000 Eh    ::
         :: add. restraining           0.000000000000 Eh    ::
         :: total charge               0.000000000000 e     ::
         :::::::::::::::::::::::::::::::::::::::::::::::::::::

      ----------------------------------------------------------- 
     |                   =====================                   |
     |                        A N C O P T                        |
     |                   =====================                   |
     |               Approximate Normal Coordinate               |
     |                Rational Function Optimizer                |
      ----------------------------------------------------------- 

          ...................................................
          :                      SETUP                      :
          :.................................................:
          :   optimization level            normal          :
          :   max. optcycles                   402          :
          :   ANC micro-cycles                  20          :
          :   degrees of freedom               396          :
          :.................................................:
          :   RF solver                   davidson          :
          :   write xtbopt.log                true          :
          :   linear?                        false          :
          :   energy convergence         0.5000000E-05 Eh   :
          :   grad. convergence          0.1000000E-02 Eh/α :
          :   maximium RF displ.         1.0000000          :
          :   Hlow (freq-cutoff)         0.1000000E-01      :
          :   Hmax (freq-cutoff)         5.0000000          :
          :   S6 in model hess.         20.0000000          :
          ...................................................

generating ANC from model Hessian ...
Using Lindh-Hessian (1995)
 Shifting diagonal of input Hessian by    1.0004942551208032E-002
 Lowest  eigenvalues of input Hessian
    0.010000    0.010003    0.000000    0.000000    0.000000    0.000000
    0.000000    0.000000    0.010009    0.010043    0.010076    0.010093
    0.010114    0.010128    0.010162    0.010293    0.010374    0.010378
 Highest eigenvalues
    3.304559    3.407738    3.503282    3.503283    3.503809    3.503811


........................................................................
.............................. CYCLE    1 ..............................
........................................................................
   1   -265.7713014 -0.265771E+03  0.182E-06    0.11       0.0  T
   2   -265.7713014  0.257899E-09  0.202E-05    0.11     427.8  T
   3   -265.7713014 -0.238629E-09  0.549E-06    0.11    1574.7  T
     SCC iter.                  ...        0 min,  0.127 sec
     gradient                   ...        0 min,  0.262 sec
 * total energy  :  -262.0097050 Eh     change        0.3979039E-11 Eh
   gradient norm :     1.5415513 Eh/α   predicted     0.0000000E+00 (-100.00%)
   displ. norm   :     0.4763342 α      lambda       -0.6842805E+00
   maximum displ.:     0.3360189 α      in ANC's #392, #360, #334, ...

........................................................................
.............................. CYCLE    2 ..............................
........................................................................
   1   -265.8314941 -0.265831E+03  0.216E-01    0.34       0.0  T
   2   -265.8318782 -0.384117E-03  0.175E-01    0.30       1.0  T
   3   -265.8380493 -0.617113E-02  0.822E-02    0.31       1.0  T
   4   -265.8346514  0.339787E-02  0.111E-01    0.32       1.0  T
   5   -265.8402362 -0.558478E-02  0.432E-02    0.31       1.0  T
   6   -265.8407025 -0.466329E-03  0.218E-02    0.31       1.0  T
   7   -265.8408890 -0.186499E-03  0.733E-03    0.31       1.2  T
   8   -265.8409087 -0.197049E-04  0.177E-03    0.31       4.9  T
   9   -265.8409103 -0.157057E-05  0.559E-04    0.31      15.4  T
  10   -265.8409104 -0.111906E-06  0.247E-04    0.31      35.0  T
  11   -265.8409104 -0.169757E-07  0.843E-05    0.31     102.5  T
  12   -265.8409105 -0.212941E-08  0.388E-05    0.31     222.9  T
     SCC iter.                  ...        0 min,  0.498 sec
     gradient                   ...        0 min,  0.265 sec
 * total energy  :  -262.3844003 Eh     change       -0.3746954E+00 Eh
   gradient norm :     0.4111275 Eh/α   predicted    -0.4197701E+00 (  12.03%)
   displ. norm   :     0.4523434 α      lambda       -0.1339768E+00
   maximum displ.:     0.0992448 α      in ANC's #392, #84, #121, ...

........................................................................
.............................. CYCLE    3 ..............................
........................................................................
   1   -265.9275148 -0.265928E+03  0.973E-02    0.61       0.0  T
   2   -265.9282567 -0.741856E-03  0.759E-02    0.57       1.0  T
   3   -265.9293318 -0.107507E-02  0.379E-02    0.58       1.0  T
   4   -265.9295802 -0.248386E-03  0.298E-02    0.58       1.0  T
   5   -265.9298265 -0.246340E-03  0.781E-03    0.58       1.1  T
   6   -265.9298321 -0.562717E-05  0.268E-03    0.58       3.2  T
   7   -265.9298346 -0.249828E-05  0.852E-04    0.58      10.1  T
   8   -265.9298348 -0.145053E-06  0.554E-04    0.58      15.6  T
   9   -265.9298348 -0.748385E-07  0.299E-04    0.58      28.9  T
  10   -265.9298349 -0.245489E-07  0.115E-04    0.58      75.3  T
  11   -265.9298349 -0.427997E-08  0.426E-05    0.58     202.8  T
     SCC iter.                  ...        0 min,  0.456 sec
     gradient                   ...        0 min,  0.263 sec
 * total energy  :  -262.4748591 Eh     change       -0.9045878E-01 Eh
   gradient norm :     0.2009973 Eh/α   predicted    -0.8069516E-01 ( -10.79%)
   displ. norm   :     0.5559457 α      lambda       -0.6946151E-01
   maximum displ.:     0.2032015 α      in ANC's #84, #78, #107, ...

........................................................................
.............................. CYCLE    4 ..............................
........................................................................
   1   -265.9811089 -0.265981E+03  0.758E-02    0.86       0.0  T
   2   -265.9820392 -0.930306E-03  0.538E-02    0.84       1.0  T
   3   -265.9824583 -0.419110E-03  0.225E-02    0.84       1.0  T
   4   -265.9823245  0.133813E-03  0.247E-02    0.84       1.0  T
   5   -265.9825344 -0.209921E-03  0.545E-03    0.84       1.6  T
   6   -265.9825388 -0.434492E-05  0.112E-03    0.84       7.7  T
   7   -265.9825390 -0.237207E-06  0.607E-04    0.84      14.2  T
   8   -265.9825391 -0.939277E-07  0.300E-04    0.84      28.8  T
   9   -265.9825391 -0.258925E-07  0.122E-04    0.84      70.9  T
  10   -265.9825391 -0.475836E-08  0.268E-05    0.84     322.0  T
     SCC iter.                  ...        0 min,  0.415 sec
     gradient                   ...        0 min,  0.265 sec
 * total energy  :  -262.5142961 Eh     change       -0.3943700E-01 Eh
   gradient norm :     0.0799829 Eh/α   predicted    -0.4546543E-01 (  15.29%)
   displ. norm   :     0.5319576 α      lambda       -0.1688312E-01
   maximum displ.:     0.1875642 α      in ANC's #35, #78, #84, ...

........................................................................
.............................. CYCLE    5 ..............................
........................................................................
   1   -266.0313187 -0.266031E+03  0.267E-02    0.93       0.0  T
   2   -266.0313918 -0.731160E-04  0.181E-02    0.92       1.0  T
   3   -266.0314586 -0.667106E-04  0.785E-03    0.92       1.1  T
   4   -266.0314682 -0.962075E-05  0.680E-03    0.93       1.3  T
   5   -266.0314807 -0.125489E-04  0.202E-03    0.92       4.3  T
   6   -266.0314810 -0.327210E-06  0.566E-04    0.92      15.3  T
   7   -266.0314811 -0.918113E-07  0.258E-04    0.92      33.5  T
   8   -266.0314812 -0.123069E-07  0.140E-04    0.92      61.7  T
   9   -266.0314812 -0.556622E-08  0.472E-05    0.92     182.9  T
     SCC iter.                  ...        0 min,  0.374 sec
     gradient                   ...        0 min,  0.265 sec
 * total energy  :  -262.5273142 Eh     change       -0.1301813E-01 Eh
   gradient norm :     0.0503321 Eh/α   predicted    -0.1083034E-01 ( -16.81%)
   displ. norm   :     0.6500880 α      lambda       -0.1312183E-01
   maximum displ.:     0.2482813 α      in ANC's #35, #78, #29, ...

........................................................................
.............................. CYCLE    6 ..............................
........................................................................
   1   -266.0660286 -0.266066E+03  0.286E-02    0.97       0.0  T
   2   -266.0660983 -0.696414E-04  0.152E-02    0.97       1.0  T
   3   -266.0661231 -0.248229E-04  0.904E-03    0.97       1.0  T
   4   -266.0661514 -0.283465E-04  0.574E-03    0.97       1.5  T
   5   -266.0661578 -0.634281E-05  0.205E-03    0.97       4.2  T
   6   -266.0661584 -0.656727E-06  0.778E-04    0.97      11.1  T
   7   -266.0661586 -0.210479E-06  0.282E-04    0.97      30.6  T
   8   -266.0661587 -0.226668E-07  0.131E-04    0.97      65.7  T
   9   -266.0661587 -0.360808E-08  0.408E-05    0.97     211.6  T
     SCC iter.                  ...        0 min,  0.375 sec
     gradient                   ...        0 min,  0.265 sec
 * total energy  :  -262.5357526 Eh     change       -0.8438428E-02 Eh
   gradient norm :     0.0294662 Eh/α   predicted    -0.9333636E-02 (  10.61%)
   displ. norm   :     0.6644962 α      lambda       -0.8913406E-02
   maximum displ.:     0.2293749 α      in ANC's #35, #36, #29, ...

........................................................................
.............................. CYCLE    7 ..............................
........................................................................
   1   -266.0843194 -0.266084E+03  0.173E-02    1.01       0.0  T
   2   -266.0843456 -0.262261E-04  0.950E-03    1.01       1.0  T
   3   -266.0843538 -0.824436E-05  0.605E-03    1.01       1.4  T
   4   -266.0843629 -0.906011E-05  0.368E-03    1.01       2.3  T
   5   -266.0843652 -0.231047E-05  0.141E-03    1.01       6.1  T
   6   -266.0843655 -0.317442E-06  0.715E-04    1.01      12.1  T
   7   -266.0843658 -0.219170E-06  0.177E-04    1.01      48.9  T
   8   -266.0843658 -0.599653E-08  0.811E-05    1.01     106.5  T
     SCC iter.                  ...        0 min,  0.334 sec
     gradient                   ...        0 min,  0.265 sec
 * total energy  :  -262.5393139 Eh     change       -0.3561285E-02 Eh
   gradient norm :     0.0348328 Eh/α   predicted    -0.6424586E-02 (  80.40%)
   displ. norm   :     0.4116149 α      lambda       -0.4894838E-02
   maximum displ.:     0.1695813 α      in ANC's #35, #29, #21, ...

........................................................................
.............................. CYCLE    8 ..............................
........................................................................
   1   -266.1001052 -0.266100E+03  0.124E-02    1.03       0.0  T
   2   -266.1001130 -0.776360E-05  0.894E-03    1.03       1.0  T
   3   -266.1001212 -0.826195E-05  0.459E-03    1.03       1.9  T
   4   -266.1001188  0.242976E-05  0.385E-03    1.03       2.2  T
   5   -266.1001237 -0.485364E-05  0.115E-03    1.03       7.5  T
   6   -266.1001238 -0.163030E-06  0.488E-04    1.03      17.7  T
   7   -266.1001239 -0.979226E-07  0.851E-05    1.03     101.5  T
   8   -266.1001239 -0.148094E-08  0.457E-05    1.03     188.9  T
     SCC iter.                  ...        0 min,  0.336 sec
     gradient                   ...        0 min,  0.266 sec
 * total energy  :  -262.5427379 Eh     change       -0.3423999E-02 Eh
   gradient norm :     0.0265476 Eh/α   predicted    -0.2862087E-02 ( -16.41%)
   displ. norm   :     0.5084678 α      lambda       -0.3280621E-02
   maximum displ.:     0.2248745 α      in ANC's #29, #21, #25, ...

........................................................................
.............................. CYCLE    9 ..............................
........................................................................
   1   -266.1025799 -0.266103E+03  0.105E-02    1.02       0.0  T
   2   -266.1025895 -0.967478E-05  0.686E-03    1.03       1.3  T
   3   -266.1026011 -0.116076E-04  0.335E-03    1.03       2.6  T
   4   -266.1026039 -0.273656E-05  0.192E-03    1.03       4.5  T
   5   -266.1026046 -0.696515E-06  0.952E-04    1.03       9.1  T
   6   -266.1026046 -0.618395E-07  0.463E-04    1.03      18.6  T
   7   -266.1026047 -0.819515E-07  0.148E-04    1.03      58.2  T
   8   -266.1026047 -0.608969E-08  0.564E-05    1.03     153.1  T
     SCC iter.                  ...        0 min,  0.334 sec
     gradient                   ...        0 min,  0.267 sec
 * total energy  :  -262.5452497 Eh     change       -0.2511774E-02 Eh
   gradient norm :     0.0160819 Eh/α   predicted    -0.2064401E-02 ( -17.81%)
   displ. norm   :     0.6419931 α      lambda       -0.2915837E-02
   maximum displ.:     0.2856392 α      in ANC's #21, #29, #23, ...

........................................................................
.............................. CYCLE   10 ..............................
........................................................................
   1   -266.1100949 -0.266110E+03  0.979E-03    1.03       0.0  T
   2   -266.1101002 -0.531653E-05  0.710E-03    1.03       1.2  T
   3   -266.1101153 -0.150748E-04  0.298E-03    1.03       2.9  T
   4   -266.1101178 -0.251658E-05  0.171E-03    1.03       5.1  T
   5   -266.1101183 -0.468678E-06  0.987E-04    1.03       8.8  T
   6   -266.1101184 -0.145186E-06  0.395E-04    1.03      21.9  T
   7   -266.1101185 -0.526739E-07  0.150E-04    1.03      57.6  T
   8   -266.1101185 -0.655541E-08  0.570E-05    1.03     151.5  T
     SCC iter.                  ...        0 min,  0.333 sec
     gradient                   ...        0 min,  0.266 sec
 * total energy  :  -262.5474913 Eh     change       -0.2241589E-02 Eh
   gradient norm :     0.0170262 Eh/α   predicted    -0.2058823E-02 (  -8.15%)
   displ. norm   :     0.6498001 α      lambda       -0.2488392E-02
   maximum displ.:     0.3131025 α      in ANC's #21, #29, #25, ...

........................................................................
.............................. CYCLE   11 ..............................
........................................................................
   1   -266.1153715 -0.266115E+03  0.740E-03    1.02       0.0  T
   2   -266.1153741 -0.262091E-05  0.498E-03    1.02       1.7  T
   3   -266.1153800 -0.591712E-05  0.277E-03    1.02       3.1  T
   4   -266.1153823 -0.224491E-05  0.125E-03    1.02       6.9  T
   5   -266.1153824 -0.169032E-06  0.669E-04    1.02      12.9  T
   6   -266.1153825 -0.891208E-07  0.296E-04    1.02      29.2  T
   7   -266.1153826 -0.285994E-07  0.109E-04    1.02      79.4  T
   8   -266.1153826 -0.327623E-08  0.400E-05    1.02     216.1  T
     SCC iter.                  ...        0 min,  0.333 sec
     gradient                   ...        0 min,  0.266 sec
 * total energy  :  -262.5494211 Eh     change       -0.1929861E-02 Eh
   gradient norm :     0.0190115 Eh/α   predicted    -0.1769551E-02 (  -8.31%)
   displ. norm   :     0.6251129 α      lambda       -0.2101796E-02
   maximum displ.:     0.3392894 α      in ANC's #21, #29, #25, ...

........................................................................
.............................. CYCLE   12 ..............................
........................................................................
   1   -266.1194801 -0.266119E+03  0.617E-03    1.01       0.0  T
   2   -266.1194830 -0.292123E-05  0.367E-03    1.01       2.4  T
   3   -266.1194847 -0.168302E-05  0.228E-03    1.01       3.8  T
   4   -266.1194857 -0.100825E-05  0.122E-03    1.01       7.1  T
   5   -266.1194861 -0.381283E-06  0.454E-04    1.01      19.0  T
   6   -266.1194861 -0.114128E-07  0.221E-04    1.01      39.1  T
   7   -266.1194861 -0.155330E-07  0.990E-05    1.01      87.2  T
   8   -266.1194861 -0.340367E-08  0.275E-05    1.01     314.4  T
     SCC iter.                  ...        0 min,  0.333 sec
     gradient                   ...        0 min,  0.266 sec
 * total energy  :  -262.5511132 Eh     change       -0.1692081E-02 Eh
   gradient norm :     0.0147554 Eh/α   predicted    -0.1461555E-02 ( -13.62%)
   displ. norm   :     0.6289444 α      lambda       -0.1720279E-02
   maximum displ.:     0.3789798 α      in ANC's #21, #29, #25, ...

........................................................................
.............................. CYCLE   13 ..............................
........................................................................
   1   -266.1217910 -0.266122E+03  0.749E-03    1.01       0.0  T
   2   -266.1217985 -0.745891E-05  0.452E-03    1.01       1.9  T
   3   -266.1218022 -0.373469E-05  0.225E-03    1.01       3.8  T
   4   -266.1218030 -0.721817E-06  0.153E-03    1.01       5.6  T
   5   -266.1218035 -0.513005E-06  0.642E-04    1.01      13.5  T
   6   -266.1218035 -0.308188E-07  0.333E-04    1.01      25.9  T
   7   -266.1218035 -0.374428E-07  0.112E-04    1.01      77.0  T
   8   -266.1218035 -0.399785E-08  0.431E-05    1.01     200.4  T
     SCC iter.                  ...        0 min,  0.333 sec
     gradient                   ...        0 min,  0.268 sec
 * total energy  :  -262.5524865 Eh     change       -0.1373262E-02 Eh
   gradient norm :     0.0145381 Eh/α   predicted    -0.1200388E-02 ( -12.59%)
   displ. norm   :     0.6034516 α      lambda       -0.1455739E-02
   maximum displ.:     0.4047790 α      in ANC's #21, #20, #13, ...

........................................................................
.............................. CYCLE   14 ..............................
........................................................................
   1   -266.1263658 -0.266126E+03  0.870E-03    1.01       0.0  T
   2   -266.1263735 -0.768914E-05  0.425E-03    1.01       2.0  T
   3   -266.1263753 -0.176183E-05  0.251E-03    1.01       3.4  T
   4   -266.1263764 -0.117235E-05  0.145E-03    1.01       5.9  T
   5   -266.1263769 -0.489552E-06  0.612E-04    1.01      14.1  T
   6   -266.1263770 -0.633846E-07  0.278E-04    1.01      31.1  T
   7   -266.1263770 -0.237492E-07  0.978E-05    1.01      88.4  T
   8   -266.1263770 -0.291203E-08  0.469E-05    1.01     184.4  T
     SCC iter.                  ...        0 min,  0.333 sec
     gradient                   ...        0 min,  0.265 sec
 * total energy  :  -262.5535282 Eh     change       -0.1041677E-02 Eh
   gradient norm :     0.0136394 Eh/α   predicted    -0.9929313E-03 (  -4.68%)
   displ. norm   :     0.6709684 α      lambda       -0.1306215E-02
   maximum displ.:     0.4709601 α      in ANC's #21, #20, #13, ...

........................................................................
.............................. CYCLE   15 ..............................
........................................................................
   1   -266.1148216 -0.266115E+03  0.117E-02    1.02       0.0  T
   2   -266.1148309 -0.937510E-05  0.607E-03    1.02       1.4  T
   3   -266.1148306  0.321145E-06  0.455E-03    1.02       1.9  T
   4   -266.1148328 -0.223215E-05  0.304E-03    1.02       2.8  T
   5   -266.1148354 -0.256570E-05  0.608E-04    1.02      14.2  T
   6   -266.1148354 -0.310225E-07  0.321E-04    1.02      26.9  T
   7   -266.1148355 -0.306597E-07  0.107E-04    1.02      80.5  T
   8   -266.1148355 -0.308319E-08  0.435E-05    1.02     198.4  T
     SCC iter.                  ...        0 min,  0.333 sec
     gradient                   ...        0 min,  0.266 sec
 * total energy  :  -262.5543397 Eh     change       -0.8115005E-03 Eh
   gradient norm :     0.0221222 Eh/α   predicted    -0.9471373E-03 (  16.71%)
   displ. norm   :     0.4201163 α      lambda       -0.9164796E-03
   maximum displ.:     0.3263789 α      in ANC's #21, #20, #13, ...

........................................................................
.............................. CYCLE   16 ..............................
........................................................................
   1   -266.1178056 -0.266118E+03  0.601E-03    1.02       0.0  T
   2   -266.1178088 -0.315788E-05  0.239E-03    1.02       3.6  T
   3   -266.1178086  0.180327E-06  0.201E-03    1.02       4.3  T
   4   -266.1178092 -0.655970E-06  0.104E-03    1.02       8.3  T
   5   -266.1178096 -0.306998E-06  0.336E-04    1.02      25.7  T
   6   -266.1178096 -0.397097E-08  0.160E-04    1.02      54.0  T
   7   -266.1178096 -0.635953E-08  0.674E-05    1.02     128.1  T
     SCC iter.                  ...        0 min,  0.295 sec
     gradient                   ...        0 min,  0.265 sec
 * total energy  :  -262.5551155 Eh     change       -0.7757915E-03 Eh
   gradient norm :     0.0158745 Eh/α   predicted    -0.5391203E-03 ( -30.51%)
   displ. norm   :     0.6189559 α      lambda       -0.1313142E-02
   maximum displ.:     0.4866934 α      in ANC's #21, #20, #13, ...

........................................................................
.............................. CYCLE   17 ..............................
........................................................................
   1   -266.1175449 -0.266118E+03  0.107E-02    1.03       0.0  T
   2   -266.1175526 -0.775371E-05  0.509E-03    1.03       1.7  T
   3   -266.1175521  0.488150E-06  0.422E-03    1.03       2.0  T
   4   -266.1175563 -0.415811E-05  0.205E-03    1.03       4.2  T
   5   -266.1175573 -0.101354E-05  0.635E-04    1.03      13.6  T
   6   -266.1175573 -0.253598E-07  0.387E-04    1.03      22.3  T
   7   -266.1175574 -0.577515E-07  0.100E-04    1.03      86.0  T
   8   -266.1175574 -0.280261E-08  0.381E-05    1.03     226.8  T
     SCC iter.                  ...        0 min,  0.333 sec
     gradient                   ...        0 min,  0.267 sec
 * total energy  :  -262.5560219 Eh     change       -0.9063984E-03 Eh
   gradient norm :     0.0159292 Eh/α   predicted    -0.9081151E-03 (   0.19%)
   displ. norm   :     0.6372866 α      lambda       -0.1212989E-02
   maximum displ.:     0.5049742 α      in ANC's #21, #20, #13, ...

........................................................................
.............................. CYCLE   18 ..............................
........................................................................
   1   -266.1188204 -0.266119E+03  0.123E-02    1.03       0.0  T
   2   -266.1188305 -0.101009E-04  0.581E-03    1.03       1.5  T
   3   -266.1188292  0.134239E-05  0.485E-03    1.03       1.8  T
   4   -266.1188339 -0.473541E-05  0.257E-03    1.03       3.4  T
   5   -266.1188356 -0.164264E-05  0.632E-04    1.03      13.7  T
   6   -266.1188356 -0.365965E-07  0.357E-04    1.03      24.2  T
   7   -266.1188356 -0.464093E-07  0.107E-04    1.03      81.0  T
   8   -266.1188356 -0.357022E-08  0.435E-05    1.03     198.6  T
     SCC iter.                  ...        0 min,  0.333 sec
     gradient                   ...        0 min,  0.267 sec
 * total energy  :  -262.5568016 Eh     change       -0.7797106E-03 Eh
   gradient norm :     0.0181883 Eh/α   predicted    -0.8528164E-03 (   9.38%)
   displ. norm   :     0.6442495 α      lambda       -0.9545751E-03
   maximum displ.:     0.5040832 α      in ANC's #21, #20, #13, ...

........................................................................
.............................. CYCLE   19 ..............................
........................................................................
   1   -266.1087241 -0.266109E+03  0.957E-03    1.03       0.0  T
   2   -266.1087290 -0.485263E-05  0.519E-03    1.03       1.7  T
   3   -266.1087283  0.681315E-06  0.412E-03    1.03       2.1  T
   4   -266.1087316 -0.330278E-05  0.236E-03    1.03       3.7  T
   5   -266.1087329 -0.133170E-05  0.451E-04    1.03      19.2  T
   6   -266.1087329 -0.364006E-07  0.229E-04    1.03      37.7  T
   7   -266.1087330 -0.173389E-07  0.788E-05    1.03     109.7  T
   8   -266.1087330 -0.214902E-08  0.276E-05    1.03     313.1  T
     SCC iter.                  ...        0 min,  0.333 sec
     gradient                   ...        0 min,  0.265 sec
 * total energy  :  -262.5574269 Eh     change       -0.6253316E-03 Eh
   gradient norm :     0.0204284 Eh/α   predicted    -0.6753987E-03 (   8.01%)
   displ. norm   :     0.4945345 α      lambda       -0.9862701E-03
   maximum displ.:     0.3741781 α      in ANC's #21, #15, #20, ...

........................................................................
.............................. CYCLE   20 ..............................
........................................................................
   1   -266.1102253 -0.266110E+03  0.810E-03    1.04       0.0  T
   2   -266.1102268 -0.150494E-05  0.426E-03    1.04       2.0  T
   3   -266.1102242  0.252957E-05  0.418E-03    1.04       2.1  T
   4   -266.1102293 -0.503883E-05  0.135E-03    1.04       6.4  T
   5   -266.1102295 -0.233973E-06  0.432E-04    1.04      20.0  T
   6   -266.1102296 -0.541125E-07  0.164E-04    1.04      52.8  T
   7   -266.1102296 -0.103731E-07  0.510E-05    1.04     169.3  T
     SCC iter.                  ...        0 min,  0.291 sec
     gradient                   ...        0 min,  0.266 sec
 * total energy  :  -262.5581148 Eh     change       -0.6879153E-03 Eh
   gradient norm :     0.0135030 Eh/α   predicted    -0.6137502E-03 ( -10.78%)
   displ. norm   :     0.5436560 α      lambda       -0.8767502E-03
   maximum displ.:     0.3675317 α      in ANC's #21, #25, #37, ...
 * RMSD in coord.:     0.7022273 α      energy gain  -0.5484099E+00 Eh

generating ANC from model Hessian ...
Using Lindh-Hessian (1995)
 Shifting diagonal of input Hessian by    1.0003349700688856E-002
 Lowest  eigenvalues of input Hessian
    0.010000    0.000000    0.000000    0.000000    0.000000    0.000000
    0.000000    0.010004    0.010010    0.010048    0.010076    0.010088
    0.010110    0.010137    0.010189    0.010352    0.010392    0.010399
 Highest eigenvalues
    2.801937    2.874200    3.629209    3.629468    3.639692    3.639725


........................................................................
.............................. CYCLE   21 ..............................
........................................................................
   1   -266.1198595 -0.266120E+03  0.863E-03    1.03       0.0  T
   2   -266.1198615 -0.193826E-05  0.469E-03    1.03       1.8  T
   3   -266.1198598  0.167043E-05  0.424E-03    1.03       2.0  T
   4   -266.1198643 -0.450190E-05  0.161E-03    1.03       5.4  T
   5   -266.1198647 -0.412205E-06  0.511E-04    1.03      16.9  T
   6   -266.1198648 -0.728480E-07  0.161E-04    1.03      53.8  T
   7   -266.1198648 -0.839066E-08  0.590E-05    1.03     146.4  T
     SCC iter.                  ...        0 min,  0.292 sec
     gradient                   ...        0 min,  0.266 sec
 * total energy  :  -262.5586291 Eh     change       -0.5143203E-03 Eh
   gradient norm :     0.0156110 Eh/α   predicted     0.0000000E+00 (-100.00%)
   displ. norm   :     0.0974796 α      lambda       -0.4025286E-03
   maximum displ.:     0.0324631 α      in ANC's #29, #21, #17, ...

........................................................................
.............................. CYCLE   22 ..............................
........................................................................
   1   -266.1191396 -0.266119E+03  0.409E-03    1.03       0.0  T
   2   -266.1191406 -0.914417E-06  0.207E-03    1.03       4.2  T
   3   -266.1191405  0.454774E-07  0.145E-03    1.03       5.9  T
   4   -266.1191406 -0.736082E-07  0.871E-04    1.03       9.9  T
   5   -266.1191408 -0.250141E-06  0.246E-04    1.03      35.1  T
   6   -266.1191409 -0.142464E-07  0.976E-05    1.03      88.5  T
   7   -266.1191409 -0.340765E-08  0.304E-05    1.03     284.5  T
     SCC iter.                  ...        0 min,  0.292 sec
     gradient                   ...        0 min,  0.265 sec
 * total energy  :  -262.5589296 Eh     change       -0.3004747E-03 Eh
   gradient norm :     0.0061387 Eh/α   predicted    -0.2031797E-03 ( -32.38%)
   displ. norm   :     0.1950251 α      lambda       -0.3644266E-03
   maximum displ.:     0.0754888 α      in ANC's #21, #17, #29, ...

........................................................................
.............................. CYCLE   23 ..............................
........................................................................
   1   -266.1190516 -0.266119E+03  0.508E-03    1.02       0.0  T
   2   -266.1190542 -0.257123E-05  0.231E-03    1.02       3.7  T
   3   -266.1190544 -0.255876E-06  0.165E-03    1.02       5.3  T
   4   -266.1190547 -0.267410E-06  0.958E-04    1.02       9.0  T
   5   -266.1190549 -0.215741E-06  0.338E-04    1.02      25.6  T
   6   -266.1190549 -0.229083E-07  0.160E-04    1.02      54.0  T
   7   -266.1190549 -0.891521E-08  0.404E-05    1.02     213.9  T
     SCC iter.                  ...        0 min,  0.293 sec
     gradient                   ...        0 min,  0.266 sec
 * total energy  :  -262.5591755 Eh     change       -0.2458530E-03 Eh
   gradient norm :     0.0063314 Eh/α   predicted    -0.1891494E-03 ( -23.06%)
   displ. norm   :     0.2378084 α      lambda       -0.2645295E-03
   maximum displ.:     0.0960149 α      in ANC's #21, #17, #24, ...

........................................................................
.............................. CYCLE   24 ..............................
........................................................................
   1   -266.1191887 -0.266119E+03  0.416E-03    1.02       0.0  T
   2   -266.1191913 -0.263352E-05  0.160E-03    1.02       5.4  T
   3   -266.1191916 -0.315575E-06  0.112E-03    1.02       7.7  T
   4   -266.1191919 -0.269677E-06  0.555E-04    1.02      15.6  T
   5   -266.1191919 -0.411708E-07  0.257E-04    1.02      33.6  T
   6   -266.1191919 -0.770279E-08  0.142E-04    1.02      61.0  T
   7   -266.1191920 -0.630916E-08  0.431E-05    1.02     200.5  T
     SCC iter.                  ...        0 min,  0.292 sec
     gradient                   ...        0 min,  0.266 sec
 * total energy  :  -262.5593558 Eh     change       -0.1803689E-03 Eh
   gradient norm :     0.0104669 Eh/α   predicted    -0.1397458E-03 ( -22.52%)
   displ. norm   :     0.4102807 α      lambda       -0.4205758E-03
   maximum displ.:     0.1910487 α      in ANC's #21, #17, #37, ...

........................................................................
.............................. CYCLE   25 ..............................
........................................................................
   1   -266.1189882 -0.266119E+03  0.666E-03    1.02       0.0  T
   2   -266.1189948 -0.656182E-05  0.259E-03    1.02       3.3  T
   3   -266.1189954 -0.593917E-06  0.186E-03    1.02       4.7  T
   4   -266.1189960 -0.583881E-06  0.106E-03    1.02       8.2  T
   5   -266.1189962 -0.214286E-06  0.382E-04    1.02      22.6  T
   6   -266.1189962 -0.152533E-07  0.233E-04    1.02      37.0  T
   7   -266.1189962 -0.166632E-07  0.754E-05    1.02     114.6  T
   8   -266.1189962 -0.200464E-08  0.348E-05    1.02     248.2  T
     SCC iter.                  ...        0 min,  0.333 sec
     gradient                   ...        0 min,  0.265 sec
 * total energy  :  -262.5596288 Eh     change       -0.2730173E-03 Eh
   gradient norm :     0.0141830 Eh/α   predicted    -0.2456858E-03 ( -10.01%)
   displ. norm   :     0.3459004 α      lambda       -0.3988933E-03
   maximum displ.:     0.1716231 α      in ANC's #21, #37, #17, ...

........................................................................
.............................. CYCLE   26 ..............................
........................................................................
   1   -266.1196888 -0.266120E+03  0.486E-03    1.02       0.0  T
   2   -266.1196915 -0.275001E-05  0.219E-03    1.02       3.9  T
   3   -266.1196918 -0.239634E-06  0.152E-03    1.02       5.7  T
   4   -266.1196920 -0.206511E-06  0.103E-03    1.02       8.4  T
   5   -266.1196922 -0.275932E-06  0.280E-04    1.02      30.8  T
   6   -266.1196923 -0.829897E-08  0.158E-04    1.02      54.8  T
   7   -266.1196923 -0.775970E-08  0.477E-05    1.02     181.0  T
     SCC iter.                  ...        0 min,  0.292 sec
     gradient                   ...        0 min,  0.265 sec
 * total energy  :  -262.5599485 Eh     change       -0.3196260E-03 Eh
   gradient norm :     0.0114662 Eh/α   predicted    -0.2233114E-03 ( -30.13%)
   displ. norm   :     0.4161693 α      lambda       -0.5487255E-03
   maximum displ.:     0.2157000 α      in ANC's #21, #37, #15, ...

........................................................................
.............................. CYCLE   27 ..............................
........................................................................
   1   -266.1222244 -0.266122E+03  0.668E-03    1.02       0.0  T
   2   -266.1222288 -0.437292E-05  0.303E-03    1.02       2.9  T
   3   -266.1222288 -0.375052E-07  0.232E-03    1.02       3.7  T
   4   -266.1222295 -0.716151E-06  0.136E-03    1.02       6.3  T
   5   -266.1222300 -0.440585E-06  0.405E-04    1.02      21.3  T
   6   -266.1222300 -0.252305E-07  0.199E-04    1.02      43.4  T
   7   -266.1222300 -0.157692E-07  0.462E-05    1.02     187.0  T
     SCC iter.                  ...        0 min,  0.292 sec
     gradient                   ...        0 min,  0.265 sec
 * total energy  :  -262.5603361 Eh     change       -0.3875816E-03 Eh
   gradient norm :     0.0090619 Eh/α   predicted    -0.3218821E-03 ( -16.95%)
   displ. norm   :     0.4541367 α      lambda       -0.3662087E-03
   maximum displ.:     0.2337118 α      in ANC's #21, #37, #15, ...

........................................................................
.............................. CYCLE   28 ..............................
........................................................................
   1   -266.1192581 -0.266119E+03  0.493E-03    1.03       0.0  T
   2   -266.1192613 -0.321424E-05  0.220E-03    1.03       3.9  T
   3   -266.1192616 -0.217419E-06  0.159E-03    1.03       5.4  T
   4   -266.1192618 -0.252788E-06  0.105E-03    1.03       8.2  T
   5   -266.1192621 -0.275910E-06  0.250E-04    1.03      34.6  T
   6   -266.1192621 -0.113545E-08  0.138E-04    1.03      62.8  T
   7   -266.1192621 -0.508635E-08  0.559E-05    1.03     154.4  T
     SCC iter.                  ...        0 min,  0.292 sec
     gradient                   ...        0 min,  0.267 sec
 * total energy  :  -262.5606258 Eh     change       -0.2897130E-03 Eh
   gradient norm :     0.0111495 Eh/α   predicted    -0.2208717E-03 ( -23.76%)
   displ. norm   :     0.4431346 α      lambda       -0.4789493E-03
   maximum displ.:     0.2151773 α      in ANC's #21, #37, #15, ...

........................................................................
.............................. CYCLE   29 ..............................
........................................................................
   1   -266.1199655 -0.266120E+03  0.657E-03    1.03       0.0  T
   2   -266.1199709 -0.546170E-05  0.273E-03    1.03       3.2  T
   3   -266.1199711 -0.151869E-06  0.212E-03    1.03       4.1  T
   4   -266.1199719 -0.841398E-06  0.113E-03    1.03       7.6  T
   5   -266.1199721 -0.210961E-06  0.510E-04    1.03      16.9  T
   6   -266.1199722 -0.567204E-07  0.153E-04    1.03      56.5  T
   7   -266.1199722 -0.729779E-08  0.511E-05    1.03     169.2  T
     SCC iter.                  ...        0 min,  0.292 sec
     gradient                   ...        0 min,  0.267 sec
 * total energy  :  -262.5609655 Eh     change       -0.3397430E-03 Eh
   gradient norm :     0.0104331 Eh/α   predicted    -0.2865020E-03 ( -15.67%)
   displ. norm   :     0.5129837 α      lambda       -0.3659970E-03
   maximum displ.:     0.2452239 α      in ANC's #21, #37, #15, ...

........................................................................
.............................. CYCLE   30 ..............................
........................................................................
   1   -266.1117208 -0.266112E+03  0.856E-03    1.03       0.0  T
   2   -266.1117266 -0.573383E-05  0.437E-03    1.03       2.0  T
   3   -266.1117266  0.531105E-08  0.289E-03    1.03       3.0  T
   4   -266.1117256  0.963542E-06  0.230E-03    1.03       3.8  T
   5   -266.1117276 -0.201502E-05  0.367E-04    1.03      23.5  T
   6   -266.1117276 -0.160906E-07  0.236E-04    1.03      36.5  T
   7   -266.1117276 -0.173297E-07  0.734E-05    1.03     117.6  T
   8   -266.1117276 -0.191608E-08  0.316E-05    1.03     273.1  T
     SCC iter.                  ...        0 min,  0.334 sec
     gradient                   ...        0 min,  0.264 sec
 * total energy  :  -262.5611906 Eh     change       -0.2251006E-03 Eh
   gradient norm :     0.0117692 Eh/α   predicted    -0.2311702E-03 (   2.70%)
   displ. norm   :     0.2679204 α      lambda       -0.3870096E-03
   maximum displ.:     0.1030141 α      in ANC's #15, #32, #37, ...

........................................................................
.............................. CYCLE   31 ..............................
........................................................................
   1   -266.1174928 -0.266117E+03  0.708E-03    1.03       0.0  T
   2   -266.1174947 -0.191465E-05  0.380E-03    1.03       2.3  T
   3   -266.1174942  0.504719E-06  0.319E-03    1.03       2.7  T
   4   -266.1174962 -0.204186E-05  0.146E-03    1.03       5.9  T
   5   -266.1174967 -0.466611E-06  0.481E-04    1.03      18.0  T
   6   -266.1174968 -0.596396E-07  0.131E-04    1.03      66.1  T
   7   -266.1174968 -0.610356E-08  0.473E-05    1.03     182.6  T
     SCC iter.                  ...        0 min,  0.292 sec
     gradient                   ...        0 min,  0.267 sec
 * total energy  :  -262.5614033 Eh     change       -0.2126560E-03 Eh
   gradient norm :     0.0077607 Eh/α   predicted    -0.2073959E-03 (  -2.47%)
   displ. norm   :     0.2946717 α      lambda       -0.1811735E-03
   maximum displ.:     0.1286061 α      in ANC's #15, #37, #21, ...

........................................................................
.............................. CYCLE   32 ..............................
........................................................................
   1   -266.1153210 -0.266115E+03  0.435E-03    1.03       0.0  T
   2   -266.1153235 -0.245680E-05  0.196E-03    1.03       4.4  T
   3   -266.1153238 -0.275736E-06  0.137E-03    1.03       6.3  T
   4   -266.1153241 -0.316713E-06  0.872E-04    1.03       9.9  T
   5   -266.1153243 -0.181753E-06  0.229E-04    1.03      37.8  T
   6   -266.1153243 -0.185457E-08  0.136E-04    1.03      63.6  T
   7   -266.1153243 -0.591643E-08  0.541E-05    1.03     159.8  T
     SCC iter.                  ...        0 min,  0.292 sec
     gradient                   ...        0 min,  0.266 sec
 * total energy  :  -262.5615429 Eh     change       -0.1396054E-03 Eh
   gradient norm :     0.0069752 Eh/α   predicted    -0.9845459E-04 ( -29.48%)
   displ. norm   :     0.3028790 α      lambda       -0.2672331E-03
   maximum displ.:     0.1511564 α      in ANC's #15, #37, #5, ...

........................................................................
.............................. CYCLE   33 ..............................
........................................................................
   1   -266.1189501 -0.266119E+03  0.582E-03    1.03       0.0  T
   2   -266.1189548 -0.473494E-05  0.322E-03    1.03       2.7  T
   3   -266.1189565 -0.171605E-05  0.206E-03    1.03       4.2  T
   4   -266.1189577 -0.117397E-05  0.892E-04    1.03       9.7  T
   5   -266.1189577 -0.584408E-07  0.368E-04    1.03      23.5  T
   6   -266.1189578 -0.969555E-08  0.174E-04    1.03      49.6  T
   7   -266.1189578 -0.122438E-07  0.579E-05    1.03     149.2  T
     SCC iter.                  ...        0 min,  0.292 sec
     gradient                   ...        0 min,  0.266 sec
 * total energy  :  -262.5617241 Eh     change       -0.1812492E-03 Eh
   gradient norm :     0.0074375 Eh/α   predicted    -0.1458800E-03 ( -19.51%)
   displ. norm   :     0.2520981 α      lambda       -0.1597706E-03
   maximum displ.:     0.1340798 α      in ANC's #15, #37, #5, ...

........................................................................
.............................. CYCLE   34 ..............................
........................................................................
   1   -266.1196981 -0.266120E+03  0.431E-03    1.03       0.0  T
   2   -266.1197010 -0.289097E-05  0.208E-03    1.03       4.2  T
   3   -266.1197017 -0.729947E-06  0.135E-03    1.03       6.4  T
   4   -266.1197024 -0.618179E-06  0.451E-04    1.03      19.2  T
   5   -266.1197024 -0.285576E-08  0.198E-04    1.03      43.7  T
   6   -266.1197024 -0.941156E-09  0.105E-04    1.03      82.6  T
     SCC iter.                  ...        0 min,  0.251 sec
     gradient                   ...        0 min,  0.265 sec
 * total energy  :  -262.5618502 Eh     change       -0.1260655E-03 Eh
   gradient norm :     0.0082800 Eh/α   predicted    -0.8496428E-04 ( -32.60%)
   displ. norm   :     0.3480360 α      lambda       -0.2497569E-03
   maximum displ.:     0.1864293 α      in ANC's #15, #5, #37, ...

........................................................................
.............................. CYCLE   35 ..............................
........................................................................
   1   -266.1216940 -0.266122E+03  0.593E-03    1.03       0.0  T
   2   -266.1216983 -0.431210E-05  0.317E-03    1.03       2.7  T
   3   -266.1216999 -0.160156E-05  0.212E-03    1.03       4.1  T
   4   -266.1217012 -0.128820E-05  0.868E-04    1.03      10.0  T
   5   -266.1217012 -0.259617E-07  0.254E-04    1.03      34.0  T
   6   -266.1217012 -0.122265E-07  0.121E-04    1.03      71.3  T
   7   -266.1217013 -0.595725E-08  0.351E-05    1.03     246.4  T
     SCC iter.                  ...        0 min,  0.291 sec
     gradient                   ...        0 min,  0.266 sec
 * total energy  :  -262.5620340 Eh     change       -0.1838345E-03 Eh
   gradient norm :     0.0072320 Eh/α   predicted    -0.1400076E-03 ( -23.84%)
   displ. norm   :     0.4387048 α      lambda       -0.2319037E-03
   maximum displ.:     0.2491246 α      in ANC's #15, #5, #37, ...

........................................................................
.............................. CYCLE   36 ..............................
........................................................................
   1   -266.1159203 -0.266116E+03  0.793E-03    1.03       0.0  T
   2   -266.1159296 -0.926272E-05  0.345E-03    1.03       2.5  T
   3   -266.1159304 -0.807284E-06  0.198E-03    1.03       4.4  T
   4   -266.1159294  0.100433E-05  0.185E-03    1.03       4.7  T
   5   -266.1159307 -0.126641E-05  0.248E-04    1.03      34.8  T
   6   -266.1159307 -0.224918E-08  0.156E-04    1.03      55.3  T
   7   -266.1159307 -0.684429E-08  0.639E-05    1.03     135.2  T
     SCC iter.                  ...        0 min,  0.292 sec
     gradient                   ...        0 min,  0.265 sec
 * total energy  :  -262.5621834 Eh     change       -0.1494237E-03 Eh
   gradient norm :     0.0102664 Eh/α   predicted    -0.1382687E-03 (  -7.47%)
   displ. norm   :     0.3270534 α      lambda       -0.2686181E-03
   maximum displ.:     0.1589747 α      in ANC's #21, #15, #5, ...

........................................................................
.............................. CYCLE   37 ..............................
........................................................................
   1   -266.1203760 -0.266120E+03  0.779E-03    1.03       0.0  T
   2   -266.1203810 -0.497242E-05  0.389E-03    1.03       2.2  T
   3   -266.1203804  0.544542E-06  0.304E-03    1.03       2.8  T
   4   -266.1203817 -0.130138E-05  0.174E-03    1.03       5.0  T
   5   -266.1203825 -0.766991E-06  0.396E-04    1.03      21.8  T
   6   -266.1203825 -0.387549E-07  0.112E-04    1.03      77.2  T
   7   -266.1203825 -0.507271E-08  0.418E-05    1.03     206.5  T
     SCC iter.                  ...        0 min,  0.292 sec
     gradient                   ...        0 min,  0.267 sec
 * total energy  :  -262.5623181 Eh     change       -0.1347047E-03 Eh
   gradient norm :     0.0074359 Eh/α   predicted    -0.1486763E-03 (  10.37%)
   displ. norm   :     0.2962418 α      lambda       -0.1461788E-03
   maximum displ.:     0.1706668 α      in ANC's #15, #5, #37, ...

........................................................................
.............................. CYCLE   38 ..............................
........................................................................
   1   -266.1169051 -0.266117E+03  0.547E-03    1.03       0.0  T
   2   -266.1169090 -0.395707E-05  0.253E-03    1.03       3.4  T
   3   -266.1169094 -0.332021E-06  0.146E-03    1.03       5.9  T
   4   -266.1169091  0.236908E-06  0.824E-04    1.03      10.5  T
   5   -266.1169094 -0.260251E-06  0.331E-04    1.03      26.1  T
   6   -266.1169094 -0.437569E-07  0.644E-05    1.03     134.2  T
   7   -266.1169094 -0.920579E-09  0.535E-05    1.03     161.6  T
     SCC iter.                  ...        0 min,  0.292 sec
     gradient                   ...        0 min,  0.265 sec
 * total energy  :  -262.5624204 Eh     change       -0.1022361E-03 Eh
   gradient norm :     0.0073399 Eh/α   predicted    -0.7950465E-04 ( -22.23%)
   displ. norm   :     0.2584452 α      lambda       -0.1685367E-03
   maximum displ.:     0.1424755 α      in ANC's #15, #5, #3, ...

........................................................................
.............................. CYCLE   39 ..............................
........................................................................
   1   -266.1169480 -0.266117E+03  0.491E-03    1.03       0.0  T
   2   -266.1169511 -0.306953E-05  0.236E-03    1.03       3.7  T
   3   -266.1169515 -0.352212E-06  0.153E-03    1.03       5.6  T
   4   -266.1169517 -0.213078E-06  0.105E-03    1.03       8.2  T
   5   -266.1169519 -0.262458E-06  0.364E-04    1.03      23.8  T
   6   -266.1169520 -0.299146E-07  0.154E-04    1.03      56.1  T
   7   -266.1169520 -0.114117E-07  0.567E-05    1.03     152.3  T
     SCC iter.                  ...        0 min,  0.293 sec
     gradient                   ...        0 min,  0.266 sec
 * total energy  :  -262.5625384 Eh     change       -0.1179928E-03 Eh
   gradient norm :     0.0067502 Eh/α   predicted    -0.8989908E-04 ( -23.81%)
   displ. norm   :     0.2304907 α      lambda       -0.1520590E-03
   maximum displ.:     0.0878398 α      in ANC's #21, #5, #15, ...

........................................................................
.............................. CYCLE   40 ..............................
........................................................................
   1   -266.1206618 -0.266121E+03  0.470E-03    1.03       0.0  T
   2   -266.1206637 -0.196171E-05  0.229E-03    1.03       3.8  T
   3   -266.1206639 -0.157374E-06  0.154E-03    1.03       5.6  T
   4   -266.1206640 -0.652691E-07  0.106E-03    1.03       8.1  T
   5   -266.1206643 -0.329547E-06  0.293E-04    1.03      29.4  T
   6   -266.1206643 -0.201151E-07  0.120E-04    1.03      71.8  T
   7   -266.1206643 -0.743950E-08  0.314E-05    1.03     275.0  T
     SCC iter.                  ...        0 min,  0.292 sec
     gradient                   ...        0 min,  0.266 sec
 * total energy  :  -262.5626293 Eh     change       -0.9088544E-04 Eh
   gradient norm :     0.0060442 Eh/α   predicted    -0.8007762E-04 ( -11.89%)
   displ. norm   :     0.2830036 α      lambda       -0.1046962E-03
   maximum displ.:     0.1481641 α      in ANC's #15, #5, #21, ...

........................................................................
.............................. CYCLE   41 ..............................
........................................................................
   1   -266.1179156 -0.266118E+03  0.488E-03    1.03       0.0  T
   2   -266.1179183 -0.269808E-05  0.226E-03    1.03       3.8  T
   3   -266.1179185 -0.148195E-06  0.138E-03    1.03       6.2  T
   4   -266.1179182  0.249894E-06  0.108E-03    1.03       8.0  T
   5   -266.1179186 -0.389950E-06  0.327E-04    1.03      26.4  T
   6   -266.1179187 -0.329660E-07  0.917E-05    1.03      94.3  T
   7   -266.1179187 -0.252982E-08  0.491E-05    1.03     176.0  T
     SCC iter.                  ...        0 min,  0.292 sec
     gradient                   ...        0 min,  0.267 sec
 * total energy  :  -262.5627010 Eh     change       -0.7177425E-04 Eh
   gradient norm :     0.0064240 Eh/α   predicted    -0.5654795E-04 ( -21.21%)
   displ. norm   :     0.2357302 α      lambda       -0.1032972E-03
   maximum displ.:     0.1112734 α      in ANC's #15, #5, #3, ...

........................................................................
.............................. CYCLE   42 ..............................
........................................................................
   1   -266.1176692 -0.266118E+03  0.304E-03    1.03       0.0  T
   2   -266.1176706 -0.138714E-05  0.126E-03    1.03       6.9  T
   3   -266.1176707 -0.175792E-06  0.813E-04    1.03      10.6  T
   4   -266.1176709 -0.115529E-06  0.479E-04    1.03      18.0  T
   5   -266.1176709 -0.421691E-07  0.144E-04    1.03      59.9  T
   6   -266.1176709 -0.375951E-08  0.776E-05    1.03     111.4  T
     SCC iter.                  ...        0 min,  0.251 sec
     gradient                   ...        0 min,  0.265 sec
 * total energy  :  -262.5627778 Eh     change       -0.7673763E-04 Eh
   gradient norm :     0.0050375 Eh/α   predicted    -0.5452884E-04 ( -28.94%)
   displ. norm   :     0.2946236 α      lambda       -0.1094045E-03
   maximum displ.:     0.1427445 α      in ANC's #15, #5, #3, ...
 * RMSD in coord.:     0.4599929 α      energy gain  -0.4662964E-02 Eh

generating ANC from model Hessian ...
Using Lindh-Hessian (1995)
 Shifting diagonal of input Hessian by    1.0003374174622831E-002
 Lowest  eigenvalues of input Hessian
    0.010000    0.010002    0.000000    0.000000    0.000000    0.000000
    0.000000    0.000000    0.010012    0.010044    0.010062    0.010077
    0.010090    0.010144    0.010197    0.010370    0.010377    0.010394
 Highest eigenvalues
    2.824778    2.882538    3.580098    3.589708    3.590427    3.592612


........................................................................
.............................. CYCLE   43 ..............................
........................................................................
   1   -266.1170927 -0.266117E+03  0.500E-03    1.03       0.0  T
   2   -266.1170964 -0.371461E-05  0.214E-03    1.03       4.0  T
   3   -266.1170969 -0.452613E-06  0.128E-03    1.03       6.7  T
   4   -266.1170970 -0.140034E-06  0.941E-04    1.03       9.2  T
   5   -266.1170972 -0.218082E-06  0.250E-04    1.03      34.6  T
   6   -266.1170972 -0.120083E-07  0.129E-04    1.03      67.1  T
   7   -266.1170972 -0.764840E-08  0.236E-05    1.03     366.2  T
     SCC iter.                  ...        0 min,  0.292 sec
     gradient                   ...        0 min,  0.265 sec
 * total energy  :  -262.5628452 Eh     change       -0.6740670E-04 Eh
   gradient norm :     0.0056066 Eh/α   predicted     0.0000000E+00 (-100.00%)
   displ. norm   :     0.0401180 α      lambda       -0.4664474E-04
   maximum displ.:     0.0222343 α      in ANC's #17, #37, #16, ...

........................................................................
.............................. CYCLE   44 ..............................
........................................................................
   1   -266.1189674 -0.266119E+03  0.193E-03    1.03       0.0  T
   2   -266.1189676 -0.177986E-06  0.102E-03    1.03       8.5  T
   3   -266.1189675  0.751112E-07  0.765E-04    1.03      11.3  T
   4   -266.1189675 -0.669721E-07  0.432E-04    1.03      20.0  T
   5   -266.1189676 -0.563071E-07  0.105E-04    1.03      82.2  T
   6   -266.1189676 -0.357915E-08  0.235E-05    1.03     367.9  T
     SCC iter.                  ...        0 min,  0.251 sec
     gradient                   ...        0 min,  0.266 sec
 * total energy  :  -262.5628883 Eh     change       -0.4307850E-04 Eh
   gradient norm :     0.0029958 Eh/α   predicted    -0.2785755E-04 ( -35.33%)
   displ. norm   :     0.1636341 α      lambda       -0.1526951E-03
   maximum displ.:     0.0927469 α      in ANC's #17, #16, #21, ...

........................................................................
.............................. CYCLE   45 ..............................
........................................................................
   1   -266.1239622 -0.266124E+03  0.582E-03    1.02       0.0  T
   2   -266.1239639 -0.166048E-05  0.311E-03    1.02       2.8  T
   3   -266.1239632  0.703710E-06  0.241E-03    1.02       3.6  T
   4   -266.1239640 -0.831831E-06  0.130E-03    1.02       6.6  T
   5   -266.1239645 -0.466993E-06  0.335E-04    1.02      25.8  T
   6   -266.1239645 -0.360462E-07  0.746E-05    1.02     115.9  T
   7   -266.1239645 -0.152880E-08  0.329E-05    1.02     262.7  T
     SCC iter.                  ...        0 min,  0.292 sec
     gradient                   ...        0 min,  0.267 sec
 * total energy  :  -262.5629162 Eh     change       -0.2798288E-04 Eh
   gradient norm :     0.0075501 Eh/α   predicted    -0.7841719E-04 ( 180.23%)
   displ. norm   :     0.0660546 α      lambda       -0.1172263E-03
   maximum displ.:     0.0336888 α      in ANC's #17, #37, #16, ...

........................................................................
.............................. CYCLE   46 ..............................
........................................................................
   1   -266.1233396 -0.266123E+03  0.932E-04    1.02       0.0  T
   2   -266.1233396 -0.480611E-07  0.528E-04    1.02      16.4  T
   3   -266.1233396 -0.164048E-07  0.357E-04    1.02      24.2  T
   4   -266.1233397 -0.319656E-07  0.205E-04    1.02      42.2  T
   5   -266.1233397 -0.817465E-08  0.596E-05    1.02     144.9  T
   6   -266.1233397 -0.809450E-09  0.257E-05    1.02     336.4  T
     SCC iter.                  ...        0 min,  0.251 sec
     gradient                   ...        0 min,  0.266 sec
 * total energy  :  -262.5629867 Eh     change       -0.7043912E-04 Eh
   gradient norm :     0.0055181 Eh/α   predicted    -0.5887144E-04 ( -16.42%)
   displ. norm   :     0.0771455 α      lambda       -0.5838453E-04
   maximum displ.:     0.0448838 α      in ANC's #17, #16, #21, ...

........................................................................
.............................. CYCLE   47 ..............................
........................................................................
   1   -266.1219696 -0.266122E+03  0.169E-03    1.02       0.0  T
   2   -266.1219698 -0.234856E-06  0.814E-04    1.02      10.6  T
   3   -266.1219698  0.725214E-08  0.574E-04    1.02      15.1  T
   4   -266.1219698 -0.143526E-07  0.417E-04    1.02      20.7  T
   5   -266.1219699 -0.538391E-07  0.720E-05    1.02     119.9  T
   6   -266.1219699 -0.785576E-09  0.394E-05    1.02     219.5  T
     SCC iter.                  ...        0 min,  0.251 sec
     gradient                   ...        0 min,  0.266 sec
 * total energy  :  -262.5630330 Eh     change       -0.4631499E-04 Eh
   gradient norm :     0.0029040 Eh/α   predicted    -0.2936763E-04 ( -36.59%)
   displ. norm   :     0.2380431 α      lambda       -0.1189441E-03
   maximum displ.:     0.1384451 α      in ANC's #17, #16, #21, ...

........................................................................
.............................. CYCLE   48 ..............................
........................................................................
   1   -266.1193589 -0.266119E+03  0.414E-03    1.02       0.0  T
   2   -266.1193605 -0.158360E-05  0.208E-03    1.03       4.2  T
   3   -266.1193605 -0.193692E-07  0.144E-03    1.03       6.0  T
   4   -266.1193605 -0.206724E-07  0.106E-03    1.03       8.1  T
   5   -266.1193609 -0.361880E-06  0.175E-04    1.03      49.5  T
   6   -266.1193609 -0.421022E-08  0.108E-04    1.03      79.8  T
     SCC iter.                  ...        0 min,  0.251 sec
     gradient                   ...        0 min,  0.267 sec
 * total energy  :  -262.5631139 Eh     change       -0.8086968E-04 Eh
   gradient norm :     0.0044358 Eh/α   predicted    -0.6284277E-04 ( -22.29%)
   displ. norm   :     0.2036268 α      lambda       -0.6828982E-04
   maximum displ.:     0.1180805 α      in ANC's #17, #16, #21, ...

........................................................................
.............................. CYCLE   49 ..............................
........................................................................
   1   -266.1183765 -0.266118E+03  0.311E-03    1.03       0.0  T
   2   -266.1183776 -0.104318E-05  0.159E-03    1.03       5.4  T
   3   -266.1183776 -0.574972E-07  0.104E-03    1.03       8.3  T
   4   -266.1183776  0.450481E-07  0.814E-04    1.03      10.6  T
   5   -266.1183778 -0.216891E-06  0.149E-04    1.03      58.0  T
   6   -266.1183778 -0.310854E-08  0.841E-05    1.03     102.8  T
     SCC iter.                  ...        0 min,  0.251 sec
     gradient                   ...        0 min,  0.267 sec
 * total energy  :  -262.5631624 Eh     change       -0.4853516E-04 Eh
   gradient norm :     0.0065398 Eh/α   predicted    -0.3556153E-04 ( -26.73%)
   displ. norm   :     0.1869017 α      lambda       -0.7654675E-04
   maximum displ.:     0.1082503 α      in ANC's #17, #16, #21, ...

........................................................................
.............................. CYCLE   50 ..............................
........................................................................
   1   -266.1188140 -0.266119E+03  0.225E-03    1.03       0.0  T
   2   -266.1188150 -0.946432E-06  0.931E-04    1.03       9.3  T
   3   -266.1188151 -0.113467E-06  0.446E-04    1.03      19.4  T
   4   -266.1188151  0.160776E-08  0.384E-04    1.03      22.5  T
   5   -266.1188151 -0.438323E-07  0.886E-05    1.03      97.5  T
   6   -266.1188151 -0.730438E-10  0.534E-05    1.03     161.8  T
     SCC iter.                  ...        0 min,  0.251 sec
     gradient                   ...        0 min,  0.265 sec
 * total energy  :  -262.5632216 Eh     change       -0.5923794E-04 Eh
   gradient norm :     0.0063272 Eh/α   predicted    -0.3961095E-04 ( -33.13%)
   displ. norm   :     0.2199023 α      lambda       -0.1129571E-03
   maximum displ.:     0.1219029 α      in ANC's #17, #16, #6, ...

........................................................................
.............................. CYCLE   51 ..............................
........................................................................
   1   -266.1205599 -0.266121E+03  0.322E-03    1.03       0.0  T
   2   -266.1205615 -0.152402E-05  0.143E-03    1.03       6.0  T
   3   -266.1205616 -0.171171E-06  0.778E-04    1.03      11.1  T
   4   -266.1205615  0.831773E-07  0.671E-04    1.03      12.9  T
   5   -266.1205617 -0.151207E-06  0.155E-04    1.03      55.6  T
   6   -266.1205617 -0.681399E-08  0.638E-05    1.03     135.3  T
     SCC iter.                  ...        0 min,  0.251 sec
     gradient                   ...        0 min,  0.266 sec
 * total energy  :  -262.5633032 Eh     change       -0.8160095E-04 Eh
   gradient norm :     0.0041972 Eh/α   predicted    -0.5921038E-04 ( -27.44%)
   displ. norm   :     0.2672259 α      lambda       -0.9053818E-04
   maximum displ.:     0.1461777 α      in ANC's #17, #16, #6, ...

........................................................................
.............................. CYCLE   52 ..............................
........................................................................
   1   -266.1199839 -0.266120E+03  0.343E-03    1.03       0.0  T
   2   -266.1199859 -0.199753E-05  0.148E-03    1.03       5.8  T
   3   -266.1199862 -0.224778E-06  0.848E-04    1.03      10.2  T
   4   -266.1199862 -0.228427E-07  0.647E-04    1.03      13.3  T
   5   -266.1199863 -0.980261E-07  0.201E-04    1.03      42.9  T
   6   -266.1199863 -0.100386E-07  0.729E-05    1.03     118.5  T
   7   -266.1199863 -0.171485E-08  0.375E-05    1.03     230.5  T
     SCC iter.                  ...        0 min,  0.292 sec
     gradient                   ...        0 min,  0.267 sec
 * total energy  :  -262.5633701 Eh     change       -0.6681247E-04 Eh
   gradient norm :     0.0050359 Eh/α   predicted    -0.4850256E-04 ( -27.40%)
   displ. norm   :     0.2231854 α      lambda       -0.1104298E-03
   maximum displ.:     0.0951527 α      in ANC's #17, #6, #32, ...

........................................................................
.............................. CYCLE   53 ..............................
........................................................................
   1   -266.1217666 -0.266122E+03  0.514E-03    1.03       0.0  T
   2   -266.1217680 -0.144573E-05  0.292E-03    1.03       3.0  T
   3   -266.1217677  0.323092E-06  0.206E-03    1.03       4.2  T
   4   -266.1217679 -0.197294E-06  0.135E-03    1.03       6.4  T
   5   -266.1217685 -0.614905E-06  0.247E-04    1.03      34.9  T
   6   -266.1217685 -0.182690E-07  0.810E-05    1.03     106.7  T
   7   -266.1217685 -0.162407E-08  0.297E-05    1.03     290.5  T
     SCC iter.                  ...        0 min,  0.292 sec
     gradient                   ...        0 min,  0.266 sec
 * total energy  :  -262.5634300 Eh     change       -0.5997878E-04 Eh
   gradient norm :     0.0044986 Eh/α   predicted    -0.5796932E-04 (  -3.35%)
   displ. norm   :     0.3594877 α      lambda       -0.8815910E-04
   maximum displ.:     0.1905844 α      in ANC's #17, #6, #16, ...

........................................................................
.............................. CYCLE   54 ..............................
........................................................................
   1   -266.1167545 -0.266117E+03  0.894E-03    1.03       0.0  T
   2   -266.1167582 -0.367755E-05  0.536E-03    1.03       1.6  T
   3   -266.1167557  0.246838E-05  0.435E-03    1.03       2.0  T
   4   -266.1167595 -0.377317E-05  0.199E-03    1.03       4.4  T
   5   -266.1167605 -0.101813E-05  0.457E-04    1.03      18.9  T
   6   -266.1167606 -0.599974E-07  0.137E-04    1.03      63.0  T
   7   -266.1167606 -0.428048E-08  0.670E-05    1.03     128.9  T
     SCC iter.                  ...        0 min,  0.292 sec
     gradient                   ...        0 min,  0.266 sec
 * total energy  :  -262.5634502 Eh     change       -0.2017318E-04 Eh
   gradient norm :     0.0073765 Eh/α   predicted    -0.4977631E-04 ( 146.74%)
   displ. norm   :     0.1091806 α      lambda       -0.8692510E-04
   maximum displ.:     0.0631035 α      in ANC's #17, #16, #21, ...

........................................................................
.............................. CYCLE   55 ..............................
........................................................................
   1   -266.1196185 -0.266120E+03  0.555E-03    1.03       0.0  T
   2   -266.1196191 -0.651357E-06  0.350E-03    1.03       2.5  T
   3   -266.1196173  0.184902E-05  0.314E-03    1.03       2.7  T
   4   -266.1196201 -0.279887E-05  0.875E-04    1.03       9.9  T
   5   -266.1196202 -0.130371E-06  0.283E-04    1.03      30.5  T
   6   -266.1196202 -0.221900E-07  0.103E-04    1.03      83.6  T
   7   -266.1196202 -0.280960E-08  0.452E-05    1.03     191.2  T
     SCC iter.                  ...        0 min,  0.295 sec
     gradient                   ...        0 min,  0.266 sec
 * total energy  :  -262.5635054 Eh     change       -0.5521244E-04 Eh
   gradient norm :     0.0033146 Eh/α   predicted    -0.4398739E-04 ( -20.33%)
   displ. norm   :     0.1197720 α      lambda       -0.6714959E-04
   maximum displ.:     0.0538480 α      in ANC's #6, #36, #39, ...

........................................................................
.............................. CYCLE   56 ..............................
........................................................................
   1   -266.1206508 -0.266121E+03  0.257E-03    1.02       0.0  T
   2   -266.1206510 -0.260474E-06  0.161E-03    1.02       5.4  T
   3   -266.1206511 -0.716414E-07  0.124E-03    1.02       7.0  T
   4   -266.1206514 -0.300663E-06  0.575E-04    1.02      15.0  T
   5   -266.1206515 -0.566363E-07  0.162E-04    1.02      53.3  T
   6   -266.1206515 -0.862360E-08  0.459E-05    1.02     188.2  T
     SCC iter.                  ...        0 min,  0.254 sec
     gradient                   ...        0 min,  0.266 sec
 * total energy  :  -262.5635596 Eh     change       -0.5416199E-04 Eh
   gradient norm :     0.0032680 Eh/α   predicted    -0.3405858E-04 ( -37.12%)
   displ. norm   :     0.3243559 α      lambda       -0.1182927E-03
   maximum displ.:     0.1423258 α      in ANC's #6, #17, #39, ...

........................................................................
.............................. CYCLE   57 ..............................
........................................................................
   1   -266.1203837 -0.266120E+03  0.468E-03    1.02       0.0  T
   2   -266.1203876 -0.391221E-05  0.190E-03    1.02       4.5  T
   3   -266.1203882 -0.520076E-06  0.101E-03    1.02       8.6  T
   4   -266.1203883 -0.130979E-06  0.665E-04    1.02      13.0  T
   5   -266.1203884 -0.833029E-07  0.238E-04    1.02      36.3  T
   6   -266.1203884 -0.821717E-08  0.980E-05    1.02      88.1  T
   7   -266.1203884 -0.321501E-08  0.271E-05    1.02     318.2  T
     SCC iter.                  ...        0 min,  0.292 sec
     gradient                   ...        0 min,  0.265 sec
 * total energy  :  -262.5636453 Eh     change       -0.8574366E-04 Eh
   gradient norm :     0.0037381 Eh/α   predicted    -0.6537592E-04 ( -23.75%)
   displ. norm   :     0.2767272 α      lambda       -0.7185067E-04
   maximum displ.:     0.1286253 α      in ANC's #6, #39, #17, ...

........................................................................
.............................. CYCLE   58 ..............................
........................................................................
   1   -266.1196347 -0.266120E+03  0.520E-03    1.02       0.0  T
   2   -266.1196394 -0.467043E-05  0.217E-03    1.02       4.0  T
   3   -266.1196399 -0.464837E-06  0.115E-03    1.02       7.5  T
   4   -266.1196396  0.247376E-06  0.998E-04    1.02       8.7  T
   5   -266.1196399 -0.322473E-06  0.224E-04    1.02      38.5  T
   6   -266.1196400 -0.123478E-07  0.928E-05    1.02      93.1  T
   7   -266.1196400 -0.278152E-08  0.278E-05    1.02     311.1  T
     SCC iter.                  ...        0 min,  0.292 sec
     gradient                   ...        0 min,  0.265 sec
 * total energy  :  -262.5636909 Eh     change       -0.4553974E-04 Eh
   gradient norm :     0.0054916 Eh/α   predicted    -0.3867858E-04 ( -15.07%)
   displ. norm   :     0.1438419 α      lambda       -0.7136783E-04
   maximum displ.:     0.0714644 α      in ANC's #6, #21, #39, ...

........................................................................
.............................. CYCLE   59 ..............................
........................................................................
   1   -266.1218452 -0.266122E+03  0.462E-03    1.03       0.0  T
   2   -266.1218468 -0.167037E-05  0.283E-03    1.03       3.1  T
   3   -266.1218474 -0.589125E-06  0.203E-03    1.03       4.2  T
   4   -266.1218482 -0.745720E-06  0.108E-03    1.03       8.0  T
   5   -266.1218484 -0.206717E-06  0.154E-04    1.03      56.1  T
   6   -266.1218484 -0.642802E-08  0.741E-05    1.03     116.5  T
     SCC iter.                  ...        0 min,  0.251 sec
     gradient                   ...        0 min,  0.266 sec
 * total energy  :  -262.5637381 Eh     change       -0.4721448E-04 Eh
   gradient norm :     0.0037061 Eh/α   predicted    -0.3642737E-04 ( -22.85%)
   displ. norm   :     0.2374745 α      lambda       -0.6787397E-04
[...]
    29   6 C    3.923 --    40 C    1.321    27 C    1.307    30 C    1.032
    30   6 C    3.986 --    39 C    1.390    31 C    1.389    29 C    1.032
    31   6 C    3.985 --    32 C    1.451    30 C    1.389    59 H    0.971
                            38 C    0.106
    32   6 C    3.989 --    31 C    1.451    33 C    1.406    60 H    0.967
                            39 C    0.106
    33   6 C    3.929 --    38 C    1.407    32 C    1.406    34 S    0.754
    34  16 S    5.266 --    37 O    1.720    35 O    1.719    36 O    1.014
                            33 C    0.754
    35   8 O    2.078 --    34 S    1.719    37 O    0.139
    36   8 O    2.088 --    34 S    1.014    61 H    0.827
    37   8 O    2.079 --    34 S    1.720    35 O    0.139
    38   6 C    3.989 --    39 C    1.450    33 C    1.407    62 H    0.967
                            31 C    0.106
    39   6 C    3.986 --    38 C    1.450    30 C    1.390    63 H    0.971
                            32 C    0.106
    40   6 C    3.929 --    29 C    1.321    44 N    1.317    41 C    1.116
    41   6 C    3.967 --    42 C    1.725    40 C    1.116    64 H    0.973
    42   6 C    3.966 --    41 C    1.725    43 C    1.115    65 H    0.975
    43   6 C    3.927 --     1 C    1.367    44 N    1.300    42 C    1.115
    44   7 N    3.012 --    40 C    1.317    43 C    1.300
    45   1 H    1.001 --     1 C    0.970
    46   1 H    0.997 --     3 C    0.976
    47   1 H    1.003 --     4 C    0.974
    48   1 H    0.986 --     6 N    0.873
    49   1 H    1.003 --     9 C    0.971
    50   1 H    0.999 --    10 C    0.967
    51   1 H    0.854 --    14 O    0.828
    52   1 H    1.000 --    16 C    0.967
    53   1 H    1.003 --    17 C    0.971
    54   1 H    1.004 --    19 C    0.973
    55   1 H    1.003 --    20 C    0.974
    56   1 H    1.002 --    25 C    0.975
    57   1 H    1.003 --    26 C    0.974
    58   1 H    0.987 --    28 N    0.872
    59   1 H    1.003 --    31 C    0.971
    60   1 H    0.999 --    32 C    0.967
    61   1 H    0.853 --    36 O    0.827
    62   1 H    1.000 --    38 C    0.967
    63   1 H    1.003 --    39 C    0.971
    64   1 H    1.004 --    41 C    0.973
    65   1 H    0.998 --    42 C    0.975
    66   6 C    3.927 --   108 C    1.367    67 C    1.348   110 H    0.970
    67   6 C    3.900 --    66 C    1.348    68 C    1.228    71 N    1.169
    68   6 C    3.954 --    69 C    1.597    67 C    1.228   111 H    0.976
    69   6 C    3.959 --    68 C    1.597    70 C    1.232   112 H    0.974
    70   6 C    3.898 --    72 C    1.303    69 C    1.232    71 N    1.179
    71   7 N    3.470 --    70 C    1.179    67 C    1.169   113 H    0.873
    72   6 C    3.937 --    83 C    1.333    70 C    1.303    73 C    1.031
    73   6 C    3.986 --    74 C    1.390    82 C    1.390    72 C    1.031
    74   6 C    3.986 --    75 C    1.451    73 C    1.390   114 H    0.971
                            81 C    0.105
    75   6 C    3.989 --    74 C    1.451    76 C    1.407   115 H    0.967
                            82 C    0.106
    76   6 C    3.929 --    81 C    1.407    75 C    1.407    77 S    0.754
    77  16 S    5.265 --    80 O    1.724    78 O    1.716    79 O    1.012
                            76 C    0.754
    78   8 O    2.075 --    77 S    1.716    80 O    0.139
    79   8 O    2.087 --    77 S    1.012   116 H    0.828
    80   8 O    2.082 --    77 S    1.724    78 O    0.139
    81   6 C    3.989 --    82 C    1.450    76 C    1.407   117 H    0.967
                            74 C    0.105
    82   6 C    3.987 --    81 C    1.450    73 C    1.390   118 H    0.971
                            75 C    0.106
    83   6 C    3.914 --    72 C    1.333    86 N    1.288    84 C    1.124
    84   6 C    3.965 --    85 C    1.711    83 C    1.124   119 H    0.973
    85   6 C    3.963 --    84 C    1.711    87 C    1.127   120 H    0.974
    86   7 N    3.022 --    87 C    1.343    83 C    1.288
    87   6 C    3.908 --    86 N    1.343    88 C    1.256    85 C    1.127
    88   6 C    3.938 --    87 C    1.256    89 C    1.253   134 C    1.189
    89   6 C    3.884 --    88 C    1.253    90 C    1.248    93 N    1.188
    90   6 C    3.959 --    91 C    1.584    89 C    1.248   121 H    0.975
    91   6 C    3.954 --    90 C    1.584    92 C    1.240   122 H    0.974
    92   6 C    3.899 --    94 C    1.307    91 C    1.240    93 N    1.168
    93   7 N    3.475 --    89 C    1.188    92 C    1.168   123 H    0.872
    94   6 C    3.923 --   105 C    1.321    92 C    1.307    95 C    1.032
    95   6 C    3.986 --   104 C    1.390    96 C    1.389    94 C    1.032
    96   6 C    3.985 --    97 C    1.451    95 C    1.389   124 H    0.971
                           103 C    0.106
    97   6 C    3.989 --    96 C    1.451    98 C    1.407   125 H    0.967
                           104 C    0.106
    98   6 C    3.929 --   103 C    1.407    97 C    1.407    99 S    0.754
    99  16 S    5.266 --   102 O    1.720   100 O    1.719   101 O    1.014
                            98 C    0.754
   100   8 O    2.077 --    99 S    1.719   102 O    0.139
   101   8 O    2.088 --    99 S    1.014   126 H    0.827
   102   8 O    2.079 --    99 S    1.720   100 O    0.139
   103   6 C    3.989 --   104 C    1.450    98 C    1.407   127 H    0.967
                            96 C    0.106
   104   6 C    3.986 --   103 C    1.450    95 C    1.390   128 H    0.971
                            97 C    0.106
   105   6 C    3.929 --    94 C    1.321   109 N    1.317   106 C    1.116
   106   6 C    3.967 --   107 C    1.725   105 C    1.116   129 H    0.973
   107   6 C    3.966 --   106 C    1.725   108 C    1.115   130 H    0.975
   108   6 C    3.927 --    66 C    1.367   109 N    1.300   107 C    1.115
   109   7 N    3.012 --   105 C    1.317   108 C    1.300
   110   1 H    1.001 --    66 C    0.970
   111   1 H    0.997 --    68 C    0.976
   112   1 H    1.003 --    69 C    0.974
   113   1 H    0.986 --    71 N    0.873
   114   1 H    1.003 --    74 C    0.971
   115   1 H    0.999 --    75 C    0.967
   116   1 H    0.854 --    79 O    0.828
   117   1 H    1.000 --    81 C    0.967
   118   1 H    1.003 --    82 C    0.971
   119   1 H    1.004 --    84 C    0.973
   120   1 H    1.003 --    85 C    0.974
   121   1 H    1.002 --    90 C    0.975
   122   1 H    1.003 --    91 C    0.974
   123   1 H    0.987 --    93 N    0.872
   124   1 H    1.003 --    96 C    0.971
   125   1 H    0.999 --    97 C    0.967
   126   1 H    0.853 --   101 O    0.827
   127   1 H    1.000 --   103 C    0.967
   128   1 H    1.003 --   104 C    0.971
   129   1 H    1.004 --   106 C    0.973
   130   1 H    0.998 --   107 C    0.975
   131   6 C    3.933 --   132 C    2.475   133 C    1.309
   132   6 C    3.926 --   131 C    2.475    23 C    1.189   134 C    0.199
   133   6 C    3.933 --   134 C    2.475   131 C    1.309
   134   6 C    3.926 --   133 C    2.475    88 C    1.189   132 C    0.199
 ---------------------------------------------------------------------------

Topologies differ in total number of bonds
Writing topology from bond orders to xtbtopo.mol

 dipole moment from electron density (au)
     X       Y       Z   
  -0.0048  -0.3262   1.1370  total (Debye):    3.007

           -------------------------------------------------
          |                Geometry Summary                 |
           -------------------------------------------------

      molecular mass/u    :     1291.3691871
   center of mass at/Å    :       22.8623558       0.0050729      -0.0166845
  moments of inertia/u·Å² :        0.4767613E+05   0.6069157E+05   0.1073953E+06
rotational constants/cm⁻¹ :        0.3535864E-03   0.2777590E-03   0.1569680E-03

 * 138 selected distances

     #   Z          #   Z                                           value/Å
     1   6 C        2   6 C                                       1.3886815
     2   6 C        3   6 C                                       1.4234718
     3   6 C        4   6 C                                       1.3661463
     4   6 C        5   6 C                                       1.4246037
     2   6 C        6   7 N                                       1.3664660
     5   6 C        6   7 N                                       1.3655668
     5   6 C        7   6 C                                       1.3994044
     8   6 C        9   6 C                                       1.3973256
     9   6 C       10   6 C                                       1.3850958
    10   6 C       11   6 C                                       1.3855187
    11   6 C       12  16 S                                       1.7531652
    12  16 S       13   8 O                                       1.4338063
    12  16 S       14   8 O                                       1.6246822
    12  16 S       15   8 O                                       1.4327354
    11   6 C       16   6 C                                       1.3853928
     8   6 C       17   6 C                                       1.3972865
    16   6 C       17   6 C                                       1.3850607
     7   6 C       18   6 C                                       1.3972979
    18   6 C       19   6 C                                       1.4521151
    19   6 C       20   6 C                                       1.3489839
    18   6 C       21   7 N                                       1.3609527
    20   6 C       22   6 C                                       1.4502819
    21   7 N       22   6 C                                       1.3483760
    22   6 C       23   6 C                                       1.4094060
    23   6 C       24   6 C                                       1.4077015
    24   6 C       25   6 C                                       1.4200844
    25   6 C       26   6 C                                       1.3673361
    26   6 C       27   6 C                                       1.4226101
    24   6 C       28   7 N                                       1.3629363
    27   6 C       28   7 N                                       1.3693237
    27   6 C       29   6 C                                       1.3993096
    30   6 C       31   6 C                                       1.3974873
    31   6 C       32   6 C                                       1.3849723
    32   6 C       33   6 C                                       1.3855085
    33   6 C       34  16 S                                       1.7531840
    34  16 S       35   8 O                                       1.4332022
    34  16 S       36   8 O                                       1.6236510
    34  16 S       37   8 O                                       1.4330039
    33   6 C       38   6 C                                       1.3853164
    30   6 C       39   6 C                                       1.3973228
    38   6 C       39   6 C                                       1.3851557
    29   6 C       40   6 C                                       1.3988718
    41   6 C       42   6 C                                       1.3478038
     1   6 C       43   6 C                                       1.3885522
    42   6 C       43   6 C                                       1.4527133
    40   6 C       44   7 N                                       1.3538808
    43   6 C       44   7 N                                       1.3556390
     1   6 C       45   1 H                                       1.0852847
     3   6 C       46   1 H                                       1.0782364
     4   6 C       47   1 H                                       1.0779290
     6   7 N       48   1 H                                       1.0145252
     9   6 C       49   1 H                                       1.0837990
    10   6 C       50   1 H                                       1.0827899
    14   8 O       51   1 H                                       0.9649516
    16   6 C       52   1 H                                       1.0827359
    17   6 C       53   1 H                                       1.0836996
    19   6 C       54   1 H                                       1.0778868
    20   6 C       55   1 H                                       1.0781836
    25   6 C       56   1 H                                       1.0780201
    26   6 C       57   1 H                                       1.0777399
    28   7 N       58   1 H                                       1.0147531
    31   6 C       59   1 H                                       1.0837949
    32   6 C       60   1 H                                       1.0827558
    36   8 O       61   1 H                                       0.9649620
    38   6 C       62   1 H                                       1.0827661
    39   6 C       63   1 H                                       1.0837008
    41   6 C       64   1 H                                       1.0780381
    42   6 C       65   1 H                                       1.0785748
    66   6 C       67   6 C                                       1.3886824
    67   6 C       68   6 C                                       1.4234709
    68   6 C       69   6 C                                       1.3661440
    69   6 C       70   6 C                                       1.4246066
    67   6 C       71   7 N                                       1.3664767
    70   6 C       71   7 N                                       1.3655653
    70   6 C       72   6 C                                       1.3994008
    73   6 C       74   6 C                                       1.3973200
    74   6 C       75   6 C                                       1.3851049
    75   6 C       76   6 C                                       1.3855138
    76   6 C       77  16 S                                       1.7531580
    77  16 S       78   8 O                                       1.4338018
    77  16 S       79   8 O                                       1.6246788
    77  16 S       80   8 O                                       1.4327398
    76   6 C       81   6 C                                       1.3854020
    73   6 C       82   6 C                                       1.3972894
    81   6 C       82   6 C                                       1.3850466
    72   6 C       83   6 C                                       1.3972986
    83   6 C       84   6 C                                       1.4521277
    84   6 C       85   6 C                                       1.3489817
    83   6 C       86   7 N                                       1.3609299
    85   6 C       87   6 C                                       1.4502849
    86   7 N       87   6 C                                       1.3483865
    87   6 C       88   6 C                                       1.4093827
    88   6 C       89   6 C                                       1.4076913
    89   6 C       90   6 C                                       1.4200905
    90   6 C       91   6 C                                       1.3673257
    91   6 C       92   6 C                                       1.4226139
    89   6 C       93   7 N                                       1.3629337
    92   6 C       93   7 N                                       1.3693329
    92   6 C       94   6 C                                       1.3993060
    95   6 C       96   6 C                                       1.3974821
    96   6 C       97   6 C                                       1.3849901
    97   6 C       98   6 C                                       1.3854952
    98   6 C       99  16 S                                       1.7532132 (max)
    99  16 S      100   8 O                                       1.4332826
    99  16 S      101   8 O                                       1.6234348
    99  16 S      102   8 O                                       1.4330266
    98   6 C      103   6 C                                       1.3853358
    95   6 C      104   6 C                                       1.3973310
   103   6 C      104   6 C                                       1.3851288
    94   6 C      105   6 C                                       1.3988745
   106   6 C      107   6 C                                       1.3478083
    66   6 C      108   6 C                                       1.3885524
   107   6 C      108   6 C                                       1.4527101
   105   6 C      109   7 N                                       1.3538726
   108   6 C      109   7 N                                       1.3556417
    66   6 C      110   1 H                                       1.0852873
    68   6 C      111   1 H                                       1.0782356
    69   6 C      112   1 H                                       1.0779296
    71   7 N      113   1 H                                       1.0145232
    74   6 C      114   1 H                                       1.0838030
    75   6 C      115   1 H                                       1.0827937
    79   8 O      116   1 H                                       0.9649494 (min)
    81   6 C      117   1 H                                       1.0827330
    82   6 C      118   1 H                                       1.0836999
    84   6 C      119   1 H                                       1.0778875
    85   6 C      120   1 H                                       1.0781850
    90   6 C      121   1 H                                       1.0780157
    91   6 C      122   1 H                                       1.0777423
    93   7 N      123   1 H                                       1.0147499
    96   6 C      124   1 H                                       1.0838017
    97   6 C      125   1 H                                       1.0827696
   101   8 O      126   1 H                                       0.9649835
   103   6 C      127   1 H                                       1.0827690
   104   6 C      128   1 H                                       1.0836938
   106   6 C      129   1 H                                       1.0780355
   107   6 C      130   1 H                                       1.0785782
   131   6 C      132   6 C                                       1.2220497
   133   6 C      134   6 C                                       1.2220720

 * 7 distinct bonds (by element types)

   Z      Z             #   av. dist./Å        max./Å        min./Å
   1 H    6 C          34     1.0809381     1.0852873     1.0777399
   6 C    6 C          64     1.3924646     1.4527133     1.2220497
   1 H    7 N           4     1.0146378     1.0147531     1.0145232
   6 C    7 N          16     1.3603925     1.3693329     1.3483760
   1 H    8 O           4     0.9649616     0.9649835     0.9649494
   6 C   16 S           4     1.7531801     1.7532132     1.7531580
   8 O   16 S          12     1.4968371     1.6246822     1.4327354


optimized geometry written to: xtbopt.xyz


           -------------------------------------------------
          | TOTAL ENERGY             -262.564145639388 Eh   |
          | GRADIENT NORM               0.000736714745 Eh/α |
          | HOMO-LUMO GAP               1.026083253406 eV   |
           -------------------------------------------------

------------------------------------------------------------------------
 * finished run on 2022/07/31 at 23:13:44.763     
------------------------------------------------------------------------
 total:
 * wall-time:     0 d,  0 h,  0 min, 58.323 sec
 *  cpu-time:     0 d,  0 h,  0 min, 58.221 sec
 * ratio c/w:     0.998 speedup
 SCF:
 * wall-time:     0 d,  0 h,  0 min,  1.335 sec
 *  cpu-time:     0 d,  0 h,  0 min,  1.333 sec
 * ratio c/w:     0.998 speedup
 ANC optimizer:
 * wall-time:     0 d,  0 h,  0 min, 56.873 sec
 *  cpu-time:     0 d,  0 h,  0 min, 56.777 sec
 * ratio c/w:     0.998 speedup

