558
 energy: -1069.886471578185 gnorm: 0.000878808406 xtb: 6.5.1 (b24c23e)
C          137.20027823637031       -0.05599543739951        0.00588378004189
C          137.79474416452263       -1.28602667942476        0.25419533633870
C          137.12877421702373       -2.52170418471355        0.48982394227316
C          138.08037103085670       -3.48145936694111        0.68715160600345
C          139.35881764969059       -2.85986864355496        0.58993646298994
N          139.13569741450323       -1.54045562154484        0.32035566521462
C          140.61667555227388       -3.46267263448914        0.70597541599564
C          140.62956837496534       -4.91359854626996        1.00795384476431
C          141.20809431805029       -5.81626963130828        0.11043061398700
C          141.21665751761751       -7.17182973230979        0.38414575854904
C          140.64527324992738       -7.62905694781770        1.56817094234415
N          140.65098331811066       -9.05207876129955        1.86028833733724
O          141.17334996998255       -9.78320862235220        1.05875272138587
O          140.13083946793489       -9.41249709834453        2.88464753103278
C          140.06692581515037       -6.74708500439509        2.47637363386844
C          140.05936504605558       -5.39384325083243        2.19082145683648
C          141.84258361329302       -2.80734544648221        0.56123696195102
C          143.13071711456453       -3.45357349500021        0.74002600249576
C          144.06531887715477       -2.50402139204100        0.53215295719300
N          142.01704208371567       -1.48986802997796        0.26874933985042
C          143.34936134142546       -1.27742319156671        0.23916177965296
C          144.00288976711133       -0.06321454148400       -0.04922539060247
C          143.38056434389961        1.16487903832219       -0.34161297194370
C          144.03581137866914        2.38676432553247       -0.64809388139985
C          143.07894581747965        3.33981747755457       -0.85963983330954
C          141.80675504884448        2.73156225703493       -0.67243077464428
N          142.04059018113850        1.41668840639782       -0.36954289780894
C          140.55005717356735        3.33463788849858       -0.79904575892814
C          140.53316024282492        4.77814084322716       -1.13022128904557
C          139.91587505063427        5.22353348328561       -2.30347180331981
C          139.89648556248591        6.56924882115164       -2.62106766531079
C          140.49584678757776        7.47978191882900       -1.75544895444059
N          140.47741643878518        8.89467152961814       -2.08297149669233
O          139.92282885769623        9.22427655893852       -3.09953455087801
O          141.02072733476425        9.65038991997687       -1.31872011110160
C          141.11270726193041        7.05798988117227       -0.58114898875593
C          141.13061725363752        5.70943867050266       -0.27510002449707
C          139.32327478046892        2.68221948108174       -0.63330406763464
C          138.02819624641310        3.34279044460201       -0.70342913517843
C          137.10181842905257        2.39116603872205       -0.47512026199203
C          137.82950501107686        1.15317737642512       -0.25616652025769
N          139.16512185195347        1.36833224041700       -0.35089676238290
H          136.11518126898960       -0.04874302573862        0.01854817841339
H          136.05802609577538       -2.64761607570521        0.49681534116963
H          137.91693130530638       -4.53025668443524        0.87433638344287
H          139.86786530995968       -0.85165671489105        0.18381308163764
H          141.63763616446974       -5.44898732389104       -0.81424790949279
H          141.65672564282497       -7.87957052448555       -0.30804832651637
H          139.63338258290304       -7.12775950376865        3.39334133106870
H          139.62435806148432       -4.69585809513815        2.89665562644430
H          143.27920005822369       -4.48855242153885        1.00164287493215
H          145.13790619540362       -2.60166804901250        0.56758962306248
H          145.10465247409303        2.51396270651638       -0.69917318253421
H          143.23883095369177        4.37093766404683       -1.12905699432448
H          141.31192655510100        0.73224274263290       -0.19526216492587
H          139.46443003381387        4.50332466626821       -2.97571201287797
H          139.42609108982404        6.92268717831302       -3.53072249895119
H          141.56682571131469        7.78736980710299        0.07875147233082
H          141.59377623326100        5.37119559929199        0.64450732289869
H          137.87441775990720        4.39384903319539       -0.88687232533978
H          136.02810365516260        2.48736942214257       -0.44300186323666
C          231.32085070894163        0.06400033242598       -0.03923711192821
C          230.70530547316761        1.24735775515312       -0.42538038180977
C          231.35032276702128        2.44543175497038       -0.84309594089221
C          230.38332042855228        3.37054768737596       -1.11679703231620
C          229.11620157884445        2.77006611535561       -0.86423268484793
N          229.36081679578982        1.48860539653646       -0.46250458535417
C          227.84837603525312        3.34605167307193       -1.00859513313076
C          227.80761019231986        4.76660681821431       -1.42658055852264
C          227.16152595565063        5.13548130726387       -2.61066455584427
C          227.12539938570967        6.45924930487807       -3.00914619018948
C          227.73646266407044        7.42451005417331       -2.21394133200784
N          227.70215701767006        8.81670914724986       -2.62751278885741
O          227.13594641481654        9.07814930672624       -3.65729906310587
O          228.24345660693075        9.62268824693435       -1.91512687865838
C          228.38107697128086        7.07932884105506       -1.02968268245036
C          228.41615886235252        5.75199944224976       -0.64297647221051
C          226.63544468287077        2.68870773305764       -0.78461707278794
C          225.33746471836076        3.33546720688815       -0.86148467770918
C          224.42146865787862        2.38622754801900       -0.58082462247970
N          226.48628254320224        1.38031045397688       -0.44166103566708
C          225.15974878858910        1.16380960858489       -0.32713960946642
C          224.52857222472608       -0.05515584870864       -0.00927715083276
C          225.17064162689030       -1.26408129577107        0.31766941380775
C          224.53627083208895       -2.50429776763521        0.59294731610923
C          225.50847731009952       -3.42504717145782        0.86944280280464
C          226.76881625012280       -2.77180976422012        0.77768154448382
N          226.51331952857561       -1.47166893446223        0.43229681678956
C          228.03573469639005       -3.33696283771410        0.96519876863948
C          228.07771435098118       -4.76117871253038        1.36736183285441
C          228.73306229357240       -5.70053055719756        0.56458439339666
C          228.77374308525575       -7.03317716767924        0.93111399112460
C          228.15761289226745       -7.43118674430887        2.11410932952086
N          228.19640112083403       -8.82995130060463        2.50340026633575
O          228.77580380204694       -9.59489829081463        1.77594828349904
O          227.64598838300680       -9.13820271480874        3.52896696342079
C          227.50335698506797       -6.51224000001630        2.92951068277781
C          227.46401088465365       -5.18259310199025        2.55126623499767
C          229.24985326299637       -2.66160009261809        0.79569661387319
C          230.55705339110864       -3.24637512593557        1.05559703487181
C          231.46511475379418       -2.29202251695657        0.77149368181748
C          230.71409823041097       -1.12223380224812        0.35000992145992
N          229.38277818613832       -1.37776546090481        0.38913787005517
H          232.40598505309498        0.07765028289598       -0.04402984576371
H          232.41831749855868        2.56832344428624       -0.92491193423345
H          230.52918374165009        4.37777515165830       -1.47166176765976
H          228.63978222422202        0.81448155818683       -0.22820795525773
H          226.70096421137640        4.37270509724159       -3.22751513180101
H          226.63303525191139        6.75373797255347       -3.92812053242580
H          228.84409296339268        7.85034976715928       -0.42568013688342
H          228.90246029904739        5.47313298919530        0.28456895712301
H          225.17140404839955        4.37758087800825       -1.08096760702042
H          223.34947281564004        2.48466053372892       -0.52745955288002
H          223.47109466265729       -2.66720834228080        0.56827927674271
H          225.36737787507047       -4.46785037376549        1.10202405130271
H          227.23081887513928       -0.77206716769976        0.27262500544746
H          229.19650237688757       -5.38076966171694       -0.36131715025506
H          229.27326526462738       -7.76862589012110        0.31209343679915
H          227.03672611169864       -6.84647953790722        3.84829896324162
H          226.97076231234186       -4.45570440130678        3.18605339675965
H          230.73098602844482       -4.24559618178217        1.42075214220405
H          232.54039499640157       -2.34123291714345        0.83868092177846
C          145.41382799295738       -0.06260184020404       -0.05270475428798
C          146.63100966532565       -0.05821276427466       -0.05208500573968
C          156.34262981390660       -0.03610594119559       -0.09202402293154
C          157.56086520414624       -0.03814828416123       -0.09772550438439
C          167.26923218310051       -0.03988574184491       -0.08004747708129
C          168.48776875056785       -0.03986975195109       -0.07716440293231
C          178.19716148096813       -0.05370528743209       -0.06818560929459
C          179.41568566242324       -0.05433206489504       -0.06708331098063
C          189.12435367427503       -0.05312627452640       -0.07101944169752
C          190.34288785908103       -0.05297758673010       -0.07138204363205
C          200.05391770242332       -0.04815666324071       -0.05420873022601
C          201.27247131550442       -0.05019120865808       -0.05403428185311
C          210.98273577178415       -0.08587270117258       -0.07806742760363
C          212.20106085950698       -0.09396082455977       -0.08120300100528
C          221.90214688609370       -0.09697296660831       -0.03570134826811
C          223.11905190127203       -0.07915281448940       -0.01719118747756
C          148.04097531603924       -0.05293654429200       -0.05561908831398
C          148.66415876294900        0.88664253210947       -0.89864419828906
C          148.01702581884970        1.83774033352217       -1.72854430220947
C          148.98087571824999        2.53201581220833       -2.40679767851131
C          150.24670751307613        2.01182629518763       -2.02223756128291
N          150.00557259504001        1.03079331125405       -1.09923450244502
C          151.50525647974334        2.41322425547719       -2.48906854868904
C          151.51612707774854        3.47750486439322       -3.52096328182676
C          152.16221398885190        4.69150708499740       -3.26720608830102
C          152.17269143743582        5.69511464314594       -4.21851570170733
C          151.53592974140895        5.48097874993077       -5.43746440828024
N          151.54272516518779        6.53230094380734       -6.44073175167347
O          150.97060555024589        6.31544566237461       -7.47765641852962
O          152.11936180991290        7.55418360278688       -6.17205381288428
C          150.89226854035161        4.27806497735046       -5.71248960474440
C          150.88297339469563        3.28268030223171       -4.75216347266468
C          152.73488013351650        1.90025560761655       -2.07186011451556
C          154.00629334965222        2.27416989382406       -2.66584556760267
C          154.95475683785992        1.58252012831371       -2.00174128271708
N          152.93125690917569        0.98301693901373       -1.08557852129368
C          154.26369319878967        0.78875798829403       -1.00557144671969
C          154.93500650445029       -0.03891492871895       -0.08279870558405
C          154.30986110745133       -0.87767108737669        0.86064677479246
C          154.95264066210169       -1.67421949024452        1.84258523991693
C          153.98818995974898       -2.36267886353575        2.52569072094224
C          152.72582050906030       -2.00769298373425        1.97671475859298
N          152.96973372652906       -1.09584064801267        0.98543931967969
C          151.46882094668757       -2.47755758857127        2.37713778321065
C          151.46532779682934       -3.52078049941424        3.43063790758188
C          152.09368677702750       -4.74960668328199        3.20660391332079
C          152.08742947631600       -5.73070757113732        4.18142509066425
C          151.45267447296547       -5.47814170063023        5.39392467889581
N          151.44396455998756       -6.50506288242938        6.42229023531579
O          150.87634854366129       -6.25447618956546        7.45398157011801
O          152.00551513712233       -7.54145693853399        6.17838511011557
C          150.82606641184404       -4.25983493788754        5.63915648618255
C          150.83316781728195       -3.28747433508954        4.65568175120129
C          150.23698999959296       -2.05248032556349        1.87478490151544
C          148.96087007041481       -2.60968712794231        2.28755736411823
C          148.01213224191198       -1.93165872552732        1.61039288046592
C          148.70828549261699       -0.97317357485870        0.77545352191285
N          150.04342343663080       -1.07757231338274        0.94580283016059
H          146.94969109912307        1.96969340339350       -1.79532925249934
H          148.82825038695390        3.33691893429422       -3.10685269951651
H          150.72467583958732        0.48843787866455       -0.63226741175784
H          152.64407978050778        4.84932055422292       -2.30939780472447
H          152.66443640163763        6.64151226290238       -4.02819458288655
H          150.40968635499971        4.13431292831367       -6.67173792904742
H          150.39730373302007        2.33648543783467       -4.96056644857674
H          154.13298120218525        2.95566747255339       -3.49122615848349
H          156.02014463528710        1.58084110843679       -2.16371194349006
H          156.01635574544235       -1.70287688711270        2.01035277365772
H          154.13628185530885       -3.04533903910945        3.34628168964143
H          152.25259344945167       -0.64543039924249        0.42689313606605
H          152.57294874468280       -4.93900838038128        2.25312928979351
H          152.56458201267472       -6.68884060164162        4.01400049722973
H          150.34331413022733       -4.08677163191610        6.59345035046263
H          150.35901451716805       -2.33031746892132        4.83845684527563
H          148.82947404739616       -3.41640318357297        2.99003705679927
H          146.94219744589100       -2.05125585091168        1.65570553341620
C          158.96822127125324       -0.03944989237513       -0.10332996921054
C          159.60284989112299        1.00886908514716       -0.79848669859367
C          158.97400233935994        2.10509226587233       -1.44153673308845
C          159.94556246705696        2.85153243097400       -2.05070390563941
C          161.19762025166065        2.22732003829325       -1.80022642174857
N          160.94269849394462        1.13248769841468       -1.02000753954065
C          162.45605184659243        2.63119725489756       -2.26621646775686
C          162.47637463781575        3.78843896154223       -3.19073116912250
C          163.20565846667222        4.93638610711332       -2.86445003848147
C          163.22890264034419        6.02196505516737       -3.72072673508521
C          162.52122851283829        5.95766287776758       -4.91746740155920
N          162.54486926457500        7.09451571041337       -5.82265043039598
O          161.91682296853534        7.00405418795348       -6.84559786300661
O          163.19174920878550        8.05464535930521       -5.49294077375552
C          161.79169168380125        4.82392627461407       -5.26298827139693
C          161.76983717942389        3.74595602541826       -4.39680970555745
C          163.67690800104765        2.03973159416548       -1.93487361677132
C          164.94615385740332        2.41729380977930       -2.53069968540488
C          165.88895379226943        1.66544750503575       -1.92608710599055
N          163.86692826568222        1.05401728053097       -1.01570089535836
C          165.19629325947932        0.83087114382712       -0.96549630741235
C          165.86216801413923       -0.04397525461387       -0.08255821144068
C          165.22609793985731       -0.93232448574952        0.80742243041975
C          165.85314259696105       -1.77586507988491        1.75920829676285
C          164.88165058253779       -2.52471952518522        2.36528432056399
C          163.63109797088870       -2.16202169034439        1.79543738472018
N          163.88699561837780       -1.17930976530585        0.87783802651694
C          162.37396807786143       -2.70503698506150        2.09216404431472
C          162.35533196796922       -3.84377406400033        3.03924244512037
C          163.07274069108570       -5.01105588348997        2.75880650093975
C          163.05426551124214       -6.07683725962252        3.63994893910414
C          162.31672035718887       -5.97284435659253        4.81560590788189
N          162.29665280711029       -7.08882582598399        5.74656533255102
O          161.64145193448178       -6.96537776014582        6.74873208244242
O          162.93690505421580       -8.06615162024743        5.45689638402250
C          161.59780995776592       -4.81941799510458        5.11536826924209
C          161.61808839283447       -3.76159613652180        4.22491439614836
C          161.15312100878253       -2.26591655761760        1.57463632772464
C          159.88476459531356       -2.92845010943966        1.82084668304883
C          158.94179874146613       -2.18664063410760        1.20395588996394
C          159.63390876563145       -1.07684871504052        0.58089070899132
N          160.96317526810100       -1.16810399066966        0.79329301875147
H          157.91469155775056        2.30053025686523       -1.42730725771856
H          159.80823846856558        3.76078225751509       -2.61259405582068
H          161.65191516844621        0.50404670955242       -0.65791106756850
H          163.74256511225406        4.97813398463532       -1.92398510672278
H          163.78570453278573        6.91782996474693       -3.47352941976802
H          161.25373557563137        4.79719214433033       -6.20299720799347
H          161.21729009160529        2.85203780305175       -4.66190760992048
H          165.07503728309678        3.14237874375051       -3.31772021735364
H          166.95086364952056        1.64795744269334       -2.10820577586830
H          166.91113856922991       -1.79488943197372        1.96062117696660
H          165.01792499695915       -3.25386303300181        3.14700664378697
H          163.17879477462682       -0.70355917942823        0.32907866686255
H          163.63143305318269       -5.08612596853401        1.83310777938176
H          163.60101229791056       -6.98773721594881        3.42768458515646
H          161.03488129507946       -4.76240580694199        6.03925849565814
H          161.07278399982945       -2.85310763757003        4.45242463898000
H          159.75636692810588       -3.84580856252073        2.37195588466745
H          157.88040304314470       -2.36403754016938        1.14699145767434
C          169.89482077293326       -0.03897111483516       -0.07808816315917
C          170.53105304814738        1.00990768385318       -0.77168705167671
C          169.90453225516808        2.10937265517966       -1.41119025091218
C          170.87680887112131        2.85225835262007       -2.02360822298703
C          172.12707080676446        2.22230110418014       -1.77900787713142
N          171.87056227429758        1.12850309113102       -0.99765618668227
C          173.38480636406564        2.61965628677873       -2.25248463754767
C          173.40491583202609        3.77273767073497       -3.18208857947963
C          174.14324166786662        4.91802488067307       -2.86693635558837
C          174.16672241844765        5.99908845479290       -3.72893423293918
C          173.44983656238384        5.93306100278477       -4.92005990523378
N          173.47401004319116        7.06500212696837       -5.83154068025854
O          172.83441272370470        6.97476577221896       -6.84725953337296
O          174.13323379714768        8.02074071356714       -5.51388121756051
C          172.71081388162870        4.80212593040498       -5.25434446019177
C          172.68911857233979        3.72859138743466       -4.38268617878592
C          174.60495407709169        2.02462171805982       -1.92463042076431
C          175.87304929306748        2.39453450509603       -2.52757832903302
C          176.81577306304854        1.64299703944753       -1.92235156191191
N          174.79522704954940        1.04296552713814       -1.00122987395875
C          176.12410940294075        0.81588599802591       -0.95472484113664
C          176.79017602162654       -0.05599070202891       -0.06897240750651
C          176.15416490706639       -0.93870187045845        0.82658654548430
C          176.78137875791828       -1.77938872556363        1.78075265848229
C          175.80933198447633       -2.52272431646770        2.39280059762063
C          174.55842772860984       -2.15940381272820        1.82421339028760
N          174.81461917252165       -1.18193216920314        0.90124347509280
C          173.30050628069327       -2.69801704149790        2.12569762569061
C          173.28031807781107       -3.83049311915794        3.08032544364793
C          173.99297880155049       -5.00219234066471        2.80654990790214
C          173.97244062630242       -6.06171851413544        3.69521416932566
C          173.23770175740890       -5.94680638925336        4.87158855098629
N          173.21522439702764       -7.05630030885118        5.81030754829377
O          172.56172797165638       -6.92368964182849        6.81243111479421
O          173.85270077232957       -8.03729430299727        5.52704459849401
C          172.52362358722738       -4.78871610018921        5.16480675990620
C          172.54582644277457       -3.73728784351274        4.26687341657705
C          172.08002058042510       -2.26027813065860        1.60655820737973
C          170.81157385168959       -2.92123357194964        1.85638610631964
C          169.86891674357338       -2.18279965484493        1.23512774298937
C          170.56087141296274       -1.07570461445790        0.60727392317943
N          171.89005776649088       -1.16615864784143        0.81977687320368
H          168.84637572881064        2.31000749563857       -1.39189178866703
H          170.74111962734929        3.76278627805202       -2.58381954479547
H          172.57839042127509        0.49670892348717       -0.63871385783315
H          174.68715126883606        4.96143185612231       -1.93058409876444
H          174.73073061619752        6.89279360818904       -3.49041605965429
H          172.16563205104512        4.77399670760519       -6.19014048132420
H          172.12941829992991        2.83664482480974       -4.63929766291978
H          176.00133042582695        3.11465105977953       -3.31923716818354
H          177.87687423703372        1.62085687895064       -2.10862304562992
H          177.83990675359834       -1.80054802333616        1.97927291079011
H          175.94555457765802       -3.24873388136473        3.17743650454148
H          174.10641968452450       -0.70682155191692        0.35192300522942
H          174.54945167950478       -5.08576884433443        1.88024884035934
H          174.51536124663664       -6.97611091802031        3.48820727912179
H          171.96282394834120       -4.72317906219274        6.08941545411382
H          172.00413580175996       -2.82529101134854        4.48892432525274
H          170.68298876162362       -3.83544913010687        2.41264467152677
H          168.80753348430386       -2.36008409459598        1.17941482374329
C          180.82269275524712       -0.05244287824649       -0.06986150648677
C          181.45619563778496        0.99653471910033       -0.76576075845704
C          180.82629132979304        2.09372698269232       -1.40597709568585
C          181.79608994054786        2.83841953958111       -2.01999756500622
C          183.04823072169091        2.21213464553501       -1.77543198594425
N          182.79514140685581        1.11827904471984       -0.99292577852903
C          184.30463827527345        2.61332622649580       -2.24881737459235
C          184.32099780596300        3.76720258203178       -3.17759943875377
C          185.05353116036179        4.91555999335693       -2.86023264938276
C          185.07270695456484        5.99783036747632       -3.72082526253192
C          184.35751010481340        5.92980561583013       -4.91284738736847
N          184.37725552831407        7.06299498467549       -5.82292072256517
O          183.73906649843144        6.97106006005977       -6.83935921899166
O          185.03040438879870        8.02202302369619       -5.50262481350922
C          183.62436947755168        4.79572944324429       -5.24939793036262
C          183.60680929056849        3.72103065644893       -4.37905859104024
C          185.52658330561576        2.02185233042921       -1.92104254194331
C          186.79370975250075        2.39659748373235       -2.52292690002469
C          187.73840760417488        1.64643242054606       -1.91907685698459
N          185.71940358313705        1.03922681016692       -0.99925612591778
C          187.04891685253915        0.81542561726080       -0.95323908799882
C          187.71733051788777       -0.05671742806276       -0.06961210465143
C          187.08394729124223       -0.94116063784958        0.82621272884148
C          187.71401886228867       -1.78096480244842        1.77921932542293
C          186.74421645535006       -2.52632538204120        2.39240429469784
C          185.49187229381536       -2.16505553432833        1.82578337194727
N          185.74490542021164       -1.18681687650977        0.90280207937862
C          184.23534965697402       -2.70599499143247        2.12946208753986
C          184.21936446125113       -3.83945236409834        3.08308533074332
C          184.93270087279527       -5.00988348195354        2.80567224406975
C          184.91632935673169       -6.07052383994076        3.69309733560723
C          184.18520013335726       -5.95795648801574        4.87193824977959
N          184.16738687431805       -7.06852317662284        5.80952057356220
O          183.51507547490652       -6.93874936753849        6.81281358707972
O          184.80540877489702       -8.04822118075084        5.52324025066170
C          183.47053638184008       -4.80115859248247        5.16878960321994
C          183.48853976566389       -3.74860204479664        4.27206290699286
C          183.01321369987988       -2.26976978325890        1.61323425114379
C          181.74579804047511       -2.93141624397648        1.86664450763847
C          180.80109805145614       -2.19415837625767        1.24708120715605
C          181.49087941611089       -1.08732914660039        0.61622743737986
N          182.82049646061049       -1.17635295298521        0.82601440922642
H          179.76764005906170        2.29162282321958       -1.38591283194310
H          181.65757344173795        3.74785202744106       -2.58128832536545
H          183.50499059865001        0.48877682135761       -0.63395442069420
H          185.59616878835914        4.96035862647710       -1.92321321891443
H          185.63205041712371        6.89397743111175       -3.48051942711160
H          183.08039704364060        4.76618642972398       -6.18585710053812
H          183.05154925419507        2.82678539935019       -4.63731299371312
H          186.92009951400402        3.11892283356618       -3.31287883082871
H          188.79965798949789        1.62792060872884       -2.10488675795246
H          188.77281719660684       -1.80007400280904        1.97645208090436
H          186.88286299676548       -3.25227590295672        3.17667378745639
H          185.03494837806400       -0.71295540886584        0.35467693656111
H          185.48648861322894       -5.09155779444466        1.87759512330082
H          185.45981995387149       -6.98394434034576        3.48330330910520
H          182.91268325613837       -4.73743261222770        6.09530457907107
H          182.94645747812382       -2.83754079021276        4.49697278790486
H          181.61920831554576       -3.84513575235918        2.42417721666399
H          179.73962798030507       -2.37204677487779        1.19435173101285
C          191.74988618258959       -0.05128129467013       -0.07364746925125
C          192.38460553323057        0.99773448143462       -0.76822174516128
C          191.75606663852261        2.09406816275668       -1.41130754814616
C          192.72735478847250        2.83875877219356       -2.02288019002688
C          193.97918562888194        2.21342905264303       -1.77387029870992