282
 energy: -448.975847196634 gnorm: 0.728708536836 xtb: 6.5.1 (b24c23e)
Fe          44.63646599999999       -0.02519300000000       -0.02677100000000
C           41.27777699999999        0.17806800000000       -0.26208100000000
C           41.94209700000000        1.27890400000000        0.09939400000000
C           41.29244800000000        2.52239300000000        0.49684000000000
C           42.23516200000000        3.39823200000000        0.78699200000000
C           43.54088399999999        2.75746500000000        0.57968100000000
N           43.36171800000000        1.40890800000000        0.14660800000000
C           44.73605600000000        3.35297300000000        0.76595400000000
C           46.03137300000000        2.66151100000000        0.53813200000000
C           47.32814300000000        3.34815400000000        0.53902900000000
C           48.26132600000000        2.44518600000000        0.32196200000000
N           46.16424300000000        1.38726300000000        0.32618700000000
C           47.56770000000000        1.17018300000000        0.17867000000000
C           48.15928900000000       -0.01992900000000       -0.02031800000000
C           47.40072100000000       -1.28640300000000       -0.16142700000000
C           47.95790899999999       -2.49092800000000       -0.14511200000000
C           46.91067300000000       -3.45651100000000       -0.40508700000000
C           45.77650500000000       -2.78218000000000       -0.55989000000000
C           44.47455200000000       -3.40672900000000       -0.91852300000000
C           44.44948600000000       -4.84852300000000       -1.25308800000000
C           44.38300900000000       -5.26157500000000       -2.59134800000000
C           44.37836700000000       -6.62748500000000       -2.91085200000000
C           44.27258499999999       -7.06735500000000       -4.34117900000000
C           44.40617300000000       -7.57952200000000       -1.87989800000000
C           44.46323599999999       -7.17443000000000       -0.53805700000000
C           44.52998100000000       -8.20501700000000        0.55047400000000
C           44.49477399999999       -5.80603400000000       -0.22958600000000
C           43.32140700000000       -2.71233000000000       -0.93238100000000
C           42.00073699999999       -3.25277100000000       -1.25090300000000
C           41.14548300000000       -2.26826600000000       -1.06146600000000
C           41.90916600000000       -1.10032700000000       -0.62586000000000
N           43.17938500000000       -1.34731900000000       -0.54669200000000
N           45.99672400000000       -1.37696500000000       -0.41290700000000
C           44.78558799999999        4.76323800000000        1.21065400000000
C           44.47010499999999        5.79872900000000        0.31887400000000
C           44.51309100000000        7.13500400000000        0.74216200000000
C           44.19294600000000        8.24402000000000       -0.21638000000000
C           44.91372700000000        7.43311500000000        2.05318900000000
C           45.25475500000000        6.40455800000000        2.94423500000000
C           45.63708599999999        6.72532800000000        4.35889600000000
C           45.17363900000000        5.06967100000000        2.52221700000000
H           40.19482699999999        0.21504700000000       -0.28036000000000
H           40.22783299999999        2.70894600000000        0.55621700000000
H           42.04922899999999        4.41091700000000        1.11962200000000
H           47.50806699999999        4.40506300000000        0.68549200000000
H           49.32356400000000        2.64270000000000        0.26722000000000
H           49.00354800000000       -2.72239100000000        0.00507200000000
H           47.04623500000000       -4.52619700000000       -0.49153100000000
H           44.33892400000000       -4.52016700000000       -3.38115400000000
H           44.77508400000000       -8.04711800000000       -4.48873600000000
H           43.20226400000000       -7.16381000000000       -4.61870400000000
H           44.75710900000000       -6.32870000000000       -5.01531000000000
H           44.38503699999999       -8.63598700000000       -2.12139300000000
H           44.36141800000000       -7.74979700000000        1.55079000000000
H           43.75121200000000       -8.97995300000000        0.38699700000000
H           45.52916000000000       -8.68905700000000        0.54129800000000
H           44.55154100000000       -5.48231800000000        0.80383500000000
H           41.74688700000000       -4.25612500000000       -1.56600100000000
H           40.07388300000000       -2.32977800000000       -1.19863400000000
H           44.18607900000000        5.56322500000000       -0.70016000000000
H           43.70404300000000        9.08787300000000        0.31565200000000
H           43.50175500000000        7.89213200000000       -1.01132400000000
H           45.13022700000000        8.60768600000000       -0.68631600000000
H           44.95954300000000        8.46593100000000        2.37926700000000
H           44.72762500000000        6.73255900000000        4.99390800000000
H           46.12721500000000        7.72021600000000        4.41744600000000
H           46.34840900000000        5.96812200000000        4.75370800000000
H           45.41570200000000        4.26872700000000        3.21113000000000
Fe          88.57815700000000       -0.01226500000000       -0.01705800000000
C           91.93684500000001        0.15716400000000       -0.27778600000000
C           91.27252600000000       -0.49645700000000       -1.23449200000000
C           91.92217499999998       -1.22433500000000       -2.31819900000000
C           90.97945999999999       -1.74682100000000       -3.07865300000000
C           89.67373900000000       -1.36933700000000       -2.52092000000000
N           89.85290499999999       -0.57799200000000       -1.34621500000000
C           88.47856700000000       -1.71401500000000       -3.04103900000000
C           87.18325000000000       -1.30272100000000       -2.44032500000000
C           85.88648000000001       -1.49471800000000       -3.09957800000000
C           84.95329599999999       -1.03487700000000       -2.29272300000000
N           87.05038000000000       -0.74444800000000       -1.27543700000000
C           85.64692300000000       -0.54233500000000       -1.10800000000000
C           85.05533399999999       -0.01992900000000       -0.02031800000000
C           85.81390200000000        0.46814300000000        1.15682100000000
C           85.25671300000000        0.78776800000000        2.31827900000000
C           86.30394900000000        1.30625100000000        3.17333100000000
C           87.43811800000000        1.26722600000000        2.48256100000000
C           88.74007099999999        1.78553600000000        2.98259500000000
C           88.76513700000000        2.50822000000000        4.27427300000000
C           88.83161399999999        3.90856500000000        4.29847700000000
C           88.83625499999999        4.59566000000000        5.52146200000000
C           88.94203700000000        6.09189800000000        5.54579700000000
C           88.80844899999998        3.87046500000000        6.72285100000000
C           88.75138599999998        2.46889700000000        6.70728900000000
C           88.68464099999998        1.71026600000000        8.00015000000000
C           88.71984800000000        1.79170700000000        5.47884400000000
C           89.89321500000000        1.60555100000000        2.31178400000000
C           91.21388600000000        2.06192300000000        2.74219900000000
C           92.06913900000001        1.60592300000000        1.84933900000000
C           91.30545699999999        0.86242300000000        0.84881800000000
N           90.03523800000001        0.85513800000000        1.10808500000000
N           87.21789900000000        0.73489300000000        1.17380100000000
C           88.42903400000000       -2.53370500000000       -4.27177600000000
C           88.74451699999999       -1.96541400000000       -5.51457900000000
C           88.70153200000000       -2.74394100000000       -6.68021200000000
C           89.02167599999999       -2.13199400000000       -8.01221800000000
C           88.30089599999999       -4.08613500000000       -6.60159900000000
C           87.95986800000000       -4.65565000000000       -5.36566000000000
C           87.57753599999998       -6.10368900000000       -5.27996300000000
C           88.04098299999998       -3.87872900000000       -4.20100800000000
H           93.01979599999999        0.16442700000000       -0.31839200000000
H           92.98678900000000       -1.33329400000000       -2.48085000000000
H           91.16539400000001       -2.34819800000000       -3.95872100000000
H           85.70655499999999       -1.92959700000000       -4.07394400000000
H           83.89105800000000       -1.03728000000000       -2.49766800000000
H           84.21107400000000        0.70795100000000        2.58240000000000
H           86.16838700000000        1.68703900000000        4.17667600000000
H           88.87569800000000        4.46077400000000        3.36652000000000
H           88.43953800000000        6.50635300000000        6.44576100000000
H           90.01235800000001        6.38530400000000        5.56118700000000
H           88.45751300000001        6.53377000000000        4.64868300000000
H           88.82958600000001        4.39649600000000        7.67033600000000
H           88.85320399999999        0.62277000000000        7.84137300000000
H           89.46341099999999        2.08299600000000        8.69895100000000
H           87.68546299999998        1.85381800000000        8.46250400000000
H           88.66308099999999        0.70902000000000        5.45559000000000
H           91.46773600000000        2.64386400000000        3.61818500000000
H           93.14073900000000        1.75479300000000        1.87023700000000
H           89.02854300000000       -0.92110100000000       -5.57204500000000
H           89.51057900000001       -2.87789600000000       -8.67462100000000
H           89.71286800000000       -1.27051800000000       -7.89552100000000
H           88.08439600000000       -1.78186400000000       -8.49232300000000
H           88.25507899999998       -4.68682200000000       -7.50282500000000
H           88.48699800000000       -6.71561600000000       -5.11014400000000
H           87.08740800000000       -6.43686500000000       -6.21923000000000
H           86.86621399999999       -6.27211800000000       -4.44278300000000
H           87.79892100000001       -4.31746100000000       -3.23995200000000
C           51.93479700000000       -0.00719700000000       -0.01779300000000
C           50.68252600000000       -0.02637800000000       -0.02214100000000
C           53.24846500000000       -0.00796300000000       -0.01586000000000
C           54.75159800000000       -0.02637800000000       -0.02214100000000
C           65.86808000000001       -0.00719700000000       -0.01779300000000
C           64.61581000000000       -0.02637800000000       -0.02214100000000
C           67.18174900000000       -0.00796300000000       -0.01586000000000
C           68.68488199999999       -0.02637800000000       -0.02214100000000
C           79.80136399999999       -0.00719700000000       -0.01779300000000
C           78.54909399999998       -0.02637800000000       -0.02214100000000
C           81.11503199999999       -0.00796300000000       -0.01586000000000
C           82.61816600000000       -0.02637800000000       -0.02214100000000
Fe          59.53582500000000       -0.07131800000000       -0.03258500000000
C           56.16646300000000        0.02258800000000        0.02260400000000
C           56.82273200000000        1.19350900000000       -0.07606100000000
C           56.18276699999999        2.51055200000000       -0.09096200000000
C           57.11893000000000        3.42414000000000       -0.25254100000000
C           58.41537000000000        2.74571000000000       -0.35261400000000
N           58.23719000000000        1.33246500000000       -0.23150700000000
C           59.59942000000000        3.36562700000000       -0.54299900000000
C           60.89674200000000        2.64300500000000       -0.57818600000000
C           62.16571700000000        3.26019500000000       -0.98538000000000
C           63.11845500000000        2.36370200000000       -0.83058400000000
N           61.06470800000000        1.41539800000000       -0.19639600000000
C           62.46334200000000        1.16225800000000       -0.32965100000000
C           63.07827399999999        0.02258800000000        0.02260400000000
C           62.32709400000000       -1.16136500000000        0.49042600000000
C           62.86159300000000       -2.17377900000000        1.16125400000000
C           61.82917900000000       -3.18154500000000        1.31120500000000
C           60.73555000000000       -2.71693700000000        0.71760600000000
C           59.48257400000000       -3.48953300000000        0.54115600000000
C           59.54590800000000       -4.96910000000000        0.62715700000000
C           58.84823399999999       -5.65374600000000        1.63429300000000
C           58.92391200000000       -7.05084900000000        1.72669300000000
C           58.21383399999999       -7.77025100000000        2.83472200000000
C           59.72929400000000       -7.76132100000000        0.82393900000000
C           60.42450300000000       -7.08731700000000       -0.19096000000000
C           61.30905099999999       -7.85177200000000       -1.13079700000000
C           60.34163100000000       -5.68979500000000       -0.27549600000000
C           58.31066800000000       -2.87714700000000        0.28479800000000
C           57.03585799999999       -3.53701100000000        0.02251600000000
C           56.14759500000000       -2.57449800000000       -0.12038500000000
C           56.84416299999999       -1.29406300000000        0.04335800000000
N           58.10845500000000       -1.46404800000000        0.27721100000000
N           60.95958100000000       -1.41774300000000        0.17348300000000
C           59.63381700000000        4.83654600000000       -0.71599700000000
C           60.22119099999999        5.64532900000000        0.26766000000000
C           60.26964400000000        7.03754600000000        0.10586900000000
C           60.94140200000000        7.89266000000000        1.13943400000000
C           59.75090100000000        7.61661000000000       -1.06230700000000
C           59.15036599999999        6.81698700000000       -2.04643200000000
C           58.62851500000000        7.43964100000000       -3.30679900000000
C           59.10829999999999        5.42551200000000       -1.87600800000000
H           55.12876799999999        2.73018100000000        0.01377400000000
H           56.93363500000000        4.48987100000000       -0.29170000000000
H           62.31502900000000        4.26881300000000       -1.34794500000000
H           64.16805800000000        2.51888600000000       -1.04224300000000
H           63.88548299999999       -2.25693100000000        1.50081400000000
H           61.94566000000000       -4.14951500000000        1.78081200000000
H           58.25434100000000       -5.09717700000000        2.35001100000000
H           57.97497500000000       -8.81431200000000        2.53795500000000
H           58.86184000000000       -7.78938300000000        3.73570600000000
H           57.26094199999999       -7.25756600000000        3.08508800000000
H           59.81666800000000       -8.83817500000000        0.91147800000000
H           61.45789599999999       -7.29219200000000       -2.07949100000000
H           60.85209500000000       -8.83355800000000       -1.37970800000000
H           62.29707200000000       -8.02075700000000       -0.65256800000000
H           60.89481499999999       -5.16092900000000       -1.04281700000000
H           56.83322800000000       -4.59705600000000       -0.05436600000000
H           55.09817300000000       -2.72797300000000       -0.33243500000000
H           60.64201499999999        5.18899500000000        1.15632500000000
H           60.50800600000000        8.91546900000000        1.14570900000000
H           62.02611000000000        7.96064300000000        0.91373500000000
H           60.80806500000000        7.45803500000000        2.15285000000000
H           59.81429100000000        8.68884700000000       -1.20599600000000
H           58.20227200000000        8.44351000000000       -3.09640400000000
H           57.82733400000000        6.81315700000000       -3.75477200000000
H           59.45746499999999        7.54322400000000       -4.03806500000000
H           58.67261599999999        4.79849900000000       -2.64554600000000
Fe          73.46910899999999       -0.07131800000000       -0.03258500000000
C           70.09974699999999        0.02258800000000        0.02260400000000
C           70.75601600000000        1.19350900000000       -0.07606100000000
C           70.11605100000000        2.51055200000000       -0.09096200000000
C           71.05221299999999        3.42414000000000       -0.25254100000000
C           72.34865400000000        2.74571000000000       -0.35261400000000
N           72.17047300000000        1.33246500000000       -0.23150700000000
C           73.53270400000000        3.36562700000000       -0.54299900000000
C           74.83002600000000        2.64300500000000       -0.57818600000000
C           76.09900099999999        3.26019500000000       -0.98538000000000
C           77.05173799999999        2.36370200000000       -0.83058400000000
N           74.99799100000000        1.41539800000000       -0.19639600000000
C           76.39662599999998        1.16225800000000       -0.32965100000000
C           77.01155700000000        0.02258800000000        0.02260400000000
C           76.26037799999999       -1.16136500000000        0.49042600000000
C           76.79487700000000       -2.17377900000000        1.16125400000000
C           75.76246300000000       -3.18154500000000        1.31120500000000
C           74.66883399999999       -2.71693700000000        0.71760600000000
C           73.41585700000000       -3.48953300000000        0.54115600000000
C           73.47919200000000       -4.96910000000000        0.62715700000000
C           72.78151800000001       -5.65374600000000        1.63429300000000
C           72.85719599999999       -7.05084900000000        1.72669300000000
C           72.14711800000001       -7.77025100000000        2.83472200000000
C           73.66257800000000       -7.76132100000000        0.82393900000000
C           74.35778699999999       -7.08731700000000       -0.19096000000000
C           75.24233500000000       -7.85177200000000       -1.13079700000000
C           74.27491400000000       -5.68979500000000       -0.27549600000000
C           72.24395199999998       -2.87714700000000        0.28479800000000
C           70.96914099999999       -3.53701100000000        0.02251600000000
C           70.08087900000000       -2.57449800000000       -0.12038500000000
C           70.77744700000000       -1.29406300000000        0.04335800000000
N           72.04173899999999       -1.46404800000000        0.27721100000000
N           74.89286499999999       -1.41774300000000        0.17348300000000
C           73.56710099999999        4.83654600000000       -0.71599700000000
C           74.15447499999999        5.64532900000000        0.26766000000000
C           74.20292699999999        7.03754600000000        0.10586900000000
C           74.87468600000000        7.89266000000000        1.13943400000000
C           73.68418400000000        7.61661000000000       -1.06230700000000
C           73.08365000000001        6.81698700000000       -2.04643200000000
C           72.56179899999999        7.43964100000000       -3.30679900000000
C           73.04158400000000        5.42551200000000       -1.87600800000000
H           69.06205199999999        2.73018100000000        0.01377400000000
H           70.86691899999998        4.48987100000000       -0.29170000000000
H           76.24831200000000        4.26881300000000       -1.34794500000000
H           78.10134100000001        2.51888600000000       -1.04224300000000
H           77.81876699999999       -2.25693100000000        1.50081400000000
H           75.87894400000000       -4.14951500000000        1.78081200000000
H           72.18762500000000       -5.09717700000000        2.35001100000000
H           71.90825800000000       -8.81431200000000        2.53795500000000
H           72.79512400000000       -7.78938300000000        3.73570600000000
H           71.19422600000000       -7.25756600000000        3.08508800000000
H           73.74995099999998       -8.83817500000000        0.91147800000000
H           75.39118000000001       -7.29219200000000       -2.07949100000000
H           74.78537799999999       -8.83355800000000       -1.37970800000000
H           76.23035600000000       -8.02075700000000       -0.65256800000000
H           74.82809800000000       -5.16092900000000       -1.04281700000000
H           70.76651199999999       -4.59705600000000       -0.05436600000000
H           69.03145700000000       -2.72797300000000       -0.33243500000000
H           74.57529900000000        5.18899500000000        1.15632500000000
H           74.44129000000000        8.91546900000000        1.14570900000000
H           75.95939300000001        7.96064300000000        0.91373500000000
H           74.74134900000000        7.45803500000000        2.15285000000000
H           73.74757500000000        8.68884700000000       -1.20599600000000
H           72.13555599999999        8.44351000000000       -3.09640400000000
H           71.76061799999999        6.81315700000000       -3.75477200000000
H           73.39074900000000        7.54322400000000       -4.03806500000000
H           72.60590000000001        4.79849900000000       -2.64554600000000
282
 energy: -449.242005892094 gnorm: 0.461087045208 xtb: 6.5.1 (b24c23e)
Fe          44.64669941266863       -0.01569640169970       -0.03951536624014
C           41.27873408656335        0.16164839290492       -0.26767578145148
C           41.94970701415372        1.27711363107578        0.09959201545994
C           41.29390351486199        2.51407272979951        0.49380049144353
C           42.24771973518390        3.39850440905122        0.78718949937758
C           43.54252188455813        2.74831844096870        0.57789336032323
N           43.35092465661695        1.41385757578540        0.15640659938931
C           44.75215768054286        3.34881926077826        0.76296691196358
C           46.02465238344021        2.67326665446111        0.54216196441162
C           47.31474080564351        3.35672058774084        0.54357471958918
C           48.26041246906165        2.43784624061016        0.31968279194867
N           46.17112797195152        1.38005403948886        0.32259213400433
C           47.57885223494468        1.16306254590337        0.17768255655618
C           48.15423217173094       -0.03661012023700       -0.02094705381676
C           47.39982795418795       -1.26902189158046       -0.16523130906278
C           47.96108782965667       -2.51112612606516       -0.14806230685229
C           46.93065298301649       -3.45770069635949       -0.40433087641952
C           45.76606988311939       -2.76541979370557       -0.56286820493867
C           44.48990432738702       -3.39585507033000       -0.91400795982025
C           44.45808795528037       -4.84791467751530       -1.25247872381659
C           44.38379976742845       -5.26392074233026       -2.58668102134581
C           44.37495057288530       -6.62564534982511       -2.90602114338642
C           44.27465508966433       -7.06723641445441       -4.34164660605906
C           44.40663892086577       -7.57286485149737       -1.87841241285902
C           44.46459213474238       -7.17027763071277       -0.54053795145598
C           44.52851446828007       -8.20488263466624        0.55123650192982
C           44.49653543720782       -5.80678858582639       -0.23404568880203
C           43.32339990354848       -2.70684913247861       -0.93024185444584
C           42.01015149536366       -3.25032519710524       -1.24927281193711
C           41.13706349724182       -2.25549426176184       -1.05832022817282
C           41.89312595399058       -1.09038588555613       -0.62243708948238
N           43.18301994970425       -1.34971171758101       -0.54750270480650
N           45.99580205337939       -1.37404682643156       -0.40453604382430
C           44.79246785986784        4.76610294716262        1.20969809916116
C           44.46982268721457        5.79991678970839        0.32400306052127
C           44.51595933004783        7.13191195648613        0.74405036290304
C           44.19091780040809        8.24433102910088       -0.21625593705198
C           44.91334126663144        7.42721322119275        2.05138895886160
C           45.25048562777724        6.40358102408395        2.94137289226297
C           45.63934061296451        6.72552617582111        4.35899689282046
C           45.17494320117136        5.07370848544751        2.51874493704813
H           40.19553656901103        0.20875693236514       -0.28306767797187
H           40.22917730072308        2.69934498435131        0.55281591257766
H           42.06212379898947        4.41098393135233        1.11949233498509
H           47.49784549359070        4.40956399955434        0.68755677957823
H           49.32252173241321        2.63118441246325        0.26528703215529
H           49.00510037581076       -2.72852811142490        0.00505301225380
H           47.05157265566182       -4.52651425200415       -0.48917449319221
H           44.34011213288137       -4.52196695851461       -3.37858171043161
H           44.76934062664108       -8.04031135192663       -4.48818535470032
H           43.21198214991234       -7.16378511025721       -4.61920361666570
H           44.75145243082434       -6.33411974479053       -5.01117827808733
H           44.38550436591806       -8.63224737853843       -2.12063390048418
H           44.36384042254528       -7.75356926790120        1.54263565049691
H           43.75874507687536       -8.97602837081822        0.38905106809957
H           45.51993453366244       -8.68705832211237        0.54306304924773
H           44.55115680427348       -5.48332677994949        0.80111629436520
H           41.75893463202721       -4.25460448927175       -1.56474088455077
H           40.06990742781963       -2.32127157028404       -1.19690339812263
H           44.18645454964891        5.56347330012208       -0.69722192102079
H           43.70927599413380        9.08295998792686        0.31069457696006
H           43.50839698239476        7.89529585789337       -1.00663456405685
H           45.12104848492981        8.60673183832402       -0.68399917537181
H           44.95954917968714        8.46258439495267        2.37824358060730
H           44.73660886885589        6.73307887796472        4.99122984584576
H           46.12209637634805        7.71335288064376        4.41834796900582
H           46.34160425122076        5.97358258088743        4.75230974928021
H           45.41572172595389        4.27081305185555        3.20904332661637
Fe          88.56811082145029       -0.00265519982600       -0.02970278475477
C           91.93588627769027        0.16710653171793       -0.26358060511678
C           91.26493145786209       -0.49614193193102       -1.23273462370596
C           91.92072091777642       -1.21909863739619       -2.31106235871639
C           90.96687513768103       -1.74707166667854       -3.07886280141808
C           89.67207366445002       -1.36508023794881       -2.51253968887653
N           89.86373312255574       -0.58880532004859       -1.34829343786318
C           88.46224540012238       -1.70996333704493       -3.03768836015832
C           87.18976418543744       -1.30971935023927       -2.45015243530388
C           85.89980114675200       -1.50141781121079       -3.10650892919571
C           84.95388029044389       -1.03080176402194       -2.28652989793624
N           87.04231730146373       -0.73836935238450       -1.26900554805810
C           85.63405008619574       -0.53931917024734       -1.10131629973255
C           85.05475084575633       -0.01481937707383       -0.00452396331816
C           85.81317316037303        0.46707103603512        1.13886700566425
C           85.25315255671077        0.79635615651405        2.33703717493731
C           86.28387539640730        1.30580437699835        3.17461404127786
C           87.44829986579673        1.26529592721257        2.46535930722076
C           88.72461416182396        1.77810725933884        2.97331777883114
C           88.75650008800152        2.50745039469712        4.27382198463824
C           88.83082564947370        3.90472962794595        4.30201728021054
C           88.83967173006114        4.59050128573029        5.52103888757514
C           88.93996669250497        6.09231155599157        5.54555146420900
C           88.80798563653956        3.86718101921541        6.71686573574682
C           88.75003110752523        2.47011787278849        6.70261223060987
C           88.68610741778505        1.70949532741910        8.00022739337850
C           88.71808262593049        1.79619588941901        5.47831254115616
C           89.89117522475735        1.60194745859935        2.30709137902375
C           91.20445405772755        2.05967209854493        2.74030042370215
C           92.07754681596055        1.59933923664527        1.83796117645135
C           91.32148110382273        0.85635804061518        0.84022083737445
N           90.03158413216539        0.85661817765264        1.11010982883740