228
 energy: -390.095472788591 gnorm: 0.660713337072 xtb: 6.5.1 (b24c23e)
Ni          46.45168899999999        0.07351100000000        0.01996700000000
C           43.11512600000000       -0.08255900000000        0.00955500000000
C           43.77923500000000       -1.23476300000000       -0.11827400000000
C           43.12955600000000       -2.53150400000000       -0.26866400000000
C           44.07138500000000       -3.45521700000000       -0.31605600000000
C           45.37621500000000       -2.79079600000000       -0.19658800000000
N           45.19792800000000       -1.37921700000000       -0.07615200000000
C           46.56641800000000       -3.42252200000000       -0.15140800000000
C           47.86005100000000       -2.70648500000000       -0.00094000000000
C           49.15059400000000       -3.38128300000000        0.18397100000000
C           50.08531000000000       -2.45480700000000        0.24176500000000
N           48.00066900000000       -1.41743000000000       -0.06090800000000
C           49.40017400000000       -1.17739400000000        0.08636400000000
C           49.99474800000000        0.02503500000000        0.01567500000000
C           49.23373400000000        1.28261800000000       -0.16323500000000
C           49.77070200000000        2.42768900000000       -0.56543900000000
C           48.72696600000000        3.43244000000000       -0.52338100000000
C           47.62094900000000        2.83599400000000       -0.09408800000000
C           46.33584000000000        3.53800800000000        0.15711500000000
C           46.35495999999999        5.01280900000000        0.31507600000000
C           45.69569700000000        5.83876100000000       -0.61117200000000
C           45.73439900000000        7.22887400000000       -0.46607500000000
C           46.43595500000000        7.80283400000000        0.59790100000000
C           47.10199800000000        6.98760000000000        1.51739900000000
C           47.06520299999999        5.59694700000000        1.37647600000000
C           45.17079300000000        2.86800500000000        0.24581800000000
C           43.85843300000000        3.44894200000000        0.52460100000000
C           42.99684100000000        2.45187000000000        0.47211700000000
C           43.74982300000000        1.23492100000000        0.17383400000000
N           45.01797300000000        1.46502900000000        0.04040100000000
N           47.85070800000000        1.44736800000000        0.15293600000000
C           46.60519899999999       -4.89743200000000       -0.24331600000000
C           46.50420999999999       -5.52958300000000       -1.49221100000000
C           46.54230300000000       -6.92483200000000       -1.57680400000000
C           46.68221900000000       -7.69336500000000       -0.41720400000000
C           46.78406699999999       -7.06778300000000        0.82904700000000
C           46.74568600000000       -5.67283200000000        0.91789900000000
H           42.03172400000000       -0.11115900000000        0.00656600000000
H           42.06523000000000       -2.72122100000000       -0.32318800000000
H           43.88595200000000       -4.51708300000000       -0.41384100000000
H           49.32801300000000       -4.44613300000000        0.25607600000000
H           51.14398000000000       -2.63929100000000        0.36661700000000
H           50.80004099999999        2.59537100000000       -0.85260000000000
H           48.83981700000000        4.47908200000000       -0.77480000000000
H           45.15683800000000        5.40545000000000       -1.44485300000000
H           45.22312700000000        7.86131300000000       -1.18022800000000
H           46.46585499999999        8.87910300000000        0.70819500000000
H           47.64779900000000        7.43336100000000        2.33887100000000
H           47.58629300000000        4.97505400000000        2.09409500000000
H           43.61358900000000        4.48115100000000        0.73753900000000
H           41.92956500000000        2.53333800000000        0.63099200000000
H           46.39613599999999       -4.94203400000000       -2.39567100000000
H           46.46373899999999       -7.41029500000000       -2.54092600000000
H           46.71185699999999       -8.77318400000000       -0.48434200000000
H           46.89266400000000       -7.66379200000000        1.72590400000000
H           46.82532300000000       -5.19654700000000        1.88740900000000
Ni          80.48595299999998       -0.02358300000000        0.01785800000000
C           83.82251599999998        0.13279200000000        0.01423200000000
C           83.15840699999998        1.28946000000000       -0.06344500000000
C           83.80808500000001        2.59150800000000       -0.15738600000000
C           82.86625599999999        3.51640800000000       -0.16462400000000
C           81.56142699999999        2.84742600000000       -0.07411900000000
N           81.73971299999998        1.43194900000000       -0.01509000000000
C           80.37122400000000        3.47659500000000       -0.00155100000000
C           79.07759100000000        2.75469900000000        0.11768300000000
C           77.78704799999998        3.42083100000000        0.33172100000000
C           76.85233199999999        2.49272000000000        0.34923100000000
N           78.93697299999999        1.46946400000000        0.00179800000000
C           77.53746800000000        1.22325900000000        0.13850900000000
C           76.94289400000000        0.02503500000000        0.01567500000000
C           77.70390800000000       -1.22359400000000       -0.21767300000000
C           77.16694000000000       -2.35012100000000       -0.66921900000000
C           78.21067499999998       -3.35575000000000       -0.67082900000000
C           79.31669300000000       -2.77850800000000       -0.21604100000000
C           80.60180099999999       -3.49076700000000        0.00444200000000
C           80.58268099999998       -4.97103600000000        0.09821500000000
C           81.24194400000000       -5.75599000000000       -0.86302400000000
C           81.20324200000000       -7.15109200000000       -0.77842400000000
C           80.50168700000000       -7.77071000000000        0.25962500000000
C           79.83564400000000       -6.99617100000000        1.21365500000000
C           79.87243799999999       -5.60071100000000        1.13324900000000
C           81.76684899999999       -2.82524800000000        0.12215400000000
C           83.07920799999999       -3.41774200000000        0.37544900000000
C           83.94080099999999       -2.41933100000000        0.36630900000000
C           83.18781900000000       -1.19057800000000        0.12114900000000
N           81.91966800000000       -1.41467500000000       -0.02214900000000
N           79.08693400000000       -1.40191800000000        0.09104600000000
C           80.33244299999998        4.95410400000000       -0.02932900000000
C           80.43343100000000        5.63988900000000       -1.24959700000000
C           80.39533900000001        7.03749500000000       -1.27352500000000
C           80.25542299999999        7.75495100000000       -0.08164800000000
C           80.15357500000000        7.07584400000000        1.13626300000000
C           80.19195600000000        5.67835100000000        1.16446000000000
H           84.90591700000000        0.16149500000000        0.01248800000000
H           84.87241099999999        2.78341400000000       -0.20362000000000
H           83.05168900000000        4.58151900000000       -0.21620800000000
H           77.60962800000000        4.48154700000000        0.44999600000000
H           75.79366199999998        2.67160900000000        0.48197600000000
H           76.13759999999999       -2.50517600000000       -0.96339000000000
H           78.09782500000000       -4.39048800000000       -0.96745700000000
H           81.78080399999999       -5.28688700000000       -1.67710300000000
H           81.71451399999999       -7.75192500000000       -1.51936600000000
H           80.47178700000001       -8.85075300000000        0.32308200000000
H           79.28984199999999       -7.47718200000000        2.01499600000000
H           79.35134900000000       -5.01056400000000        1.87719500000000
H           83.32405299999999       -4.45822400000000        0.54336500000000
H           85.00807700000000       -2.50762100000000        0.52149700000000
H           80.54150600000000        5.09212400000000       -2.17771700000000
H           80.47390300000001        7.56436400000000       -2.21565900000000
H           80.22578500000000        8.83666600000000       -0.10183500000000
H           80.04497700000000        7.63234800000000        2.05815400000000
H           80.11231900000000        5.16041700000000        2.11237400000000
C           52.09998100000000        0.02503500000000        0.01567500000000
C           53.32189899999999        0.02503500000000        0.01567500000000
C           62.85786199999999        0.02503500000000        0.01567500000000
C           64.07978000000000        0.02503500000000        0.01567500000000
C           73.61574299999999        0.02503500000000        0.01567500000000
C           74.83766000000000        0.02503500000000        0.01567500000000
Ni          58.02189199999999        0.07010300000000        0.02474100000000
C           54.64768400000000       -0.02685500000000       -0.01681500000000
C           55.30650499999999       -1.19992700000000       -0.02162400000000
C           54.66105700000000       -2.51461600000000       -0.00970200000000
C           55.60080300000000       -3.43729900000000       -0.01798200000000
C           56.90446700000000       -2.76738100000000       -0.03937100000000
N           56.72853099999999       -1.34886000000000       -0.03845100000000
C           58.09099799999999       -3.40662900000000       -0.05781500000000
C           59.40011999999999       -2.71053800000000       -0.08349400000000
C           60.68508199999999       -3.41413000000000       -0.18152300000000
C           61.63972800000000       -2.50993500000000       -0.17581800000000
N           59.56103800000000       -1.42379000000000       -0.01952800000000
C           60.97358900000000       -1.21656600000000       -0.07202800000000
C           61.59565500000000       -0.02685500000000       -0.01681500000000
C           60.87132699999999        1.26150100000000        0.09731700000000
C           61.47207299999999        2.43391700000000        0.25172900000000
C           60.44150400000000        3.44674500000000        0.29132400000000
C           59.27209999999999        2.83315900000000        0.15155100000000
C           57.96528900000000        3.54256200000000        0.11548800000000
C           57.97445200000000        5.02473100000000        0.13813600000000
C           57.60681800000000        5.71723200000000        1.30319200000000
C           57.63086799999999        7.11503800000000        1.32665000000000
C           58.02758400000000        7.82714400000000        0.19054400000000
C           58.39798600000000        7.14278300000000       -0.97101500000000
C           58.37378499999999        5.74467500000000       -0.99900300000000
C           56.78318900000000        2.89750400000000        0.06289000000000
C           55.47452999999999        3.54121200000000       -0.00240900000000
C           54.58884200000000        2.56984400000000       -0.04364200000000
C           55.31713900000000        1.29697700000000       -0.00665500000000
N           56.60190399999999        1.48001300000000        0.05429400000000
N           59.45109800000000        1.42020000000000        0.02711300000000
C           58.11277900000000       -4.88527400000000       -0.06392200000000
C           57.97211500000000       -5.58879500000000       -1.27031700000000
C           58.00977500000000       -6.98648600000000       -1.27464400000000
C           58.18893199999999       -7.68614600000000       -0.07752800000000
C           58.32933899999999       -6.98891900000000        1.12646900000000
C           58.29390200000000       -5.59131700000000        1.13475100000000
H           53.60077999999999       -2.72864900000000        0.00664700000000
H           55.41449600000000       -4.50362000000000       -0.00720500000000
H           60.84158700000000       -4.48211800000000       -0.25185600000000
H           62.69887099999999       -2.72010000000000       -0.23860900000000
H           62.53483200000000        2.61782800000000        0.32936900000000
H           60.60726000000000        4.50877500000000        0.40552200000000
H           57.30648800000000        5.17445000000000        2.19047000000000
H           57.34524700000000        7.64682200000000        2.22585900000000
H           58.04806700000000        8.90879900000000        0.21206900000000
H           58.70741599999999        7.69514300000000       -1.84889000000000
H           58.66746400000000        5.22327500000000       -1.90184700000000
H           55.24728300000000        4.59977000000000       -0.02041000000000
H           53.51870499999999        2.71518000000000       -0.09834200000000
H           57.83684999999999       -5.05472900000000       -2.20251000000000
H           57.90258599999999       -7.52752700000000       -2.20585200000000
H           58.21972200000000       -8.76761800000000       -0.08240200000000
H           58.46807900000000       -7.53239100000000        2.05237900000000
H           58.40732999999999       -5.05873200000000        2.07070200000000
Ni          68.77977199999998        0.07010300000000        0.02474100000000
C           65.40556500000000       -0.02685500000000       -0.01681500000000
C           66.06438600000000       -1.19992700000000       -0.02162400000000
C           65.41893800000000       -2.51461600000000       -0.00970200000000
C           66.35868400000000       -3.43729900000000       -0.01798200000000
C           67.66234700000000       -2.76738100000000       -0.03937100000000
N           67.48641200000000       -1.34886000000000       -0.03845100000000
C           68.84887799999998       -3.40662900000000       -0.05781500000000
C           70.15800100000000       -2.71053800000000       -0.08349400000000
C           71.44296299999999       -3.41413000000000       -0.18152300000000
C           72.39760900000000       -2.50993500000000       -0.17581800000000
N           70.31891800000000       -1.42379000000000       -0.01952800000000
C           71.73147000000000       -1.21656600000000       -0.07202800000000
C           72.35353600000001       -0.02685500000000       -0.01681500000000
C           71.62920699999999        1.26150100000000        0.09731700000000
C           72.22995400000001        2.43391700000000        0.25172900000000
C           71.19938499999999        3.44674500000000        0.29132400000000
C           70.02998100000001        2.83315900000000        0.15155100000000
C           68.72317000000000        3.54256200000000        0.11548800000000
C           68.73233300000000        5.02473100000000        0.13813600000000
C           68.36469900000000        5.71723200000000        1.30319200000000
C           68.38874799999999        7.11503800000000        1.32665000000000
C           68.78546400000000        7.82714400000000        0.19054400000000
C           69.15586699999999        7.14278300000000       -0.97101500000000
C           69.13166600000000        5.74467500000000       -0.99900300000000
C           67.54107000000000        2.89750400000000        0.06289000000000
C           66.23241100000000        3.54121200000000       -0.00240900000000
C           65.34672300000000        2.56984400000000       -0.04364200000000
C           66.07501999999999        1.29697700000000       -0.00665500000000
N           67.35978500000000        1.48001300000000        0.05429400000000
N           70.20897800000000        1.42020000000000        0.02711300000000
C           68.87065900000000       -4.88527400000000       -0.06392200000000
C           68.72999500000000       -5.58879500000000       -1.27031700000000
C           68.76765500000000       -6.98648600000000       -1.27464400000000
C           68.94681199999998       -7.68614600000000       -0.07752800000000
C           69.08721999999999       -6.98891900000000        1.12646900000000
C           69.05178300000000       -5.59131700000000        1.13475100000000
H           64.35866100000000       -2.72864900000000        0.00664700000000
H           66.17237700000000       -4.50362000000000       -0.00720500000000
H           71.59946700000000       -4.48211800000000       -0.25185600000000
H           73.45675199999998       -2.72010000000000       -0.23860900000000
H           73.29271199999999        2.61782800000000        0.32936900000000
H           71.36514099999999        4.50877500000000        0.40552200000000
H           68.06436900000000        5.17445000000000        2.19047000000000
H           68.10312799999998        7.64682200000000        2.22585900000000
H           68.80594799999999        8.90879900000000        0.21206900000000
H           69.46529699999999        7.69514300000000       -1.84889000000000
H           69.42534499999999        5.22327500000000       -1.90184700000000
H           66.00516399999999        4.59977000000000       -0.02041000000000
H           64.27658599999999        2.71518000000000       -0.09834200000000
H           68.59473100000000       -5.05472900000000       -2.20251000000000
H           68.66046699999998       -7.52752700000000       -2.20585200000000
H           68.97760300000000       -8.76761800000000       -0.08240200000000
H           69.22595899999999       -7.53239100000000        2.05237900000000
H           69.16521099999999       -5.05873200000000        2.07070200000000
228
 energy: -390.304397358365 gnorm: 0.366987108359 xtb: 6.5.1 (b24c23e)
Ni          46.46457092615754        0.06155742215654        0.01637760475732
C           43.11520478489478       -0.06387111907784        0.01208169719516
C           43.78675082032745       -1.23341896494623       -0.11869201341021
C           43.13133332609669       -2.52286416315080       -0.26821605897364
C           44.08455761571861       -3.45500684853602       -0.31589166164106
C           45.37806497502343       -2.77963001430305       -0.19751070431233
N           45.18224264616730       -1.38916176337779       -0.07364359476995
C           46.58485526376234       -3.41576136260235       -0.15000668244751
C           47.85328570307112       -2.71696677046843       -0.00171361160307
C           49.13524476645586       -3.39051779013938        0.18084642335192
C           50.08371832957017       -2.44737720210464        0.24085850753849
N           48.01459233059271       -1.40330484268787       -0.05143296498630
C           49.41904598059092       -1.16775511488623        0.08644503122610
C           50.03021086886550        0.04350346067663        0.00950984033602
C           49.24070949443141        1.26709084456584       -0.15148770007988
C           49.77566017500973        2.45225239266340       -0.56724290851288
C           48.75118093352673        3.43356584964713       -0.52440501893399
C           47.61326406221925        2.81933277570198       -0.08394408171235
C           46.35348625666006        3.52669208300034        0.15666047495394
C           46.36533579669728        5.00995166516975        0.30988048587229
C           45.69807538765746        5.83831244560349       -0.60552990582197
C           45.73682235920624        7.22391023591175       -0.46163638221476
C           46.43581525641304        7.79767375853872        0.59738367455289
C           47.09840527862470        6.98423975751830        1.51316490553093
C           47.06534445941879        5.59892802945329        1.37122347492741
C           45.17378782817899        2.86203208311178        0.24690763483715
C           43.86900399593465        3.44441310154493        0.52232234420639
C           42.98803095895436        2.43704639648854        0.46879826202607
C           43.73186545076722        1.22324824123268        0.17255023536586
N           45.02570681352448        1.46523148279653        0.05041275280761
N           47.85533078175899        1.44068341275080        0.13934947983563
C           46.61166717841898       -4.89975532633459       -0.24299248469765
C           46.50451467685005       -5.53261474056992       -1.48709789138749
C           46.54226868830346       -6.92235984698223       -1.57139799809517
C           46.68212918036253       -7.68874771063901       -0.41690636726267
C           46.78335969264943       -7.06511657703194        0.82428067030008
C           46.74721308646813       -5.67592961601561        0.91320507670918
H           42.03211085719898       -0.10304616642058        0.00851823740609
H           42.06684885501151       -2.70992648421547       -0.32249720114217
H           43.90101333546639       -4.51669556568097       -0.41363978523488
H           49.31509563932610       -4.45140827846658        0.25484667895217
H           51.14213020579266       -2.62777723560475        0.36601609589633
H           50.80214945168293        2.60521744167817       -0.85484510425509
H           48.84727029683419        4.47842385315117       -0.77687011314714
H           45.15922337102761        5.40444347188439       -1.44188290500495
H           45.22457278846122        7.85829923412597       -1.17833499773331
H           46.46581992272804        8.87659348695467        0.70780987457904
H           47.64601985156379        7.43126929095551        2.33675036647384
H           47.58477088839825        4.97526510866606        2.09138155182030
H           43.62763728135025        4.47815795739331        0.73509531526681
H           41.92521002101626        2.52303150958388        0.62943157256537
H           46.39681590475618       -4.94234239959877       -2.39177402036341
H           46.46388902372258       -7.40858078897290       -2.53842894027906
H           46.71182391284569       -8.77100449243076       -0.48425249374046
H           46.89217376460858       -7.66213072451256        1.72378074964391
H           46.82509339584310       -5.19676371975970        1.88397515424433
Ni          80.47315395624911       -0.01149306665909        0.01481879870300
C           83.82241460757983        0.11405452445290        0.01594854709981
C           83.15093332127582        1.28812925364810       -0.06392061085735
C           83.80631345310096        2.58287103083088       -0.15732131328383
C           82.85308948389277        3.51615897730905       -0.16445953820825
C           81.55957568494387        2.83621362213208       -0.07552819264609
N           81.75535971178162        1.44177931674828       -0.01215483981729
C           80.35267079825758        3.46978436433753       -0.00042973259134
C           79.08447431079064        2.76527658053403        0.11735590392885
C           77.80227524447757        3.43018344928663        0.32902721182432
C           76.85386302847273        2.48546019393267        0.34805520005789
N           78.92328918206525        1.45493249908113        0.01049442358999
C           77.51897251083726        1.21372501318714        0.13816816174324
C           76.90988401329045        0.00630597859046        0.00890238454579
C           77.69717186956576       -1.20916915163894       -0.20541965999087
C           77.16193864729661       -2.37487051471628       -0.67221517891147
C           78.18647553923626       -3.35692687690605       -0.67190195685132
C           79.32436657850883       -2.76234139195533       -0.20519823853244
C           80.58421272199662       -3.47947814860310        0.00446158346483
C           80.57229559488411       -4.96798989541843        0.09314355901800
C           81.23959187851310       -5.75578822745769       -0.85737742489510
C           81.20081637574351       -7.14632447863875       -0.77377452892963
C           80.50182570305229       -7.76552220020115        0.25933085732446
C           79.83923869315844       -6.99263430565389        1.20957193553301
C           79.87225915580001       -5.60246271953404        1.12791636267048
C           81.76383413492456       -2.81932329374142        0.12350224650476
C           83.06865728473159       -3.41311156805731        0.37337076493729
C           83.94959626294526       -2.40440753973491        0.36363679845097
C           83.20574785006680       -1.17887603676717        0.12036932582995
N           81.91194794842382       -1.41527544488480       -0.01216633839070
N           79.08242302216063       -1.39477822981976        0.07796745977369
C           80.32593870046257        4.95645856450228       -0.02890153321371
C           80.43313239994767        5.64268859783189       -1.24437706784178
C           80.39537456315134        7.03478859718955       -1.26822643326502
C           80.25551461133625        7.75031225356322       -0.08155046428427
C           80.15429031908808        7.07338957284940        1.13138302733114
C           80.19042043624957        5.68164862906275        1.15992989854430
H           84.90550318898165        0.15331546015081        0.01407993401748
H           84.87077776907154        2.77210450173100       -0.20342035311284
H           83.03660404782106        4.58108872204428       -0.21602209005025
H           77.62247890886843        4.48683041883720        0.44898810280779
H           75.79548035600239        2.66014497524871        0.48086038108515
H           76.13542830233871       -2.51501915971447       -0.96611147921010
H           78.09038280616309       -4.38977244954657       -0.96950860224871
H           81.77841932692165       -5.28600572932639       -1.67410259783886
H           81.71306336858943       -7.74897851645399       -1.51733865229257
H           80.47182246155855       -8.84820819341544        0.32280550390231
H           79.29162887421543       -7.47498714713441        2.01296622661537
H           79.35287348802095       -5.01065330262165        1.87449343764041
H           83.31000241329066       -4.45511188857419        0.54104902173610
H           85.01240517776911       -2.49725650742538        0.52038391275021
H           80.54082159508462        5.09225435618100       -2.17382180382911
H           80.47375114947106        7.56252154897872       -2.21322942809331
H           80.22581691334584        8.83446107701614       -0.10184034381423
H           80.04546826393724        7.63076120561777        2.05595233303319
H           80.11254828086938        5.16077654299293        2.10896600001128
C           52.01482956621641        0.02259000248344        0.01386496233028
C           53.24616397674006        0.02881116919214        0.01594682826787
C           62.87711126252223        0.03803125314610        0.01330326953837
C           64.08235983432185        0.03082840485236        0.01727000323827
C           73.70242160857798        0.03773126448622        0.01403272383103
C           74.93390851518438        0.02478459071871        0.01492808514116
Ni          58.03147697536814        0.05998614915191        0.02069336938904
C           54.63912621911673       -0.00715731492230       -0.01469307855360
C           55.31430214446819       -1.20108252969458       -0.02055348415133
C           54.66161667644378       -2.50279545587702       -0.00962088196062
C           55.61387384178449       -3.43687133688854       -0.01795355591918
C           56.90480013853715       -2.75768368000491       -0.03857190792603
N           56.71208549332795       -1.35838741550722       -0.03842754425754
C           58.10564263899114       -3.40434694841712       -0.05857014399141
C           59.38548292869093       -2.73228432290597       -0.08339210779389
C           60.66294952574038       -3.42779462930455       -0.18087573585763
C           61.62639266117445       -2.49894858894539       -0.17543010560527
N           59.55501346648333       -1.42291751808179       -0.02246573861544
C           60.94408131918605       -1.22554368246516       -0.07322694215283
C           61.54592539964057       -0.00915421755049       -0.01171702855412
C           60.83631475051637        1.25709364688303        0.09485105032724
C           61.46606182052203        2.45734895529560        0.25325538862867
C           60.46118024717329        3.45149646756353        0.29118192464381
C           59.25599617703236        2.82241242306958        0.14846658133558
C           57.98160171084758        3.53182676716232        0.11598637254487
C           57.98442744840061        5.02301607186067        0.14017609843174
C           57.60818037256085        5.71834989203602        1.29761905310324
C           57.63215768051845        7.11127675515768        1.32112229605759
C           58.02724867213858        7.82205517068597        0.19038613471970
C           58.39597167332377        7.13921529709911       -0.96612755238011
C           58.37496858276440        5.74642877439292       -0.99351280986110
C           56.78659231864918        2.89198134206492        0.06287208807197
C           55.48600219306017        3.53641419714213       -0.00197803856833
C           54.57984480791191        2.55317654696335       -0.04364426224269
C           55.30228264940529        1.28898896161642       -0.00676937230560
N           56.60862406587641        1.48274835168351        0.05276018602067
N           59.43982023986032        1.42667318086070        0.03056648149060
C           58.11831725651341       -4.88956936866881       -0.06471591980188
C           57.97273332913239       -5.59243625181299       -1.26568014109198
C           58.01004311908281       -6.98426268561803       -1.26964880438860
C           58.18868980420900       -7.68164648180391       -0.07741826526803
C           58.32848593137815       -6.98679787159593        1.12160178077682