304
 energy: -539.579979416095 gnorm: 0.000968335408 xtb: 6.5.1 (b24c23e)
Co          42.98015470051222       -0.07769118794704        0.08496886326729
C           39.61860999894574       -0.24605832907688        0.31932591102716
C           40.31084440090478        0.44758370139653        1.28846809242703
C           39.68402494953438        1.10569342100953        2.39456693154784
C           40.63956379322260        1.85550795479772        2.99181348787594
C           41.85267726445090        1.64492816969469        2.25847537749252
N           41.64984717070698        0.74480525246236        1.24311176966442
C           43.01991213340379        2.36635841600502        2.46062192030248
C           44.17813095640485        2.10149251588522        1.74916869724856
C           45.42019554573177        2.77930434380653        1.96835538990901
C           46.36631976873925        2.09522269634678        1.28224974846309
N           44.35541958917508        1.04425139774998        0.88445995706989
C           45.69922573110730        1.00825310128719        0.63754501511035
C           46.36882107701155       -0.00272776773673       -0.05478216079676
C           45.68318137515831       -1.00979065856493       -0.73554557438437
C           46.33516682491086       -2.04826822519874       -1.46990145950743
C           45.36780108484891       -2.70729350072570       -2.15136797931043
C           44.12705440632980       -2.07065705489508       -1.82883531662548
C           42.91806223306949       -2.37733107345354       -2.43227752326623
C           42.89405366284118       -3.38369376128492       -3.52769387304073
C           43.51414188848692       -3.11093269041304       -4.75481366344688
O           44.10442629537704       -1.89212977219220       -4.86447081237245
C           44.77896450737231       -1.52623004269102       -6.05116663905384
C           43.49189017387986       -4.05446703244751       -5.78151900770708
C           42.85543257158842       -5.26905265199746       -5.57587944159305
C           42.23903595951935       -5.56323013401947       -4.36912016752752
C           42.25665108684436       -4.61853474054388       -3.34358666511802
O           41.69064406087157       -4.82000740070661       -2.12450023948572
C           41.01676060887672       -6.02829484563848       -1.83708088004244
C           41.72854039055591       -1.79275569827101       -2.02568345854861
C           40.45118944122046       -2.08308820721580       -2.60756947686795
C           39.51899040083838       -1.50242457931192       -1.81671512601680
C           40.22864474838409       -0.84081066640074       -0.76388842350366
N           41.58362510764952       -0.97408652170118       -0.93357728978142
N           44.32858097871078       -1.06151807958365       -0.91557059385815
C           43.03499489704974        3.44565397632884        3.48570644649483
C           42.98560952442596        3.13046138906746        4.84971440245716
O           42.92944612849249        1.80598360408214        5.15123570917477
C           42.89312710486368        1.37919068534445        6.49786957965677
C           43.00413309875699        4.14310691895083        5.80825343967126
C           43.06736691138538        5.46634111406007        5.39834925127451
C           43.11576306987573        5.80216083698721        4.05384237900733
C           43.10273254367534        4.78938448274365        3.09529653993866
O           43.14390429760811        5.01629475941244        1.75588802091239
C           43.21716214315975        6.33576577432284        1.25504707320340
H           38.53990088248796       -0.30941942420385        0.40252551422677
H           38.64051373319679        1.00972101041989        2.65022812756860
H           40.54430619167665        2.50491500513892        3.84670942373712
H           45.54221181218784        3.65282441992226        2.58772265075766
H           47.42492768084488        2.28894157180746        1.21521337228821
H           47.39878035548433       -2.22548007003293       -1.46438226305337
H           45.47131682841874       -3.54553444313885       -2.82114590449029
H           44.09725887643759       -1.50100952660325       -6.91001181760962
H           45.17490636382290       -0.52383739918635       -5.87833312791675
H           45.60954684573888       -2.20903446362104       -6.26766520433165
H           43.96325894141898       -3.85126616366013       -6.73376385432561
H           42.83982858382609       -6.00326848461189       -6.37389703958233
H           41.75278859777976       -6.52023830021223       -4.23516124523381
H           40.65069675131255       -5.93531084390219       -0.81287001654368
H           40.16526776272597       -6.18365035721389       -2.51077206043290
H           41.69173855321488       -6.89035301593606       -1.90130640100743
H           40.30335105689775       -2.67414273689778       -3.49692114438715
H           38.44493819647036       -1.51287322503254       -1.91601336633208
H           42.85355615816574        0.28864519827646        6.46994233089857
H           42.00390498458269        1.75831073763425        7.01610301085390
H           43.79155965263877        1.69317360572793        7.04289597186917
H           42.96972215588883        3.91029080302248        6.86410614447594
H           43.07958770990830        6.25386406951700        6.14385024638020
H           43.16346664043394        6.84298465702235        3.76286510610734
H           44.12549337374856        6.84592500572681        1.59807176467069
H           43.24536485401352        6.24652386129065        0.16755542856029
H           42.33895305919155        6.92515919272186        1.54531909855502
Co          90.87709451877558       -0.09483659719362        0.03288331256281
C           94.23946256454811       -0.33649561258800        0.14435793845244
C           93.54741826158201       -1.19096103564066       -0.68703136958989
C           94.17430032055502       -2.17739178121756       -1.51374336853852
C           93.21524803560563       -2.65658744853204       -2.34018972552473
C           92.00094903312930       -1.97080434960649       -2.00990502694330
N           92.20577309533884       -1.10845718461948       -0.96354672090154
C           90.83062551388758       -2.05800298897075       -2.75122609996814
C           89.67415728624928       -1.39463504512464       -2.37725273335734
C           88.43164045327849       -1.49538262989446       -3.08178679993687
C           87.48785085945791       -0.92561548358935       -2.29495922905670
N           89.49834506331173       -0.71444108231209       -1.19219950651067
C           88.15697343071402       -0.47216943981590       -1.11650713414685
C           87.48775771619836        0.03122833517483        0.00344471193777
C           88.17713694486434        0.52743133929107        1.11317350685666
C           87.52826497493928        1.07004177145235        2.26535247079777
C           88.49587803715879        1.64254359571853        3.02098846733440
C           89.73308328884377        1.44436734421167        2.32876165923027
C           90.93910150428059        2.00427113143265        2.71728517419636
C           90.96242155524527        2.92689772089705        3.88383566677429
C           90.32924204710231        4.17543733660990        3.81105327302785
O           89.72783233348041        4.46867492319781        2.62875682565898
C           89.04582991805528        5.69440813409739        2.45565511867519
C           90.35118879826906        5.04189316619213        4.90352144000016
C           91.00009667072005        4.65482101718134        6.06612729886309
C           91.62956173847303        3.42312290376823        6.16309344255083
C           91.61270729512145        2.55803776020512        5.06956121043978
O           92.19126718944035        1.32839228510435        5.07296675989833
C           92.87430720236148        0.86026333830350        6.21812141773603
C           92.12720264605458        1.71109643294434        2.06348686680743
C           93.40197454966491        2.25298154721406        2.43177222951218
C           94.33525015077937        1.57532358833416        1.72316923150696
C           93.62789587054424        0.63430680065800        0.90837218664730
N           92.27325532048390        0.76492453401688        1.08115009606021
N           89.52939337673641        0.70809569645668        1.18394950190911
C           90.81273659655699       -2.90267571705477       -3.97648785330146
C           90.86755230908018       -4.29896945220556       -3.87581233121792
O           90.93147561965931       -4.80087083604812       -2.61417379175143
C           90.97272314509449       -6.19725232939367       -2.40012453571906
C           90.84568806022156       -5.08975256113835       -5.02413929577456
C           90.77390242531632       -4.48077134824434       -6.26786204157023
C           90.72006626182647       -3.10071605563450       -6.39188185689433
C           90.73617222911136       -2.30980528843334       -5.24349704643631
O           90.69011213478416       -0.95154492067348       -5.26094024521381
C           90.60968523753887       -0.25362491044922       -6.48717447397382
H           95.31933990833846       -0.41966094562649        0.18466913136632
H           95.21978618060785       -2.43860638399485       -1.46664212191444
H           93.30931064435684       -3.39930747438542       -3.11551815234164
H           88.30732441440497       -1.96293368001531       -4.04479374937687
H           86.42963529638766       -0.82386611295750       -2.47513690337531
H           86.46651145260564        1.02389414527186        2.44765938505990
H           88.39464607441415        2.16208778831542        3.96002929978241
H           89.72375516843073        6.55010941500762        2.56101560193161
H           88.64479400258442        5.67767972994904        1.44060835211690
H           88.21840781833401        5.79750343969729        3.16811189269614
H           89.86991676865730        6.00950142288202        4.85545440522944
H           91.01533467463324        5.32815142865602        6.91611838259786
H           92.12560085916255        3.14597968832119        7.08360400328293
H           93.24684953193156       -0.13380422921578        5.96393737268927
H           93.72196728415823        1.50788707808303        6.47314491795920
H           92.20386918025889        0.78340288636971        7.08266296939341
H           93.54809124843439        3.03763441379698        3.15640620439705
H           95.40837115319555        1.68336243622814        1.73956561679866
H           91.01810950763695       -6.33741056874253       -1.31852312852930
H           91.86093960972414       -6.64832652408288       -2.85902075487770
H           90.07365137237917       -6.68976815983939       -2.78983545318120
H           90.88407883329828       -6.16874487189415       -4.95716631911745
H           90.75919409276653       -5.09581134588039       -7.16093237929590
H           90.66559901432895       -2.65279548957846       -7.37504238328146
H           89.69968322775064       -0.51645732186300       -7.04013625767301
H           90.57973116999383        0.80704878817925       -6.23131917906986
H           91.48567342229805       -0.44734107116254       -7.11795122977155
C           51.57076920822604        0.03026736523042       -0.09277532226931
C           50.34265736156028        0.02019570862104       -0.09387727667431
C           48.99711434945096        0.01284670916162       -0.08824918348192
C           47.77384751853921        0.00560765799298       -0.07837738326555
C           52.91612753520601        0.03774101715661       -0.08724037448962
C           54.13975710841366        0.04212158050083       -0.07924300916899
C           67.55509919896555       -0.14117287155302       -0.02942031800230
C           66.32541146245043       -0.15321440255562       -0.03353456619981
C           64.98298512030678       -0.15335414844811       -0.03335017499998
C           63.75787583350230       -0.14881407387568       -0.03493477915767
C           68.89726168119712       -0.11960316970605       -0.03710009181607
C           70.12220441239160       -0.09409499540768       -0.03740469073010
C           83.51884355307037        0.07292513583672       -0.01623271307376
C           82.28939542510122        0.07558874083418       -0.03020513563403
C           80.94699045381883        0.07324226057871       -0.04000420598937
C           79.72180365858610        0.06796935367334       -0.04982352441042
C           84.86143067384437        0.06508556661384       -0.00676698961170
C           86.08631725356619        0.05340300783370        0.00196732902444
Co          58.95074452849156       -0.03118961322407       -0.05069782523455
C           55.54411161136586        0.03615390322221       -0.06778979651295
C           56.21185662320909       -0.19797052004500        1.13617932484121
C           55.53734700415154       -0.43447489939783        2.37369073022999
C           56.48875814243705       -0.43891193119308        3.33810782550833
C           57.73931186933363       -0.20785662368625        2.68273374782575
N           57.56245921780501       -0.10432264223551        1.32340846041491
C           58.93503171843559       -0.01550488167345        3.35486058276720
C           60.13790468770082        0.16062093823992        2.69505674302538
C           61.38672480334232        0.36850688327442        3.36220549142180
C           62.34802199688323        0.33218263476891        2.40863036912014
N           60.32774702572642        0.04777648041512        1.33643756935925
C           61.68067264410231        0.10722410888235        1.16489616855114
C           62.35695988798737       -0.12389777820086       -0.03656632222472
C           61.67532957093516       -0.31432550106605       -1.24210286791191
C           62.33580945590352       -0.58440583149012       -2.48015624534354
C           61.38412015632983       -0.54258701944575       -3.44311707014314
C           60.14828356822953       -0.23974617602172       -2.78823562549659
C           58.96757763255937        0.03583420033180       -3.45777369292772
C           58.97510117009055        0.06348521960637       -4.94536182734707
C           58.29688168307098       -0.92159902576228       -5.67606262526579
O           57.66567134301728       -1.87533414601798       -4.94305899661584
C           56.94316136278748       -2.90931891196246       -5.58053274297541
C           58.30686993887453       -0.89611671421031       -7.07029213835067
C           58.98983102534644        0.11619349738687       -7.72725973410380
C           59.66603325864404        1.10246063085785       -7.02525099258934
C           59.66158073700681        1.07487731826706       -5.63102639301467
O           60.28618434837346        1.99893153618213       -4.85567955095286
C           61.00866307204415        3.06072278857414       -5.44578366636228
C           57.77788387426418        0.28037365662101       -2.78956532178141
C           56.54463321809821        0.58823954580546       -3.44680896104612
C           55.58147340806480        0.57487990644318       -2.49449418433274
C           56.23300193121093        0.27193397957324       -1.25946324254382
N           57.58244547445340        0.14443610308774       -1.43500331063167
N           60.33201170214178       -0.15358527751062       -1.42703705769626
C           58.92423688582787       -0.00364222050730        4.84477354708790
C           59.34783656865270       -1.12804685526253        5.56345200291246
O           59.75012327100133       -2.18995680697074        4.81783289455058
C           60.16663339456856       -3.38690949971271        5.44372581356924
C           59.33247220623440       -1.11618951394474        6.95805713789034
C           58.89837210283028        0.02082256694303        7.62295699350316
C           58.47723136272182        1.14610643715117        6.93033368009197
C           58.48798897627505        1.13329995972877        5.53573922948225
O           58.10107194111388        2.18187578042854        4.76386008178537
C           57.66352413679319        3.38648924032984        5.35988004352048
H           54.47167977569408       -0.56389285091996        2.47425409968256
H           56.36952227354235       -0.57661208923136        4.40068026882554
H           61.49792640057377        0.50933450177798        4.42522819515552
H           63.41547035879930        0.43571054135224        2.52000288542938
H           63.39293707470284       -0.77094306204436       -2.58149405324346
H           61.49652212538516       -0.68999117012966       -4.50492631706448
H           56.12296687245055       -2.50974608245456       -6.18914615554969
H           56.52878538819120       -3.52680521181900       -4.78148907908388
H           57.59543250529332       -3.52582891776466       -6.21083050597040
H           57.79023662569407       -1.65396108113299       -7.64381985990474
H           58.99538830426777        0.13684075852557       -8.81153194918403
H           60.18884056952730        1.88119223574814       -7.56417943982689
H           61.41378260886245        3.64775882559369       -4.61953242490079
H           60.35824915273407        3.69876163967528       -6.05624966354800
H           61.83555777867894        2.68949024374737       -6.06322763823135
H           56.44118629686825        0.77349376875012       -4.50355084836675
H           54.52223183075490        0.74570736345551       -2.60125940318265
H           59.36488956817881       -3.82064297457106        6.05366828717647
H           60.41872701163523       -4.07897651730188        4.63816258108564
H           61.05215963247091       -3.22574485616904        6.07042800499646
H           59.65443523747533       -1.97912092538917        7.52548445339848
H           58.88774625451563        0.03008905736038        8.70738862421178
H           58.14504527214822        2.01891946868618        7.47637872269668
H           58.45025382643492        3.83783328250940        5.97663900192730
H           56.76767787921333        3.22944553603548        5.97276043950143
H           57.42128569112268        4.06171476632882        4.53715926926557
Co          74.92240485412462       -0.01770951082254       -0.04723513188195
C           71.52242963613212       -0.06219660363147       -0.03870828049347
C           72.21084503495364       -0.29190341787619        1.15742830649479
C           71.56423948374612       -0.58393708732934        2.39790591698284
C           72.52462212238551       -0.54536781189193        3.35366039970209
C           73.75212466719363       -0.22950188100440        2.69012107968589
N           73.55363205227098       -0.12344188405766        1.33314149808741
C           74.92926464323746        0.08513292850870        3.34733622177268
C           76.10269124278840        0.37306990790032        2.67156277307566
C           77.33547527935482        0.70544582318071        3.31709988642956
C           78.29246911855148        0.69453059779244        2.35746626567036
N           76.29292591385173        0.21996245075128        1.31756067569932
C           77.63827585344876        0.35789818959238        1.13233142415814
C           78.32122245754650        0.06205725775582       -0.05233149359746
C           77.64123753151848       -0.24231509999163       -1.23608650096745
C           78.29758530489633       -0.57347001018104       -2.46110807553643
C           77.33989170622299       -0.59403316576831       -3.41999325498073
C           76.10420660176570       -0.27053259846441       -2.77552419829860
C           74.91653803625833       -0.02169066313408       -3.44737252160292
C           74.91654580396667       -0.03365709379890       -4.93439491216134
C           74.21923916497202       -1.02687650757535       -5.63615089343305
O           73.57673075452803       -1.95126646913024       -4.87608278896568
C           72.83625992065716       -2.99102698800169       -5.48314844751693
C           74.22370619362039       -1.03874725417355       -7.03052443407272
C           74.91988757606924       -0.05559770648792       -7.71717789745410
C           75.61449570023768        0.93823866027594       -7.04451272824789
C           75.61588279230828        0.94813961499572       -5.65009049765775
O           76.25683282271747        1.88405028170969       -4.90310905540822
C           76.99817006262799        2.91449566417346       -5.52473455371760
C           73.72967929955136        0.23085114220076       -2.77747847623195
C           72.48648585671936        0.51548988916898       -3.42673605453747
C           71.53040115761097        0.49113561715643       -2.46701590575111
C           72.19571816470771        0.20441424298140       -1.23526509549364
N           73.54520125508049        0.10763323759069       -1.41931350340390
N           76.29451349282650       -0.11291351973090       -1.42297258584671
C           74.93704448740831        0.10352815376467        4.83791635049023
C           75.22119354984753       -1.06644637478194        5.55148995970642
O           75.47466304741836       -2.16930588571927        4.80006681979344
C           75.78396257915990       -3.40153603275080        5.41971828479788
C           75.23137981246371       -1.05198019624733        6.94608121921853
C           74.95711293622540        0.13187889642694        7.61440315287921
C           74.67255721359437        1.30157117311225        6.92579674651866
C           74.66248542008879        1.28765575696983        5.53106123507422
O           74.39756376492377        2.37504077206118        4.76123404108840
C           74.10413668209095        3.62096303915172        5.36083782711402
H           70.50889200233335       -0.77605332522651        2.50728006993066
H           72.42411810211672       -0.70011372523907        4.41589293610262
H           77.44181182341600        0.90112261283666        4.37196893209125
H           79.35024530170254        0.87915337139937        2.45547196749089
H           79.35652067668097       -0.75127460192235       -2.55942445102964
H           77.44900218896913       -0.79647434354502       -4.47307928887240
H           72.01882629037276       -2.59548014928977       -6.09803971844788
H           72.41711923374079       -3.58136292130552       -4.66628951338356
H           73.47651768348413       -3.63298665733036       -6.10013235486591
H           73.69258621741167       -1.80332890618099       -7.58140541017145
H           74.92117829632049       -0.06417870132046       -8.80160608567238
H           76.14692550776650        1.69403182074359       -7.60616122994042
H           77.41851199999171        3.51550288230986       -4.71631262093967
H           76.35820377641883        3.54870738653404       -6.15003583996647
H           77.81475620032727        2.50975999063982       -6.13472043936523
H           72.37161878808060        0.69142702411971       -4.48389701337037
H           70.46747923548710        0.64162082239755       -2.56771736567685
H           74.95664637270451       -3.75420942455951        6.04746765001352
H           75.94941900089673       -4.11514583934703        4.61051709574576
H           76.69416453908684       -3.32805148578064        6.02709591309483
H           75.44961507619122       -1.94864088615003        7.51051676517390
H           74.96531609005091        0.14315800737177        8.69883297424873
H           74.46231862951829        2.20956097050917        7.47494774471229
H           74.94261172046002        3.98117308474507        5.96920759285992
H           73.20271166003052        3.56466444987345        5.98302681855002
H           73.93043716869889        4.31947273007839        4.54027962131772
