274
 energy: -458.687482522355 gnorm: 0.000504099954 xtb: 6.5.1 (b24c23e)
Ni          54.12619110131444        0.07033209577443       -0.07896212850815
C           50.74118489576807        0.16289257366072       -0.17470235237130
C           51.38432868752726        0.92801746555977        0.77676458381538
C           50.70386853013537        1.71454394922358        1.75869169922210
C           51.65682524290424        2.39148002115325        2.44273418915832
C           52.91799096662924        2.03551975647728        1.86204768445533
N           52.74285386341542        1.09960211997432        0.87301172819296
C           54.12877153139011        2.62706387886775        2.20482749969216
C           54.13555096240668        3.72154635862220        3.20072142876773
C           53.38581207925015        4.88324579383602        2.99484289077221
C           53.39858359978838        5.90671207674053        3.92325307149608
C           54.15939240045547        5.79656630008107        5.09381382927365
N           54.09446133496522        6.82375428467920        6.02316063527686
C           55.18309098091008        7.00652591349687        6.97373398169157
C           54.90051649485758        4.63131117623893        5.31108540035126
C           54.89144851088623        3.61613360048559        4.36995486808182
C           55.33431042341033        2.23431147580632        1.63510658992761
C           56.58531727165094        2.88203497109292        1.88705389908855
C           57.53682324585740        2.16235397505367        1.24351432488221
N           55.51420278244652        1.15289601530491        0.80236574483638
C           56.86476106223400        1.08184582548240        0.59639160899822
C           57.53264530287742        0.04363449045667       -0.05947170315076
C           56.85725468982524       -0.99802820484384       -0.70248814030432
C           57.51924433262963       -2.10952672069514       -1.30582918497174
C           56.56084816571346       -2.84731477725938       -1.91794495902879
C           55.31733363206637       -2.17255176251932       -1.70189790634660
N           55.50714925047222       -1.06087944783054       -0.91148714249422
C           54.11432793874032       -2.55581642401375       -2.28238440905853
C           54.10420836386832       -3.69893244127006       -3.22218404957539
C           54.88939843621353       -3.68522257299913       -4.37650847565340
C           54.87889758441820       -4.74916335717095       -5.26231183313639
C           54.08697271066696       -5.87140485470061       -5.00239980653915
N           54.00293135723130       -6.94425326195136       -5.87734473862150
C           55.10764095337962       -7.22146211980900       -6.78569155627980
C           53.29419409482081       -5.88814605279130       -3.84814711714086
C           53.30140278774823       -4.81650440771236       -2.97580604751592
C           52.91839478210842       -1.89741325470002       -2.01699599517714
C           51.67363525648731       -2.20628392426999       -2.65684854263643
C           50.72671603230538       -1.43872368534829       -2.06659427824922
C           51.39439607483588       -0.65542527350764       -1.07318712402197
N           52.74332174509558       -0.91187620507756       -1.07817452262129
H           49.65844897680199        0.19705708519068       -0.20988370560898
H           49.63424634941469        1.72980626355866        1.89597047140907
H           51.52863288378892        3.07105843365677        3.26954456173360
H           52.80731137116450        4.99172572567276        2.08390705130497
H           52.81805463781519        6.80624914391720        3.74726942435873
H           53.78501649366078        7.69906679975234        5.61814431106594
H           56.15467594614995        7.05685481821897        6.46905514622086
H           55.19409750669206        6.18592736615220        7.69224726565843
H           55.00760478694956        7.93828202913766        7.51144058469038
H           55.48396524468878        4.50916429512951        6.21540329897258
H           55.46349867184031        2.71323784245078        4.55449206685573
H           56.70970717362590        3.77735415293772        2.47410844752584
H           58.60058153027120        2.33360765116546        1.20475040150508
H           58.58090948078760       -2.29088676009520       -1.25647709936766
H           56.67681518637585       -3.76874302592649       -2.46493223618443
H           55.50013913595399       -2.81597375428062       -4.59532109248183
H           55.48654811333117       -4.69821337579364       -6.15747212346660
H           53.64900105361178       -7.78337798501149       -5.43389454406676
H           55.16922534937284       -6.44384376344960       -7.54810565455014
H           54.90965731924670       -8.17490519646108       -7.27543401015604
H           56.06322754259644       -7.27965347141603       -6.25210901663541
H           52.67252317289514       -6.75277174206456       -3.64056208613602
H           52.69558037911241       -4.85116466246722       -2.07690247962292
H           51.55298123110767       -2.91588501938655       -3.45925816158662
H           49.66851652568457       -1.39521923573094       -2.27026143321287
Ni          94.39323736233537        0.03761301259896       -0.02779240075567
C           97.77772403439862        0.11726694996168       -0.15399895737640
C           97.13430059799907       -0.97995349802736       -0.68904944810383
C           97.81451322416252       -2.10769516661691       -1.24712821290239
C           96.86103955132516       -2.92268187252320       -1.75792560189266
C           95.59963566305817       -2.28124033533999       -1.53020717421781
N           95.77539313731110       -1.11322863094595       -0.83060637079803
C           94.38749846824902       -2.74766876251376       -2.02669919288321
C           94.38156946585922       -3.95346221063981       -2.88462234034906
C           95.12157414052594       -3.99203809372166       -4.06992729094576
C           95.10960342451867       -5.11535767479013       -4.87464839621918
C           94.35964653340078       -6.24153989943732       -4.51362998784033
N           94.42466940034019       -7.36587806989315       -5.32300220138876
C           93.34200235307731       -8.34008975830750       -5.29184122191203
C           93.62929823338658       -6.21369591988068       -3.32197995932646
C           93.63718718164176       -5.07957635836571       -2.52807587816705
C           93.18079400520867       -2.11336606839875       -1.75571313013784
C           91.92657544237353       -2.50763041665918       -2.32096888476875
C           90.97583972187165       -1.72927277583177       -1.74852776286589
N           93.00305579787900       -1.06695523409085       -0.87886832520655
C           91.65158808843447       -0.85824381539369       -0.84153702909227
C           90.98709371333231        0.00756776945293        0.03197727125033
C           91.66589104208718        0.86925250560977        0.89880595477684
C           91.00782269266074        1.70360262595421        1.85191157948630
C           91.96695721720046        2.47271203498986        2.42299455395278
C           93.20686918317985        2.11720155824639        1.80294595167720
N           93.01483059983364        1.09477252824634        0.90058001631367
C           94.40828162354642        2.77611297403796        2.03471890308819
C           94.41817473485810        3.95307958351538        2.93174468285730
C           93.62431754459300        5.06858430584480        2.65837742562551
C           93.63531273657267        6.17630684957181        3.48874843414141
C           94.43677945318298        6.18731617003175        4.63404159843536
N           94.52307433270330        7.28725980963474        5.47422059381499
C           93.41736545846334        8.23330072837373        5.54046389790806
C           95.23721969792936        5.07206128039742        4.91103883584087
C           95.22929991552365        3.97565182397764        4.07005251684218
C           95.60224167818905        2.37255313194032        1.44676051796318
C           96.84613364542683        3.06850142942229        1.59732921244441
C           97.79239720684117        2.32087395676091        0.98103844498418
C           97.12489035413327        1.17474795842151        0.44536044095064
N           95.77680567880203        1.23508442424140        0.69889098439759
H           98.86026506054233        0.14568823111599       -0.19888580942789
H           98.88439723082075       -2.24332622659063       -1.23629797884884
H           96.98878401093594       -3.87612930240207       -2.24426098146708
H           95.69175168964786       -3.12054101539622       -4.37262831427735
H           95.68224828382390       -5.12888682770314       -5.79608419225200
H           94.72309284901245       -7.15142755718233       -6.26692125145269
H           92.36608154121082       -7.86287807735062       -5.43711692464707
H           93.34359270165186       -8.87077018342893       -4.33888433860061
H           93.51380960372077       -9.06002199077372       -6.09200982432097
H           93.05516543275306       -7.07625426996801       -3.00655847815226
H           93.07343770930370       -5.07381206284245       -1.60144077758903
H           91.79950127846000       -3.27602217909503       -3.06604429555301
H           89.91037751908461       -1.73542248760127       -1.91337946328715
H           89.94805452497589        1.68990379836043        2.04981783274742
H           91.85386716695849        3.21312636593697        3.19803041647582
H           93.00625473138267        5.07720026334915        1.76707767347209
H           93.02063951203183        7.03193723499455        3.23731127071649
H           94.88497443359684        7.05225665887251        6.39060386437707
H           93.34583833898157        8.79112325558098        4.60587861732587
H           93.62199791814122        8.93410704083481        6.34985461629370
H           92.46438903863657        7.72689250108757        5.73188286839326
H           95.86575165259087        5.07320752856692        5.79539802007671
H           95.84140284928137        3.11226181539439        4.30698940724385
H           96.96691406721249        4.01143981779356        2.10546615813524
H           98.84991486877419        2.51134950981442        0.88866775674903
C           60.15895750306690        0.03397180027176       -0.05747576383370
C           58.93732601624215        0.03844092852463       -0.05913497153432
C           61.50874565778551        0.02734202929738       -0.05225641651972
C           62.73044450433921        0.02222953617099       -0.04542013851182
C           73.59102502397126        0.03175942238337       -0.02756556785605
C           72.36934563657429        0.02397428942115       -0.02688911261578
C           74.94056042216084        0.03421061133619       -0.02738529665686
C           76.16224673356255        0.04212273007044       -0.02969590292081
C           87.01106787908485        0.01600775491717        0.04212591615258
C           85.78934638289282        0.02268365079554        0.03346625675152
C           88.36080433056080        0.00987446703821        0.04568667839816
C           89.58247434247455        0.00683041457405        0.04357040662098
Ni          67.55006764295202        0.01758915205644       -0.02894158172768
C           64.13497590343755        0.01638085877534       -0.03482614140579
C           64.80613539918410       -1.04326062136882       -0.65185948583510
C           64.12907113559648       -2.12332596669095       -1.29433468565441
C           65.08383189258079       -2.88848729822909       -1.87673765560148
C           66.34278638524866       -2.27762936452141       -1.57904424205108
N           66.16039756023173       -1.15105769121876       -0.80803634761007
C           67.55341659505605       -2.71574114555185       -2.09992460362765
C           67.55679411484509       -3.89259496771329       -3.00215752380898
C           67.18455948639094       -5.15440902568700       -2.53280799252803
C           67.19518437126426       -6.25120007239819       -3.37421614059804
C           67.56824950010254       -6.11473655415820       -4.71687553857775
N           67.61237882484646       -7.25277863235851       -5.50930712923187
C           67.51359532313751       -7.12627195160833       -6.95725852168408
C           67.94565370306637       -4.85456117108816       -5.18920728280132
C           67.93888969194592       -3.76250827776655       -4.33777407922092
C           68.76280900283193       -2.09596334737144       -1.81402838031446
C           70.02351778292501       -2.54848798093296       -2.31729048985089
C           70.97628568911622       -1.77940213520818       -1.73730059210012
N           68.94248583410538       -1.04816482086053       -0.93839767267723
C           70.29636975572024       -0.86682953471170       -0.87546483708744
C           70.96490605082374        0.02251770113117       -0.02968842343967
C           70.29301281486040        0.90842180104336        0.81737096526774
C           70.96564568966934        1.78275875608118        1.72297328233115
C           70.00945419665780        2.54158898936566        2.31196286176780
C           68.75699822534413        2.13663930826409        1.75174189626960
N           68.94021476116001        1.10166918548158        0.86209377357409
C           67.54605096053326        2.75273797665264        2.04153522724875
C           67.54648949932842        3.93375771433372        2.93445624521619
C           66.82599980993592        3.92710726110010        4.12998670326443
C           66.83106002356601        5.02407805234307        4.97475081887552
C           67.56221676537541        6.16665623359603        4.63720354560931
N           67.55999433040442        7.31264461568750        5.41862789883666
C           67.27310631069210        7.21233870676542        6.84342917048890
C           68.27346866543098        6.18387099516719        3.43101374781170
C           68.26996392126681        5.08139699522434        2.59797164693437
C           66.33675296730640        2.30545948959369        1.52424862089380
C           65.08346338551587        2.95439769846840        1.75739442885124
C           64.12980379074689        2.18315584332369        1.18049195979458
C           64.80455509321527        1.07427920584025        0.58693461168190
N           66.15671160448561        1.16896775909677        0.76777455497174
H           63.05935203929106       -2.25718938271156       -1.30312556174950
H           64.95436642254332       -3.77838759068399       -2.47070304571069
H           66.90206560526029       -5.27655017430814       -1.49289914906795
H           66.91465237197519       -7.22830530499751       -2.99519124386167
H           67.03479641535699       -8.00257627341021       -5.14834640909263
H           66.63893899882886       -6.53503605858538       -7.25189305117712
H           68.41452410336382       -6.65643143757936       -7.35385125833037
H           67.42937926699247       -8.12838785254879       -7.37774002287409
H           68.24738400911167       -4.71876762921765       -6.22049483391447
H           68.21919929922518       -2.78668158462587       -4.71935306015841
H           70.15553970119808       -3.36292516736405       -3.01050901959158
H           72.04633877839206       -1.82405612518767       -1.86068937570573
H           72.03211052035424        1.80024541369999        1.87987769763483
H           70.13245940651406        3.30388600946363        3.06381590498504
H           66.26982024160742        3.03967228359432        4.41209029397422
H           66.26359157350450        4.98416315447335        5.89641448555180
H           68.34953809503442        7.91753545965154        5.22668441004564
H           67.90534136319918        6.46078728333671        7.32999294974860
H           67.46035194240604        8.18706660335308        7.29393820504129
H           66.22474731264649        6.95295782417249        6.99635746518590
H           68.83032127199857        7.07246160856941        3.15281022201347
H           68.81876712001929        5.11197903875423        1.66306737302806
H           64.95852047378310        3.88383253452376        2.28842629306085
H           63.06353971400757        2.33944788194629        1.15019613568044
Ni          80.97563452438642        0.05316655610498       -0.02474738096834
C           77.56625477741790        0.04776946411858       -0.03174440224498
C           78.24199090514837       -1.02593913901484       -0.61936679334846
C           77.57976915399696       -2.15878379322643       -1.18081249330969
C           78.53725356797798       -2.91460144892540       -1.77252305090786
C           79.78033943462484       -2.23349554779910       -1.57901301578605
N           79.59196532300307       -1.09617325741365       -0.82644872451017
C           80.98472987886696       -2.63801864347918       -2.14250614261313
C           80.98556775667414       -3.79757269901697       -3.06169575046048
C           81.76344499628888       -4.92646587525866       -2.78905013618498
C           81.75821206516224       -6.01153433523299       -3.64470118613670
C           80.98316916553739       -5.99487261215127       -4.81100413452837
N           80.97291065106425       -7.12592334014911       -5.61324757564159
C           80.60550991943116       -7.01119461969082       -7.01821805245408
C           80.20029466781381       -4.86985423125575       -5.08632539430237
C           80.20414276989726       -3.79119008346402       -4.21874817358578
C           82.18712961057908       -1.99592111660688       -1.87082797492921
C           83.43644089931138       -2.34698385557668       -2.47260884179771
C           84.38988983829216       -1.60301694077105       -1.85932581039070
N           82.36800149346780       -1.00120140121519       -0.93625455352201
C           83.71860894074911       -0.79030060130460       -0.89719245330202
C           84.38537485321983        0.03204016632329        0.01651896209608
C           83.70661038398036        0.86948732673845        0.90715322711139
C           84.36496648923899        1.68795862714706        1.87331905503189
C           83.40784082003388        2.45871635186219        2.44650407162965
C           82.16893673626987        2.11413672215716        1.82000542297772
N           82.35859929985249        1.10096832623781        0.90758675753474
C           80.96732967314622        2.77112500682284        2.05855539023964
C           80.96467437191377        3.94881555835535        2.95435406876350
C           80.16887062265305        3.97278902824878        4.10128330743901
C           80.16364889607060        5.06908926017823        4.94654325956693
C           80.96038733586325        6.18116043255165        4.65887072635418
N           80.95062324362992        7.32817242679522        5.43834894742682
C           80.56061510513344        7.24495279490156        6.83947491783880
C           81.75070339310932        6.16706901258811        3.50282410586112
C           81.75672064753040        5.06484752162436        2.66943345408684
C           79.76762473690826        2.35915830460002        1.49071543814349
C           78.52168417275053        3.03933323426349        1.66879349579688
C           77.56783942068309        2.26790775618819        1.09138605797211
C           78.23574760607870        1.12921023070207        0.54907703201856
N           79.58496776425767        1.20860459177441        0.75667194105660
H           76.51834573646592       -2.33881558338810       -1.12352786007016
H           78.42119131286655       -3.85321180256293       -2.28933334535305
H           82.36057308452511       -4.95835828878960       -1.88429278179076
H           82.35676590461323       -6.88673564787852       -3.41472454937837
H           81.78729796308342       -7.71194752230870       -5.47422429737397
H           79.54456286269603       -6.77513930621486       -7.10923168518900
H           81.19212366875550       -6.23729999691834       -7.52640706134482
H           80.79034023525607       -7.97419892369986       -7.49420420948476
H           79.58463683276520       -4.83013127202184       -5.97649343751901
H           79.60558359561855       -2.91732965545237       -4.45230046423410
H           83.55960815113600       -3.06735306875762       -3.26481385811233
H           85.45392840249680       -1.59492478856307       -2.03293891545635
H           85.42389724443417        1.66685702512964        2.07488375938958
H           83.52162982940548        3.19226977926652        3.22794538170531
H           79.56031633952075        3.10886902573886        4.34568028130747
H           79.53643690135756        5.05285095556089        5.82936634171033
H           81.77395147667302        7.90196177168760        5.30076902619818
H           81.13029539785497        6.47441044636037        7.37155712893352
H           80.74945267156335        8.21486560000067        7.29962068559874
H           79.49561760833862        7.02291108871530        6.91856189524871
H           82.36056977620572        7.03179360288771        3.26319163778933
H           82.36630044174132        5.07245977845493        1.77247636295251
H           78.40076125814592        3.98691634707094        2.16778686156274
H           76.50572257973771        2.44244671209270        1.02964444586076
