142
 energy: -220.861040317377 gnorm: 0.498925887678 xtb: 6.5.1 (b24c23e)
Zn          14.16252400000000       -0.00543800000000       -0.00640500000000
C           10.80383500000000        0.19782200000000       -0.24171500000000
C           11.46815500000000        1.29865900000000        0.11976000000000
C           10.81850600000000        2.54214700000000        0.51720600000000
C           11.76122000000000        3.41798700000000        0.80735800000000
C           13.06694100000000        2.77722000000000        0.60004600000000
N           12.88777600000000        1.42866300000000        0.16697400000000
C           14.26211400000000        3.37272700000000        0.78632000000000
C           15.55743100000000        2.68126600000000        0.55849800000000
C           16.85420100000000        3.36790800000000        0.55939500000000
C           17.78738400000000        2.46494100000000        0.34232800000000
N           15.69030100000000        1.40701800000000        0.34655300000000
C           17.09375800000000        1.18993700000000        0.19903600000000
C           17.68534700000000       -0.00017400000000        0.00004800000000
C           16.92677900000000       -1.26664900000000       -0.14106100000000
C           17.48396700000000       -2.47117300000000       -0.12474600000000
C           16.43673100000000       -3.43675700000000       -0.38472100000000
C           15.30256300000000       -2.76242500000000       -0.53952400000000
C           14.00061000000000       -3.38697400000000       -0.89815700000000
C           13.97554300000000       -4.82876800000000       -1.23272200000000
C           13.90906700000000       -5.24182000000000       -2.57098200000000
C           13.90442500000000       -6.60773000000000       -2.89048600000000
C           13.79864300000000       -7.04760000000000       -4.32081300000000
C           13.93223100000000       -7.55976700000000       -1.85953200000000
C           13.98929400000000       -7.15467500000000       -0.51769100000000
C           14.05603900000000       -8.18526200000000        0.57084000000000
C           14.02083200000000       -5.78627900000000       -0.20922000000000
C           12.84746500000000       -2.69257500000000       -0.91201500000000
C           11.52679500000000       -3.23301600000000       -1.23053700000000
C           10.67154100000000       -2.24851100000000       -1.04110000000000
C           11.43522400000000       -1.08057200000000       -0.60549400000000
N           12.70544300000000       -1.32756400000000       -0.52632700000000
N           15.52278200000000       -1.35721100000000       -0.39254100000000
C           14.31164600000000        4.78299200000000        1.23102000000000
C           13.99616300000000        5.81848300000000        0.33924000000000
C           14.03914800000000        7.15475900000000        0.76252700000000
C           13.71900400000000        8.26377500000000       -0.19601400000000
C           14.43978500000000        7.45287000000000        2.07355500000000
C           14.78081300000000        6.42431200000000        2.96460100000000
C           15.16314400000000        6.74508300000000        4.37926200000000
C           14.69969700000000        5.08942600000000        2.54258300000000
H            9.72088500000000        0.23480200000000       -0.25999400000000
H            9.75389100000000        2.72870000000000        0.57658200000000
H           11.57528700000000        4.43067200000000        1.13998800000000
H           17.03412500000000        4.42481800000000        0.70585800000000
H           18.84962200000000        2.66245400000000        0.28758600000000
H           18.52960600000000       -2.70263600000000        0.02543800000000
H           16.57229300000000       -4.50644200000000       -0.47116500000000
H           13.86498200000000       -4.50041200000000       -3.36078800000000
H           14.30114200000000       -8.02736300000000       -4.46837000000000
H           12.72832200000000       -7.14405500000000       -4.59833800000000
H           14.28316700000000       -6.30894500000000       -4.99494400000000
H           13.91109500000000       -8.61623200000000       -2.10102700000000
H           13.88747600000000       -7.73004200000000        1.57115600000000
H           13.27727000000000       -8.96019800000000        0.40736300000000
H           15.05521800000000       -8.66930200000000        0.56166400000000
H           14.07759900000000       -5.46256400000000        0.82420100000000
H           11.27294500000000       -4.23637000000000       -1.54563500000000
H            9.59994100000000       -2.31002300000000       -1.17826800000000
H           13.71213700000000        5.58298000000000       -0.67979400000000
H           13.23010100000000        9.10762800000000        0.33601800000000
H           13.02781300000000        7.91188600000000       -0.99095800000000
H           14.65628500000000        8.62744100000000       -0.66595000000000
H           14.48560100000000        8.48568500000000        2.39963300000000
H           14.25368300000000        6.75231400000000        5.01427400000000
H           15.65327300000000        7.73997000000000        4.43781200000000
H           15.87446700000000        5.98787700000000        4.77407400000000
H           14.94176000000000        4.28848200000000        3.23149600000000
Zn          30.23764700000000        0.00748900000000        0.00330800000000
C           33.59633500000000        0.17691900000000       -0.25742100000000
C           32.93201600000000       -0.47670200000000       -1.21412600000000
C           33.58166500000000       -1.20458000000000       -2.29783300000000
C           32.63895100000000       -1.72706600000000       -3.05828800000000
C           31.33322900000000       -1.34958200000000       -2.50055400000000
N           31.51239500000000       -0.55823800000000       -1.32584900000000
C           30.13805700000000       -1.69426000000000       -3.02067300000000
C           28.84274000000000       -1.28296600000000       -2.41995900000000
C           27.54597000000000       -1.47496300000000       -3.07921200000000
C           26.61278700000000       -1.01512300000000       -2.27235700000000
N           28.70987000000000       -0.72469400000000       -1.25507100000000
C           27.30641300000000       -0.52258000000000       -1.08763400000000
C           26.71482400000000       -0.00017400000000        0.00004800000000
C           27.47339200000000        0.48789800000000        1.17718700000000
C           26.91620400000000        0.80752300000000        2.33864500000000
C           27.96343999999999        1.32600600000000        3.19369700000000
C           29.09760800000000        1.28698100000000        2.50292700000000
C           30.39956100000000        1.80529100000000        3.00296100000000
C           30.42462700000000        2.52797500000000        4.29463900000000
C           30.49110400000000        3.92832000000000        4.31884300000000
C           30.49574600000000        4.61541500000000        5.54182800000000
C           30.60152700000000        6.11165300000000        5.56616300000000
C           30.46794000000000        3.89022000000000        6.74321700000000
C           30.41087599999999        2.48865200000000        6.72765500000000
C           30.34413100000000        1.73002100000000        8.02051600000000
C           30.37933800000000        1.81146200000000        5.49921000000000
C           31.55270500000000        1.62530600000000        2.33215000000000
C           32.87337600000000        2.08167800000000        2.76256500000000
C           33.72863000000000        1.62567800000000        1.86970500000000
C           32.96494700000000        0.88217800000000        0.86918400000000
N           31.69472800000000        0.87489300000000        1.12845100000000
N           28.87738900000000        0.75464700000000        1.19416700000000
C           30.08852400000000       -2.51395000000000       -4.25141100000000
C           30.40400800000000       -1.94565900000000       -5.49421300000000
C           30.36102200000000       -2.72418700000000       -6.65984600000000
C           30.68116699999999       -2.11223900000000       -7.99185200000000
C           29.96038600000000       -4.06638000000000       -6.58123300000000
C           29.61935800000000       -4.63589600000000       -5.34529400000000
C           29.23702600000000       -6.08393400000000       -5.25959700000000
C           29.70047300000000       -3.85897400000000       -4.18064200000000
H           34.67928599999999        0.18418200000000       -0.29802600000000
H           34.64627899999999       -1.31353900000000       -2.46048400000000
H           32.82488400000000       -2.32844300000000       -3.93835500000000
H           27.36604500000000       -1.90984200000000       -4.05357800000000
H           25.55054900000000       -1.01752500000000       -2.47730200000000
H           25.87056400000000        0.72770600000000        2.60276600000000
H           27.82787700000000        1.70679400000000        4.19704200000000
H           30.53518800000000        4.48052900000000        3.38688600000000
H           30.09902900000000        6.52610700000000        6.46612700000000
H           31.67184800000000        6.40505900000000        5.58155300000000
H           30.11700400000000        6.55352500000000        4.66904900000000
H           30.48907600000000        4.41625100000000        7.69070200000000
H           30.51269500000000        0.64252500000000        7.86173900000000
H           31.12290100000000        2.10275000000000        8.71931700000000
H           29.34495300000000        1.87357300000000        8.48287000000000
H           30.32257100000000        0.72877500000000        5.47595500000000
H           33.12722600000000        2.66361900000000        3.63855100000000
H           34.80022900000000        1.77454800000000        1.89060300000000
H           30.68803400000000       -0.90134600000000       -5.55167900000000
H           31.17006900000000       -2.85814200000000       -8.65425500000000
H           31.37235800000000       -1.25076300000000       -7.87515500000000
H           29.74388600000000       -1.76210900000000       -8.47195700000000
H           29.91457000000000       -4.66706800000000       -7.48245900000000
H           30.14648800000000       -6.69586100000000       -5.08977800000000
H           28.74689800000000       -6.41711000000000       -6.19886400000000
H           28.52570400000000       -6.25236400000000       -4.42241700000000
H           29.45841100000000       -4.29770600000000       -3.21958600000000
C           22.80400600000000        0.00113800000000        0.00848000000000
C           21.59506600000000       -0.01231700000000        0.00003300000000
C           20.17353700000000       -0.00349800000000       -0.01195000000000
C           18.96186800000000        0.00394100000000       -0.00108700000000
C           24.22061000000000       -0.00553700000000        0.00901300000000
C           25.44130600000000        0.00394100000000       -0.00108700000000
142
 energy: -220.975359068369 gnorm: 0.250654541252 xtb: 6.5.1 (b24c23e)
Zn          14.16108245875497        0.00098058828455       -0.01381508994706
C           10.80194164056795        0.17797309271008       -0.24853226768167
C           11.47107064885015        1.29861155493633        0.12114853109060
C           10.81831922602430        2.53493632801671        0.51452378830059
C           11.77353441886113        3.42128542111881        0.80820440118125
C           13.06579558055763        2.77430634041385        0.60088118497716
N           12.86093064432403        1.45285148111382        0.17905479966595
C           14.27865676990793        3.37410047616586        0.78522033744278
C           15.54639065908640        2.71047074343790        0.56733726263538
C           16.83547646496956        3.38804394869409        0.56691386821899
C           17.77612505040756        2.45980664578525        0.34247167077511
N           15.69430495379461        1.42126034228650        0.34096164372594
C           17.07053229873789        1.20191371464507        0.19974618896139
C           17.64719470785411       -0.01754536601338       -0.00051812529612
C           16.90336484521008       -1.26476195820743       -0.14742022915019
C           17.48550614161906       -2.50079620470619       -0.13200085481778
C           16.46295788013031       -3.44542058283609       -0.38532489039235
C           15.29329180854836       -2.75241328384805       -0.54350397552137
C           14.01907382801742       -3.37508717957269       -0.89383147389631
C           13.98943890098732       -4.82696090755761       -1.23166021884715
C           13.91092790175822       -5.24395009161726       -2.56437776738462
C           13.89919701614195       -6.60447148893820       -2.88383137134445
C           13.80121448718045       -7.04663003359286       -4.31931830060244
C           13.93284736726599       -7.55073755019027       -1.85736452035634
C           13.99171049045162       -7.14858303109302       -0.52079343592004
C           14.05405396994293       -8.18366479682079        0.57026866568709
C           14.02472513872305       -5.78626074659109       -0.21480338756623
C           12.84648188396686       -2.69062250587003       -0.91140377440947
C           11.53443714366105       -3.23081654252782       -1.22822998010446
C           10.65597724833011       -2.23589222101146       -1.03832512335522
C           11.40852969819594       -1.07344844648669       -0.60271922272479
N           12.69618537781829       -1.33983360396043       -0.53478378388177
N           15.52515486205618       -1.37119108255907       -0.38855260166010
C           14.32120146670027        4.78903334922655        1.22997692826030
C           13.99570462812885        5.82088902581174        0.34576955607229
C           14.04312343814516        7.15133151448112        0.76482778622318
C           13.71681669231038        8.26320810620437       -0.19481516713044
C           14.43918206772021        7.44571873314430        2.07138754645054
C           14.77486297601872        6.42339757394407        2.96132094519815
C           15.16544339754868        6.74517718740258        4.37799656650481
C           14.70243323959265        5.09530989008030        2.53808698922173
H            9.71966032208744        0.22349462573741       -0.26516858612906
H            9.75375634412642        2.71434293397645        0.57132248884339
H           11.59498367772079        4.43355399423311        1.14060085308221
H           17.01905942125236        4.43874886353778        0.71034783871286
H           18.84175329659005        2.64280746877863        0.28448182627989
H           18.53078633989519       -2.71434993025883        0.02553257691054
H           16.58499312821343       -4.51232488081624       -0.46755771504083
H           13.86726301817941       -4.50286018566023       -3.35645475426954
H           14.29300871949815       -8.01831001017043       -4.46730161520031
H           12.74193466285371       -7.14416781343241       -4.59981491407208
H           14.27518682063314       -6.31585909115486       -4.98943485324290
H           13.91189327311928       -8.60977330606386       -2.09966192122020
H           13.89093298145543       -7.73473613443195        1.56012737007333
H           13.28766311155986       -8.95528560835799        0.41013409823600
H           15.04222246978558       -8.66702851010253        0.56449849275706
H           14.07722235498958       -5.46382411173881        0.82020592769170
H           11.29145195283517       -4.23559871983593       -1.54420026136626
H            9.58948391793838       -2.29774861936910       -1.17622668453732
H           13.71241099148534        5.58358892960433       -0.67491281672727
H           13.23740157832995        9.10165591548107        0.32933172902591
H           13.03698117488552        7.91604499643454       -0.98499444749343
H           14.64324617536131        8.62680808419949       -0.66326223108816
H           14.48559263326738        8.48056045419581        2.39807840836761
H           14.26651104127510        6.75323583716815        5.01148412851181
H           15.64610843701350        7.73120953650956        4.43926273653076
H           15.86511235112540        5.99497186064751        4.77246902239520
H           14.94223198951262        4.29207987397020        3.22793987968357
Zn          30.23901873394653        0.01273115077622       -0.00499561309831
C           33.59822733225534        0.18898914018291       -0.24025724025857
C           32.92909819430650       -0.47802614024004       -1.21369950424026
C           33.58183885065616       -1.19999908983346       -2.29165640971331
C           32.62660483398578       -1.72879834918968       -3.06121590066366
C           31.33433266232450       -1.34956737818489       -2.49750821695370
N           31.53923957665008       -0.57656934623044       -1.34572799654477
C           30.12139579705389       -1.69352615695074       -3.02223116266942
C           28.85352179940567       -1.29955386610522       -2.44548352814196
C           27.56457660374473       -1.48774983043664       -3.09653029729979
C           26.62368116337677       -1.01370710650372       -2.26765224803555
N           28.70506820139332       -0.72355499453868       -1.27003288667303
C           27.32845536353467       -0.52734015963088       -1.09881928749987
C           26.75173183839734        0.00294329900869        0.01790102068810
C           27.49720681710026        0.49279309888623        1.17386055261022
C           26.91485993172333        0.82284813639693        2.36500511482132
C           27.93732195527298        1.32905818516151        3.20184692697181
C           29.10696470753268        1.28803091150645        2.49221186861349
C           30.38113447525189        1.79784454721808        2.99275569429873
C           30.41074388981101        2.52645802631319        4.29320310915574
C           30.48924516081807        3.92257372259562        4.32272866839384
C           30.50097323258744        4.60811797491903        5.54055229383587
C           30.59895565655977        6.10994816842020        5.56564759797663
C           30.46732361108172        3.88562505241130        6.73514804441269
C           30.40845943360640        2.48993605056536        6.72094091540299
C           30.34611628460910        1.73012495349051        8.01882271588969
C           30.37544643246938        1.81682030427138        5.49763913620335
C           31.55370418885585        1.62417468790856        2.33043865011257
C           32.86573884914157        2.07884864737144        2.76109086732809
C           33.74419361894675        1.61949730973468        1.85835080627358
C           32.99163225963031        0.87752789042131        0.86311169902797
N           31.70397208614440        0.88641832082591        1.13786645161419
N           28.87519551796735        0.75452597601047        1.20873752443294
C           30.07893339583614       -2.51459679880345       -4.25747082701621
C           30.40446160400083       -1.95259339719982       -5.49468918836002
C           30.35704761473607       -2.72543834586858       -6.65590290821327
C           30.68335395482836       -2.11323326719925       -7.99096855683769
C           29.96098922222964       -4.06230390401284       -6.57496231913937
C           29.62531150173133       -4.63248400747022       -5.34532096980582
C           29.23472840226683       -6.08274062133073       -5.26003770107080
C           29.69773372250696       -3.85628003299639       -4.18753425012811
H           34.68050928498548        0.19229855729370       -0.28860691421097
H           34.64640405973842       -1.30449323595154       -2.44816223043034
H           32.80517005120814       -2.32983233135547       -3.94094981660269
H           27.38113590491955       -1.91802849736339       -4.06576729772171
H           25.55814655090346       -1.00910634295411       -2.45945924231269
H           25.86953066585429        0.73088510133183        2.61399402312056
H           27.81520612387773        1.70500307125806        4.20368849140512
H           30.53290777330938        4.47705030104379        3.39044369892559
H           30.10716182697183        6.52256125228997        6.45772958642822
H           31.65823554216680        6.40650892483011        5.58125034351385
H           30.12498397591321        6.55015848954427        4.67722341739770
H           30.48827766861118        4.41314220225107        7.68487912894258
H           30.50923788083021        0.65442444287026        7.86317746148304
H           31.11250763504505        2.09872113615419        8.71536992091068
H           29.35794828771036        1.87021776547406        8.48147535455072
H           30.32294820795138        0.73296395843430        5.47605277300121
H           33.10872124655791        2.66202502927996        3.63820689014327
H           34.81068640415887        1.76916789632842        1.87937748700409
H           30.68775806176437       -0.90619984964115       -5.55090199507796
H           31.16276756133569       -2.85005712621261       -8.65037681656196
H           31.36318992230136       -1.25764821365162       -7.87748865235179
H           29.75692524870536       -1.76451494807476       -8.47059871870959
H           29.91457878277708       -4.66414543114074       -7.47796557840074
H           30.13365971967693       -6.69343641562611       -5.09143964401818
H           28.75406385578411       -6.41606197825248       -6.19004431029743
H           28.53505904757171       -6.25279640189983       -4.42967824703301
H           29.45793613022154       -4.29528969457388       -3.22402811797462
C           22.81091090772778        0.00198561834968        0.00649502401113
C           21.58993084315937       -0.01355137891259       -0.00189964245541
C           20.22024789264139       -0.01351180571107       -0.01420082833250
C           19.00218563319302       -0.02116576611823       -0.00028820791396
C           24.17896553140564       -0.00326367367396        0.01349925134619
C           25.39751168888604        0.01949269572529        0.02675808720399
142
 energy: -221.023263389430 gnorm: 0.078442322396 xtb: 6.5.1 (b24c23e)
Zn          14.16550007455524        0.00832476298741       -0.02905576583106
C           10.80409280152635        0.15871336838628       -0.25448244421089
C           11.47445289929273        1.30305120886512        0.12608695324622
C           10.81846743852637        2.52936406543625        0.51270111292598
C           11.78447626906821        3.42388146772429        0.80918327431978
C           13.05907744722213        2.76970652355019        0.60358088497482
N           12.83072815118362        1.47967012030624        0.19257970401808
C           14.29591180809468        3.37146483849579        0.78268349277033
C           15.53567161611723        2.73990462642089        0.57502900646530
C           16.81799722920176        3.40204452997555        0.57774929831932
C           17.75980983219261        2.45356705465477        0.34341440741839
N           15.70541657901757        1.42924343535643        0.32792038586435
C           17.05105162472996        1.20997930703833        0.19777764463830
C           17.61723312397360       -0.04293234428924       -0.00046207835272
C           16.88826656494190       -1.26302925332893       -0.15434148536629
C           17.48680538450846       -2.53455222398678       -0.14581833994565
C           16.49540808540360       -3.45135724317758       -0.39089765804463
C           15.28755223979368       -2.74487191929163       -0.54813610724163
C           14.04592817599783       -3.35685468639242       -0.88818946902273
C           14.00706980320418       -4.81967905352868       -1.22832479793307
C           13.91624093336165       -5.24115055400970       -2.55680910974005
C           13.89518660615094       -6.59826218262244       -2.87732811861910
C           13.80187364359080       -7.04363604468221       -4.31656590793687
C           13.93343184165430       -7.54118257109652       -1.85501543145370
C           13.99458046749196       -7.14110465988527       -0.52220671759155
C           14.05256051781132       -8.18094141394505        0.56968977929685
C           14.03210677480584       -5.78285502760510       -0.21780929475242
C           12.84374003945994       -2.68127177830674       -0.91008474825963
C           11.54332736926471       -3.22331730187338       -1.22381463383497
C           10.64452042870286       -2.22636065986982       -1.03338680844166
C           11.38055777741741       -1.06579278747864       -0.59983928091239
N           12.69077293735647       -1.35312151475224       -0.54469689491374
N           15.53944765965957       -1.39397464176193       -0.37963893646004
C           14.32738051054016        4.79247837161829        1.22780414656372
C           13.99542440520995        5.82246850808434        0.34960465503566
C           14.04593384045237        7.14890042393728        0.76609315155523
C           13.71531376324656        8.26308169504965       -0.19407605469499
C           14.43843563966552        7.44038379549685        2.06976098607029
C           14.77067984768982        6.42246548374349        2.95873689123549
C           15.16629375380757        6.74520144237616        4.37725388627581
C           14.70594004898265        5.09909291971264        2.53345878326572
H            9.72114345940311        0.21555506743129       -0.27256942474141
H            9.75346920222877        2.69782632272918        0.56455560791632
H           11.61930857361022        4.43702584880771        1.14087775067097
H           17.00236223153595        4.45165601716354        0.71797015679741
H           18.82728020815275        2.61912686910852        0.28082700047000
H           18.53297348180853       -2.72699081307777        0.02388978551560
H           16.59767935247193       -4.51983240146970       -0.46491566571364
H           13.87210021779200       -4.50215329709856       -3.35125711630213
H           14.28645587294817       -8.00989533443330       -4.46131043337675
H           12.75118770414933       -7.14331282347606       -4.60054237258145
H           14.26906197345624       -6.31820772666059       -4.98252288428088
H           13.91294353229600       -8.60131012649226       -2.09788744489952
H           13.89331514838239       -7.73472829534573        1.55093514927234
H           13.29507497774327       -8.94959640550753        0.40951557499043
H           15.03242871585290       -8.66437264736739        0.56558505570093
H           14.07934698301576       -5.46332999744014        0.81840704282182
H           11.31576481628607       -4.23072453367970       -1.54164192750481
H            9.57965424138383       -2.28724819497028       -1.17367284390013
H           13.71125230668247        5.58353344526809       -0.67081863946025
H           13.24344107220560        9.09660655215811        0.32640354201880
H           13.04426642775117        7.91657817583626       -0.97993290450429
H           14.63386674102429        8.62649480307002       -0.66133381106485
H           14.48561925264002        8.47588582124137        2.39669923881655
H           14.27551478844507        6.75405634891990        5.01021426409148
H           15.63961964931297        7.72519103564766        4.43781194953599
H           15.85724789728124        5.99870055737086        4.76901274248531
H           14.94533822635060        4.29473848921818        3.22292478925359
Zn          30.23472616746519        0.02504965954277       -0.01622886034279
C           33.59607069723870        0.20006480711562       -0.22343990044600
C           32.92568471635092       -0.48399605517206       -1.21660107474410
C           33.58162904536535       -1.19670567639355       -2.28683491252971
C           32.61558990106730       -1.73046965055283       -3.06344336859235
C           31.34094841268481       -1.35085867487717       -2.49235248166344
N           31.56940685076533       -0.59700397013701       -1.36775463612776
C           30.10398889129975       -1.69023242991773       -3.02034207522522
C           28.86400603480309       -1.31526779723934       -2.47129657580480
C           27.58182608398571       -1.50196131370662       -3.10685743444666
C           26.63960390859034       -1.01302502636851       -2.26130628483493
N           28.69360825154644       -0.71437135213551       -1.28061387308856
C           27.34746219731007       -0.52825024031909       -1.10679048924025
C           26.78248177216208        0.00851715923626        0.04270787550551
C           27.51315983894091        0.49803220095758        1.17042563121565
C           26.91389641046927        0.84530139041203        2.39345664621883
C           27.90495640390819        1.33618915039166        3.20598365665713
C           29.11290672438454        1.29030617602485        2.48387431994941
C           30.35437976022266        1.78742717983188        2.97685968570364
C           30.39316820377962        2.52126949260140        4.28716491258408
C           30.48394391331990        3.91455585772266        4.32216089306392
C           30.50498180831050        4.60016088938971        5.53641187318741
C           30.59829650459676        6.10648457448721        5.56354326875691
C           30.46674077000159        3.88071802784679        6.72663239321597
C           30.40559223242582        2.48921999258612        6.71337128481099
C           30.34761133291798        1.72992451963974        8.01604746799446
C           30.36808662490001        1.81877532487274        5.49353872762911
C           31.55651844465531        1.62033143716687        2.32184020195544
C           32.85690557474540        2.07252696520024        2.75512172077638