      -----------------------------------------------------------      
     |                   =====================                   |     
     |                           x T B                           |     
     |                   =====================                   |     
     |                         S. Grimme                         |     
     |          Mulliken Center for Theoretical Chemistry        |     
     |                    University of Bonn                     |     
      -----------------------------------------------------------      

   * xtb version 6.5.1 (b24c23e) compiled by 'conda@728c89f4b128' on 2022-07-12

   xtb is free software: you can redistribute it and/or modify it under
   the terms of the GNU Lesser General Public License as published by
   the Free Software Foundation, either version 3 of the License, or
   (at your option) any later version.
   
   xtb is distributed in the hope that it will be useful,
   but WITHOUT ANY WARRANTY; without even the implied warranty of
   MERCHANTABILITY or FITNESS FOR A PARTICULAR PURPOSE.  See the
   GNU Lesser General Public License for more details.
   
   Cite this work as:
   * C. Bannwarth, E. Caldeweyher, S. Ehlert, A. Hansen, P. Pracht,
     J. Seibert, S. Spicher, S. Grimme, WIREs Comput. Mol. Sci., 2020, 11,
     e01493. DOI: 10.1002/wcms.1493
   
   for GFN2-xTB:
   * C. Bannwarth, S. Ehlert and S. Grimme., J. Chem. Theory Comput., 2019,
     15, 1652-1671. DOI: 10.1021/acs.jctc.8b01176
   for GFN1-xTB:
   * S. Grimme, C. Bannwarth, P. Shushkov, J. Chem. Theory Comput., 2017,
     13, 1989-2009. DOI: 10.1021/acs.jctc.7b00118
   for GFN0-xTB:
   * P. Pracht, E. Caldeweyher, S. Ehlert, S. Grimme, ChemRxiv, 2019, preprint.
     DOI: 10.26434/chemrxiv.8326202.v1
   for GFN-FF:
   * S. Spicher and S. Grimme, Angew. Chem. Int. Ed., 2020, 59, 15665-15673.
     DOI: 10.1002/anie.202004239
   
   for ALPB and GBSA implicit solvation:
   * S. Ehlert, M. Stahn, S. Spicher, S. Grimme, J. Chem. Theory Comput.,
     2021, 17, 4250-4261. DOI: 10.1021/acs.jctc.1c00471
   
   for DFT-D4:
   * E. Caldeweyher, C. Bannwarth and S. Grimme, J. Chem. Phys., 2017,
     147, 034112. DOI: 10.1063/1.4993215
   * E. Caldeweyher, S. Ehlert, A. Hansen, H. Neugebauer, S. Spicher,
     C. Bannwarth and S. Grimme, J. Chem. Phys., 2019, 150, 154122.
     DOI: 10.1063/1.5090222
   * E. Caldeweyher, J.-M. Mewes, S. Ehlert and S. Grimme, Phys. Chem. Chem. Phys.
     2020, 22, 8499-8512. DOI: 10.1039/D0CP00502A
   
   for sTDA-xTB:
   * S. Grimme and C. Bannwarth, J. Chem. Phys., 2016, 145, 054103.
     DOI: 10.1063/1.4959605
   
   in the mass-spec context:
   * V. Asgeirsson, C. Bauer and S. Grimme, Chem. Sci., 2017, 8, 4879.
     DOI: 10.1039/c7sc00601b
   * J. Koopman and S. Grimme, ACS Omega 2019, 4, 12, 15120-15133.
     DOI: 10.1021/acsomega.9b02011
   
   for metadynamics refer to:
   * S. Grimme, J. Chem. Theory Comput., 2019, 155, 2847-2862
     DOI: 10.1021/acs.jctc.9b00143
   
   for SPH calculations refer to:
   * S. Spicher and S. Grimme, J. Chem. Theory Comput., 2021, 17, 1701-1714
     DOI: 10.1021/acs.jctc.0c01306
   
   with help from (in alphabetical order)
   P. Atkinson, C. Bannwarth, F. Bohle, G. Brandenburg, E. Caldeweyher
   M. Checinski, S. Dohm, S. Ehlert, S. Ehrlich, I. Gerasimov, C. Hölzer
   A. Katbashev, J. Koopman, C. Lavigne, S. Lehtola, F. März, M. Müller,
   F. Musil, H. Neugebauer, J. Pisarek, C. Plett, P. Pracht, F. Pultar,
   J. Seibert, P. Shushkov, S. Spicher, M. Stahn, M. Steiner, T. Strunk,
   J. Stückrath, T. Rose, and J. Unsleber
   
 * started run on 2022/07/30 at 11:23:35.877     

           -------------------------------------------------
          |                Calculation Setup                |
           -------------------------------------------------

          program call               : xtb xtbopt.xyz --gfn 1 --vipea
          hostname                   : cx3-14-28.cx3.hpc.ic.ac.uk
          coordinate file            : xtbopt.xyz
          omp threads                :                     1

   ID    Z sym.   atoms
    1   30 Zn     1, 57, 121
    2    6 C      2-6, 8-11, 13-29, 32-37, 58-62, 64-67, 69-85, 88-93,
                  113-120, 122-126, 128-131, 133-149, 152-157
    3    7 N      7, 12, 30, 31, 63, 68, 86, 87, 127, 132, 150, 151
    4    1 H      38-56, 94-112, 158-175

           -------------------------------------------------
          |                 I P E A - x T B                 |
           -------------------------------------------------

        Reference                      10.1039/c7sc00601b
      * Hamiltonian:
        H0-scaling (s, p, d)           2.150000    2.300000    2.000000
        zeta-weighting                 0.000000
      * Dispersion:
        s8                             2.400000
        a1                             0.630000
        a2                             5.000000
        s9                             0.000000
      * Repulsion:
        kExp                           1.500000
        rExp                           1.000000
      * Coulomb:
        alpha                          1.000000
        third order                    atomic
        anisotropic                    false
      * Halogen bond correction:
        rad-scale                      1.300000
        damping                        0.440000


          ...................................................
          :                      SETUP                      :
          :.................................................:
          :  # basis functions                 704          :
          :  # atomic orbitals                 704          :
          :  # shells                          466          :
          :  # electrons                       538          :
          :  # halogen bonds                     0          :
          :  max. iterations                   250          :
          :  Hamiltonian                  GFN1-xTB          :
          :  restarted?                      false          :
          :  GBSA solvation                  false          :
          :  PC potential                    false          :
          :  electronic temp.          300.0000000     K    :
          :  accuracy                    1.0000000          :
          :  -> integral cutoff          0.2500000E+02      :
          :  -> integral neglect         0.1000000E-07      :
          :  -> SCF convergence          0.1000000E-05 Eh   :
          :  -> wf. convergence          0.2000000E-04 e    :
          :  Broyden damping             0.4000000          :
          ...................................................

 iter      E             dE          RMSdq      gap      omega  full diag
   1   -334.7376645 -0.334738E+03  0.103E+01    1.34       0.0  T
   2   -335.1277470 -0.390083E+00  0.662E+00    1.44       1.0  T
   3   -331.9760219  0.315173E+01  0.477E+00    0.97       1.0  T
   4   -336.2912400 -0.431522E+01  0.139E+00    1.50       1.0  T
   5   -337.0542993 -0.763059E+00  0.333E-01    1.21       1.0  T
   6   -337.0920889 -0.377896E-01  0.104E-01    1.26       1.0  T
   7   -337.0939783 -0.188935E-02  0.569E-02    1.25       1.0  T
   8   -337.0947467 -0.768440E-03  0.274E-02    1.25       1.0  T
   9   -337.0946892  0.575679E-04  0.214E-02    1.25       1.0  T
  10   -337.0948442 -0.155068E-03  0.536E-03    1.25       1.4  T
  11   -337.0948522 -0.793830E-05  0.260E-03    1.25       2.9  T
  12   -337.0948550 -0.279127E-05  0.609E-04    1.25      12.4  T
  13   -337.0948551 -0.108750E-06  0.260E-04    1.25      29.0  T
  14   -337.0948551 -0.220478E-07  0.646E-05    1.25     117.0  T
  15   -337.0948551 -0.108713E-08  0.301E-05    1.25     250.9  T

   *** convergence criteria satisfied after 15 iterations ***

         #    Occupation            Energy/Eh            Energy/eV
      -------------------------------------------------------------
         1        2.0000           -1.0112858             -27.5185
       ...           ...                  ...                  ...
       263        2.0000           -0.4166196             -11.3368
       264        2.0000           -0.3899573             -10.6113
       265        2.0000           -0.3893040             -10.5935
       266        2.0000           -0.3888505             -10.5812
       267        2.0000           -0.3888499             -10.5811
       268        2.0000           -0.3789747             -10.3124
       269        2.0000           -0.3680643             -10.0155 (HOMO)
       270                         -0.3220345              -8.7630 (LUMO)
       271                         -0.3090426              -8.4095
       272                         -0.3045547              -8.2874
       273                         -0.3038024              -8.2669
       274                         -0.3037850              -8.2664
       ...                                ...                  ...
       704                        532.0079572           14476.6734
      -------------------------------------------------------------
                  HL-Gap            0.0460298 Eh            1.2525 eV
             Fermi-level           -0.3450494 Eh           -9.3893 eV

 SCC (total)                   0 d,  0 h,  0 min,  3.623 sec
 SCC setup                      ...        0 min,  0.004 sec (  0.106%)
 Dispersion                     ...        0 min,  0.006 sec (  0.160%)
 classical contributions        ...        0 min,  0.002 sec (  0.058%)
 integral evaluation            ...        0 min,  0.449 sec ( 12.385%)
 iterations                     ...        0 min,  2.143 sec ( 59.135%)
 molecular gradient             ...        0 min,  0.992 sec ( 27.376%)
 printout                       ...        0 min,  0.028 sec (  0.780%)

         :::::::::::::::::::::::::::::::::::::::::::::::::::::
         ::                     SUMMARY                     ::
         :::::::::::::::::::::::::::::::::::::::::::::::::::::
         :: total energy            -330.197041936636 Eh    ::
         :: gradient norm              0.056200251374 Eh/a0 ::
         :: HOMO-LUMO gap              1.252534448984 eV    ::
         ::.................................................::
         :: SCC energy              -337.094855091014 Eh    ::
         :: -> electrostatic           0.236922069599 Eh    ::
         :: repulsion energy           7.056251252929 Eh    ::
         :: dispersion energy         -0.158438098551 Eh    ::
         :: halogen bond corr.         0.000000000000 Eh    ::
         :: add. restraining           0.000000000000 Eh    ::
         :: total charge               0.000000000000 e     ::
         :::::::::::::::::::::::::::::::::::::::::::::::::::::

           ------------------------------------------------- 
          |        vertical delta SCC IP calculation        |
           ------------------------------------------------- 
   1   -336.6894392 -0.336689E+03  0.116E-01    1.25       0.0  T
   2   -336.6932845 -0.384530E-02  0.945E-02    1.21       1.0  T
   3   -336.6972406 -0.395608E-02  0.553E-02    1.24       1.0  T
   4   -336.6978211 -0.580508E-03  0.325E-02    1.23       1.0  T
   5   -336.6978621 -0.410249E-04  0.198E-02    1.23       1.0  T
   6   -336.6978984 -0.362746E-04  0.121E-02    1.23       1.0  T
   7   -336.6979411 -0.427647E-04  0.516E-03    1.23       1.5  T
   8   -336.6979498 -0.867159E-05  0.213E-03    1.23       3.5  T
   9   -336.6979500 -0.174626E-06  0.164E-03    1.23       4.6  T
  10   -336.6979515 -0.154849E-05  0.959E-04    1.23       7.9  T
  11   -336.6979523 -0.729669E-06  0.212E-04    1.23      35.6  T
  12   -336.6979523 -0.179243E-07  0.784E-05    1.23      96.4  T
  13   -336.6979523 -0.146463E-08  0.450E-05    1.23     168.0  T
     SCC iter.                  ...        0 min,  2.029 sec
     gradient                   ...        0 min,  1.037 sec
------------------------------------------------------------------------
empirical IP shift (eV):    4.8455
delta SCC IP (eV):    5.9548
------------------------------------------------------------------------
           ------------------------------------------------- 
          |        vertical delta SCC EA calculation        |
           ------------------------------------------------- 
   1   -337.3553429 -0.337355E+03  0.213E-01    0.44       0.0  T
   2   -337.3713600 -0.160171E-01  0.183E-01    0.19       1.0  T
   3   -337.3852430 -0.138831E-01  0.989E-02    0.29       1.0  T
   4   -337.3866560 -0.141297E-02  0.659E-02    0.26       1.0  T
   5   -337.3868994 -0.243400E-03  0.381E-02    0.26       1.0  T
   6   -337.3870548 -0.155426E-03  0.201E-02    0.26       1.0  T
   7   -337.3871806 -0.125749E-03  0.918E-03    0.26       1.0  T
   8   -337.3872086 -0.280387E-04  0.396E-03    0.26       1.9  T
   9   -337.3872123 -0.367731E-05  0.190E-03    0.26       4.0  T
  10   -337.3872128 -0.472296E-06  0.141E-03    0.26       5.4  T
  11   -337.3872144 -0.158353E-05  0.441E-04    0.26      17.2  T
  12   -337.3872145 -0.107721E-06  0.156E-04    0.26      48.4  T
  13   -337.3872145 -0.709309E-08  0.689E-05    0.26     109.7  T
     SCC iter.                  ...        0 min,  2.187 sec
     gradient                   ...        0 min,  1.001 sec
------------------------------------------------------------------------
empirical EA shift (eV):    4.8455
delta SCC EA (eV):    3.1100
------------------------------------------------------------------------
           -------------------------------------------------
          |                Property Printout                |
           -------------------------------------------------

    * Orbital Energies and Occupations

         #    Occupation            Energy/Eh            Energy/eV
      -------------------------------------------------------------
         1        2.0000           -0.9562983             -26.0222
       ...           ...                  ...                  ...
       258        2.0000           -0.3701472             -10.0722
       259        2.0000           -0.3696063             -10.0575
       260        2.0000           -0.3692732             -10.0484
       261        2.0000           -0.3581480              -9.7457
       262        2.0000           -0.3572661              -9.7217
       263        2.0000           -0.3570967              -9.7171
       264        2.0000           -0.3353637              -9.1257
       265        2.0000           -0.3353615              -9.1257
       266        2.0000           -0.3331507              -9.0655
       267        2.0000           -0.3281958              -8.9307
       268        2.0000           -0.3239937              -8.8163
       269        2.0000           -0.3094408              -8.4203
       270        0.9932           -0.2631872              -7.1617 (HOMO)
       271        0.0053           -0.2534878              -6.8978 (LUMO)
       272        0.0008           -0.2516331              -6.8473
       273        0.0007           -0.2516151              -6.8468
       274        0.0000           -0.2445391              -6.6542
       275                         -0.2401426              -6.5346
       276                         -0.2121837              -5.7738
       277                         -0.2045018              -5.5648
       278                         -0.1971123              -5.3637
       279                         -0.1925029              -5.2383
       280                         -0.1911477              -5.2014
       281                         -0.1755005              -4.7756
       ...                                ...                  ...
       704                        532.0647767           14478.2195
      -------------------------------------------------------------
                  HL-Gap            0.0096994 Eh            0.2639 eV
             Fermi-level           -0.2723852 Eh           -7.4120 eV

  Mulliken/CM5 charges         n(s)   n(p)   n(d)
     1Zn    0.36262  0.68785   0.763  0.875  0.000
     2C    -0.03002 -0.07114   1.085  2.945  0.000
     3C     0.05547  0.11721   1.118  2.826  0.000
     4C    -0.04158 -0.08761   1.088  2.953  0.000
     5C    -0.03729 -0.08291   1.085  2.953  0.000
     6C     0.05531  0.12074   1.110  2.835  0.000
     7N    -0.24004 -0.48382   1.350  3.890  0.000
     8C     0.00738  0.01272   1.094  2.899  0.000
     9C     0.05450  0.11904   1.108  2.838  0.000
    10C    -0.03739 -0.08302   1.082  2.955  0.000
    11C    -0.03815 -0.08329   1.087  2.952  0.000
    12N    -0.23657 -0.47972   1.351  3.885  0.000
    13C     0.06075  0.12729   1.123  2.816  0.000
    14C     0.01256  0.01945   1.084  2.903  0.000
    15C     0.06071  0.12724   1.123  2.816  0.000
    16C    -0.03821 -0.08335   1.087  2.952  0.000
    17C    -0.03742 -0.08305   1.082  2.955  0.000
    18C     0.05449  0.11904   1.108  2.838  0.000
    19C     0.00735  0.01270   1.094  2.899  0.000
    20C     0.00683 -0.00197   1.088  2.905  0.000
    21C    -0.02317 -0.07660   1.078  2.945  0.000
    22C    -0.02889 -0.08469   1.086  2.943  0.000
    23C    -0.03090 -0.08674   1.086  2.944  0.000
    24C    -0.02828 -0.08408   1.086  2.942  0.000
    25C    -0.02244 -0.07587   1.078  2.944  0.000
    26C     0.05531  0.12074   1.110  2.835  0.000
    27C    -0.03728 -0.08292   1.085  2.953  0.000
    28C    -0.04158 -0.08761   1.088  2.953  0.000
    29C     0.05546  0.11721   1.118  2.826  0.000
    30N    -0.24007 -0.48376   1.350  3.891  0.000
    31N    -0.23659 -0.47967   1.351  3.885  0.000
    32C     0.00686 -0.00194   1.088  2.905  0.000
    33C    -0.02319 -0.07659   1.078  2.945  0.000
    34C    -0.02887 -0.08465   1.086  2.942  0.000
    35C    -0.03091 -0.08675   1.086  2.944  0.000
    36C    -0.02827 -0.08407   1.086  2.942  0.000
    37C    -0.02246 -0.07588   1.078  2.944  0.000
    38H     0.02054  0.07938   0.979  0.000  0.000
    39H     0.02658  0.08307   0.973  0.000  0.000
    40H     0.01937  0.07807   0.981  0.000  0.000
    41H     0.02085  0.07962   0.979  0.000  0.000
    42H     0.02565  0.08362   0.974  0.000  0.000
    43H     0.02559  0.08355   0.974  0.000  0.000
    44H     0.02078  0.07955   0.979  0.000  0.000
    45H     0.01978  0.07758   0.980  0.000  0.000
    46H     0.02566  0.08151   0.974  0.000  0.000
    47H     0.02562  0.08145   0.974  0.000  0.000
    48H     0.02680  0.08265   0.973  0.000  0.000
    49H     0.02105  0.07885   0.979  0.000  0.000
    50H     0.01935  0.07806   0.981  0.000  0.000
    51H     0.02659  0.08307   0.973  0.000  0.000
    52H     0.01980  0.07757   0.980  0.000  0.000
    53H     0.02568  0.08152   0.974  0.000  0.000
    54H     0.02563  0.08146   0.974  0.000  0.000
    55H     0.02681  0.08266   0.973  0.000  0.000
    56H     0.02107  0.07883   0.979  0.000  0.000
    57Zn    0.36262  0.68781   0.763  0.875  0.000
    58C    -0.03002 -0.07114   1.085  2.945  0.000
    59C     0.05546  0.11720   1.118  2.826  0.000
    60C    -0.04158 -0.08761   1.088  2.953  0.000
    61C    -0.03728 -0.08291   1.085  2.953  0.000
    62C     0.05531  0.12074   1.110  2.835  0.000
    63N    -0.24003 -0.48382   1.350  3.890  0.000
    64C     0.00737  0.01271   1.094  2.899  0.000
    65C     0.05450  0.11904   1.108  2.838  0.000
    66C    -0.03740 -0.08303   1.082  2.955  0.000
    67C    -0.03815 -0.08329   1.087  2.952  0.000
    68N    -0.23658 -0.47970   1.351  3.885  0.000
    69C     0.06075  0.12727   1.123  2.816  0.000
    70C     0.01255  0.01944   1.084  2.903  0.000
    71C     0.06071  0.12725   1.123  2.816  0.000
    72C    -0.03821 -0.08335   1.087  2.952  0.000
    73C    -0.03741 -0.08305   1.082  2.955  0.000
    74C     0.05449  0.11903   1.108  2.838  0.000
    75C     0.00735  0.01269   1.094  2.899  0.000
    76C     0.00682 -0.00198   1.088  2.905  0.000
    77C    -0.02317 -0.07659   1.078  2.945  0.000
    78C    -0.02890 -0.08471   1.086  2.943  0.000
    79C    -0.03090 -0.08675   1.086  2.944  0.000
    80C    -0.02828 -0.08408   1.086  2.942  0.000
    81C    -0.02243 -0.07587   1.078  2.944  0.000
    82C     0.05531  0.12074   1.110  2.835  0.000
    83C    -0.03728 -0.08292   1.085  2.953  0.000
    84C    -0.04159 -0.08762   1.088  2.953  0.000
    85C     0.05546  0.11721   1.118  2.826  0.000
    86N    -0.24008 -0.48373   1.350  3.891  0.000
    87N    -0.23659 -0.47967   1.351  3.885  0.000
    88C     0.00685 -0.00195   1.088  2.905  0.000
    89C    -0.02318 -0.07659   1.078  2.945  0.000
    90C    -0.02887 -0.08465   1.086  2.942  0.000
    91C    -0.03091 -0.08675   1.086  2.944  0.000
    92C    -0.02828 -0.08408   1.086  2.942  0.000
    93C    -0.02245 -0.07588   1.078  2.944  0.000
    94H     0.02054  0.07938   0.979  0.000  0.000
    95H     0.02659  0.08307   0.973  0.000  0.000
    96H     0.01937  0.07808   0.981  0.000  0.000
    97H     0.02084  0.07961   0.979  0.000  0.000
    98H     0.02564  0.08361   0.974  0.000  0.000
    99H     0.02560  0.08356   0.974  0.000  0.000
   100H     0.02078  0.07956   0.979  0.000  0.000
   101H     0.01978  0.07759   0.980  0.000  0.000
   102H     0.02567  0.08153   0.974  0.000  0.000
   103H     0.02562  0.08146   0.974  0.000  0.000
   104H     0.02681  0.08266   0.973  0.000  0.000
   105H     0.02104  0.07884   0.979  0.000  0.000
   106H     0.01934  0.07805   0.981  0.000  0.000
   107H     0.02658  0.08307   0.973  0.000  0.000
   108H     0.01979  0.07757   0.980  0.000  0.000
   109H     0.02568  0.08152   0.974  0.000  0.000
   110H     0.02563  0.08146   0.974  0.000  0.000
   111H     0.02680  0.08266   0.973  0.000  0.000
   112H     0.02106  0.07883   0.979  0.000  0.000
   113C    -0.02576 -0.02658   1.062  2.964  0.000
   114C    -0.02722 -0.02879   1.088  2.939  0.000
   115C    -0.02945 -0.03027   1.059  2.971  0.000
   116C    -0.02331 -0.02488   1.093  2.930  0.000
   117C    -0.02945 -0.03026   1.059  2.971  0.000
   118C    -0.02332 -0.02488   1.093  2.930  0.000
   119C    -0.02576 -0.02658   1.062  2.964  0.000
   120C    -0.02722 -0.02879   1.088  2.939  0.000
   121Zn    0.36339  0.68703   0.765  0.872  0.000
   122C     0.00799  0.01490   1.080  2.912  0.000
   123C     0.06045  0.12703   1.123  2.816  0.000
   124C    -0.04063 -0.08577   1.085  2.955  0.000
   125C    -0.03783 -0.08345   1.083  2.955  0.000
   126C     0.05242  0.11695   1.105  2.842  0.000
   127N    -0.23758 -0.48039   1.351  3.887  0.000
   128C     0.00962  0.01488   1.096  2.895  0.000
   129C     0.05240  0.11694   1.105  2.842  0.000
   130C    -0.03785 -0.08346   1.083  2.955  0.000
   131C    -0.04066 -0.08580   1.085  2.955  0.000
   132N    -0.23755 -0.48051   1.351  3.887  0.000
   133C     0.06038  0.12695   1.123  2.816  0.000
   134C     0.00799  0.01490   1.080  2.912  0.000
   135C     0.06043  0.12700   1.123  2.816  0.000
   136C    -0.04065 -0.08578   1.085  2.955  0.000
   137C    -0.03784 -0.08346   1.083  2.955  0.000
   138C     0.05241  0.11694   1.105  2.842  0.000
   139C     0.00963  0.01489   1.096  2.895  0.000
   140C     0.00758 -0.00126   1.088  2.904  0.000
   141C    -0.02233 -0.07575   1.078  2.944  0.000
   142C    -0.02861 -0.08441   1.086  2.942  0.000
   143C    -0.03109 -0.08692   1.086  2.945  0.000
   144C    -0.02860 -0.08440   1.086  2.942  0.000
   145C    -0.02235 -0.07577   1.078  2.944  0.000
   146C     0.05240  0.11692   1.105  2.842  0.000
   147C    -0.03784 -0.08346   1.083  2.955  0.000
   148C    -0.04067 -0.08581   1.085  2.955  0.000
   149C     0.06041  0.12701   1.123  2.816  0.000
   150N    -0.23757 -0.48038   1.351  3.887  0.000
   151N    -0.23756 -0.48048   1.351  3.887  0.000
   152C     0.00759 -0.00125   1.088  2.904  0.000
   153C    -0.02236 -0.07578   1.078  2.944  0.000
   154C    -0.02860 -0.08439   1.086  2.942  0.000
   155C    -0.03110 -0.08693   1.086  2.945  0.000
   156C    -0.02861 -0.08440   1.086  2.942  0.000
   157C    -0.02235 -0.07576   1.078  2.944  0.000
   158H     0.02259  0.08055   0.977  0.000  0.000
   159H     0.01879  0.07756   0.981  0.000  0.000
   160H     0.01875  0.07751   0.981  0.000  0.000
   161H     0.02254  0.08049   0.977  0.000  0.000
   162H     0.02256  0.08052   0.977  0.000  0.000
   163H     0.01877  0.07755   0.981  0.000  0.000
   164H     0.02036  0.07814   0.980  0.000  0.000
   165H     0.02554  0.08139   0.974  0.000  0.000
   166H     0.02469  0.08051   0.975  0.000  0.000
   167H     0.02558  0.08143   0.974  0.000  0.000
   168H     0.02038  0.07814   0.980  0.000  0.000
   169H     0.01873  0.07749   0.981  0.000  0.000
   170H     0.02252  0.08047   0.977  0.000  0.000
   171H     0.02039  0.07813   0.980  0.000  0.000
   172H     0.02557  0.08142   0.974  0.000  0.000
   173H     0.02469  0.08051   0.975  0.000  0.000
   174H     0.02553  0.08138   0.974  0.000  0.000
   175H     0.02036  0.07812   0.980  0.000  0.000

Wiberg/Mayer (AO) data.
largest (>0.10) Wiberg bond orders for each atom

 ---------------------------------------------------------------------------
     #   Z sym  total        # sym  WBO       # sym  WBO       # sym  WBO
 ---------------------------------------------------------------------------
     1  30 Zn   2.428 --     7 N    0.568    30 N    0.567    12 N    0.562
                            31 N    0.562
     2   6 C    3.796 --     3 C    1.386    29 C    1.386    38 H    0.998
     3   6 C    3.946 --     2 C    1.386     7 N    1.284     4 C    1.199
     4   6 C    3.846 --     5 C    1.643     3 C    1.199    39 H    0.994
     5   6 C    3.836 --     4 C    1.643     6 C    1.207    40 H    1.000
     6   6 C    3.915 --     8 C    1.368     7 N    1.275     5 C    1.207
     7   7 N    2.998 --     3 C    1.284     6 C    1.275     1 Zn   0.568
     8   6 C    3.836 --     6 C    1.368     9 C    1.363    32 C    1.046
     9   6 C    3.902 --     8 C    1.363    12 N    1.266    10 C    1.219
    10   6 C    3.824 --    11 C    1.621     9 C    1.219    41 H    0.999
    11   6 C    3.836 --    10 C    1.621    13 C    1.229    42 H    1.000
    12   7 N    3.012 --    13 C    1.312     9 C    1.266     1 Zn   0.562
    13   6 C    3.919 --    12 N    1.312    14 C    1.288    11 C    1.229
    14   6 C    3.814 --    13 C    1.288    15 C    1.288   114 C    1.233
    15   6 C    3.919 --    31 N    1.312    14 C    1.288    16 C    1.229
    16   6 C    3.836 --    17 C    1.620    15 C    1.229    43 H    1.000
    17   6 C    3.824 --    16 C    1.620    18 C    1.219    44 H    0.999
    18   6 C    3.902 --    19 C    1.363    31 N    1.266    17 C    1.219
    19   6 C    3.836 --    26 C    1.368    18 C    1.363    20 C    1.047
    20   6 C    3.897 --    21 C    1.426    25 C    1.426    19 C    1.047
    21   6 C    3.867 --    22 C    1.447    20 C    1.426    45 H    0.990
    22   6 C    3.911 --    21 C    1.447    23 C    1.441    46 H    0.982
    23   6 C    3.904 --    22 C    1.441    24 C    1.441    47 H    0.984
    24   6 C    3.911 --    25 C    1.447    23 C    1.441    48 H    0.982
    25   6 C    3.868 --    24 C    1.447    20 C    1.426    49 H    0.989
    26   6 C    3.915 --    19 C    1.368    30 N    1.275    27 C    1.207
    27   6 C    3.836 --    28 C    1.643    26 C    1.207    50 H    1.000
    28   6 C    3.846 --    27 C    1.643    29 C    1.199    51 H    0.994
    29   6 C    3.946 --     2 C    1.386    30 N    1.284    28 C    1.199
    30   7 N    2.998 --    29 C    1.284    26 C    1.275     1 Zn   0.567
    31   7 N    3.012 --    15 C    1.312    18 C    1.266     1 Zn   0.562
    32   6 C    3.897 --    37 C    1.426    33 C    1.426     8 C    1.046
    33   6 C    3.867 --    34 C    1.447    32 C    1.426    52 H    0.989
    34   6 C    3.911 --    33 C    1.447    35 C    1.441    53 H    0.982
    35   6 C    3.905 --    34 C    1.441    36 C    1.441    54 H    0.984
    36   6 C    3.911 --    37 C    1.447    35 C    1.441    55 H    0.982
    37   6 C    3.868 --    36 C    1.447    32 C    1.426    56 H    0.989
    38   1 H    1.034 --     2 C    0.998
    39   1 H    1.023 --     4 C    0.994
    40   1 H    1.039 --     5 C    1.000
    41   1 H    1.038 --    10 C    0.999
    42   1 H    1.032 --    11 C    1.000
    43   1 H    1.032 --    16 C    1.000
    44   1 H    1.038 --    17 C    0.999
    45   1 H    1.057 --    21 C    0.990
    46   1 H    1.036 --    22 C    0.982
    47   1 H    1.030 --    23 C    0.984
    48   1 H    1.036 --    24 C    0.982
    49   1 H    1.057 --    25 C    0.989
    50   1 H    1.039 --    27 C    1.000
    51   1 H    1.023 --    28 C    0.994
    52   1 H    1.057 --    33 C    0.989
    53   1 H    1.036 --    34 C    0.982
    54   1 H    1.030 --    35 C    0.984
    55   1 H    1.036 --    36 C    0.982
    56   1 H    1.057 --    37 C    0.989
    57  30 Zn   2.428 --    63 N    0.568    86 N    0.567    68 N    0.562
                            87 N    0.562
    58   6 C    3.796 --    59 C    1.386    85 C    1.386    94 H    0.998
    59   6 C    3.946 --    58 C    1.386    63 N    1.284    60 C    1.199
    60   6 C    3.846 --    61 C    1.643    59 C    1.199    95 H    0.994
    61   6 C    3.836 --    60 C    1.643    62 C    1.207    96 H    1.000
    62   6 C    3.915 --    64 C    1.368    63 N    1.275    61 C    1.207
    63   7 N    2.998 --    59 C    1.284    62 C    1.275    57 Zn   0.568
    64   6 C    3.836 --    62 C    1.368    65 C    1.363    88 C    1.046
    65   6 C    3.902 --    64 C    1.363    68 N    1.266    66 C    1.219
    66   6 C    3.824 --    67 C    1.620    65 C    1.219    97 H    0.999
    67   6 C    3.836 --    66 C    1.620    69 C    1.229    98 H    1.000
    68   7 N    3.012 --    69 C    1.312    65 C    1.266    57 Zn   0.562
    69   6 C    3.919 --    68 N    1.312    70 C    1.288    67 C    1.229
    70   6 C    3.814 --    71 C    1.288    69 C    1.288   120 C    1.233
    71   6 C    3.919 --    87 N    1.312    70 C    1.288    72 C    1.229
    72   6 C    3.836 --    73 C    1.620    71 C    1.229    99 H    1.000
    73   6 C    3.824 --    72 C    1.620    74 C    1.219   100 H    0.999
    74   6 C    3.902 --    75 C    1.363    87 N    1.266    73 C    1.219
    75   6 C    3.836 --    82 C    1.368    74 C    1.363    76 C    1.047
    76   6 C    3.897 --    81 C    1.426    77 C    1.425    75 C    1.047
    77   6 C    3.867 --    78 C    1.447    76 C    1.425   101 H    0.990
    78   6 C    3.911 --    77 C    1.447    79 C    1.441   102 H    0.982
    79   6 C    3.904 --    78 C    1.441    80 C    1.441   103 H    0.984
    80   6 C    3.911 --    81 C    1.447    79 C    1.441   104 H    0.982
    81   6 C    3.868 --    80 C    1.447    76 C    1.426   105 H    0.989
    82   6 C    3.915 --    75 C    1.368    86 N    1.275    83 C    1.207
    83   6 C    3.836 --    84 C    1.643    82 C    1.207   106 H    1.000
    84   6 C    3.846 --    83 C    1.643    85 C    1.199   107 H    0.994
    85   6 C    3.946 --    58 C    1.386    86 N    1.284    84 C    1.199
    86   7 N    2.998 --    85 C    1.284    82 C    1.275    57 Zn   0.567
    87   7 N    3.012 --    71 C    1.312    74 C    1.266    57 Zn   0.562
    88   6 C    3.897 --    93 C    1.426    89 C    1.426    64 C    1.046
    89   6 C    3.867 --    90 C    1.447    88 C    1.426   108 H    0.989
    90   6 C    3.911 --    89 C    1.447    91 C    1.441   109 H    0.982
    91   6 C    3.905 --    90 C    1.441    92 C    1.441   110 H    0.984
    92   6 C    3.911 --    93 C    1.447    91 C    1.441   111 H    0.982
    93   6 C    3.868 --    92 C    1.447    88 C    1.426   112 H    0.989
    94   1 H    1.034 --    58 C    0.998
    95   1 H    1.023 --    60 C    0.994
    96   1 H    1.039 --    61 C    1.000
    97   1 H    1.038 --    66 C    0.999
    98   1 H    1.032 --    67 C    1.000
    99   1 H    1.032 --    72 C    1.000
   100   1 H    1.038 --    73 C    0.999
   101   1 H    1.057 --    77 C    0.990
   102   1 H    1.036 --    78 C    0.982
   103   1 H    1.030 --    79 C    0.984
   104   1 H    1.036 --    80 C    0.982
   105   1 H    1.057 --    81 C    0.989
   106   1 H    1.039 --    83 C    1.000
   107   1 H    1.023 --    84 C    0.994
   108   1 H    1.057 --    89 C    0.989
   109   1 H    1.036 --    90 C    0.982
   110   1 H    1.030 --    91 C    0.984
   111   1 H    1.036 --    92 C    0.982
   112   1 H    1.057 --    93 C    0.989
   113   6 C    3.800 --   114 C    2.484   115 C    1.339
   114   6 C    3.799 --   113 C    2.484    14 C    1.233   116 C    0.177
   115   6 C    3.799 --   116 C    2.483   113 C    1.339
   116   6 C    3.801 --   115 C    2.483   122 C    1.236   114 C    0.177
   117   6 C    3.799 --   118 C    2.483   119 C    1.339
   118   6 C    3.801 --   117 C    2.483   134 C    1.236   120 C    0.177
   119   6 C    3.800 --   120 C    2.484   117 C    1.339
   120   6 C    3.799 --   119 C    2.484    70 C    1.233   118 C    0.177
   121  30 Zn   2.418 --   132 N    0.563   151 N    0.563   127 N    0.563
                           150 N    0.563
   122   6 C    3.802 --   123 C    1.284   149 C    1.283   116 C    1.236
   123   6 C    3.921 --   127 N    1.315   122 C    1.284   124 C    1.230
   124   6 C    3.833 --   125 C    1.619   123 C    1.230   158 H    1.000
   125   6 C    3.829 --   124 C    1.619   126 C    1.221   159 H    1.000
   126   6 C    3.901 --   128 C    1.367   127 N    1.261   125 C    1.221
   127   7 N    3.002 --   123 C    1.315   126 C    1.261   121 Zn   0.563
   128   6 C    3.834 --   126 C    1.367   129 C    1.367   152 C    1.046
   129   6 C    3.902 --   128 C    1.367   132 N    1.261   130 C    1.221
   130   6 C    3.829 --   131 C    1.619   129 C    1.221   160 H    1.000
   131   6 C    3.833 --   130 C    1.619   133 C    1.230   161 H    1.000
   132   7 N    3.002 --   133 C    1.314   129 C    1.261   121 Zn   0.563
   133   6 C    3.921 --   132 N    1.314   134 C    1.284   131 C    1.230
   134   6 C    3.802 --   133 C    1.284   135 C    1.283   118 C    1.236
   135   6 C    3.921 --   151 N    1.315   134 C    1.283   136 C    1.230
   136   6 C    3.833 --   137 C    1.619   135 C    1.230   162 H    1.000
   137   6 C    3.829 --   136 C    1.619   138 C    1.221   163 H    1.000
   138   6 C    3.901 --   139 C    1.367   151 N    1.261   137 C    1.221
   139   6 C    3.834 --   146 C    1.367   138 C    1.367   140 C    1.046
   140   6 C    3.897 --   145 C    1.426   141 C    1.426   139 C    1.046
   141   6 C    3.867 --   142 C    1.447   140 C    1.426   164 H    0.990
   142   6 C    3.911 --   141 C    1.447   143 C    1.441   165 H    0.982
   143   6 C    3.905 --   144 C    1.442   142 C    1.441   166 H    0.984
   144   6 C    3.911 --   145 C    1.447   143 C    1.442   167 H    0.982
   145   6 C    3.868 --   144 C    1.447   140 C    1.426   168 H    0.989
   146   6 C    3.902 --   139 C    1.367   150 N    1.261   147 C    1.221
   147   6 C    3.829 --   148 C    1.619   146 C    1.221   169 H    1.000
   148   6 C    3.833 --   147 C    1.619   149 C    1.230   170 H    1.000
   149   6 C    3.921 --   150 N    1.315   122 C    1.283   148 C    1.230
   150   7 N    3.002 --   149 C    1.315   146 C    1.261   121 Zn   0.563
   151   7 N    3.002 --   135 C    1.315   138 C    1.261   121 Zn   0.563
   152   6 C    3.897 --   153 C    1.427   157 C    1.427   128 C    1.046
   153   6 C    3.868 --   154 C    1.447   152 C    1.427   171 H    0.989
   154   6 C    3.911 --   153 C    1.447   155 C    1.442   172 H    0.982
   155   6 C    3.905 --   154 C    1.442   156 C    1.441   173 H    0.984
   156   6 C    3.911 --   157 C    1.447   155 C    1.441   174 H    0.982
   157   6 C    3.867 --   156 C    1.447   152 C    1.427   175 H    0.990
   158   1 H    1.032 --   124 C    1.000
   159   1 H    1.041 --   125 C    1.000
   160   1 H    1.041 --   130 C    1.000
   161   1 H    1.032 --   131 C    1.000
   162   1 H    1.032 --   136 C    1.000
   163   1 H    1.041 --   137 C    1.000
   164   1 H    1.057 --   141 C    0.990
   165   1 H    1.036 --   142 C    0.982
   166   1 H    1.031 --   143 C    0.984
   167   1 H    1.036 --   144 C    0.982
   168   1 H    1.057 --   145 C    0.989
   169   1 H    1.041 --   147 C    1.000
   170   1 H    1.032 --   148 C    1.000
   171   1 H    1.057 --   153 C    0.989
   172   1 H    1.036 --   154 C    0.982
   173   1 H    1.031 --   155 C    0.984
   174   1 H    1.036 --   156 C    0.982
   175   1 H    1.057 --   157 C    0.990
 ---------------------------------------------------------------------------

Topologies differ in total number of bonds
Writing topology from bond orders to xtbtopo.mol

 dipole moment from electron density (au)
     X       Y       Z   
 -79.9486  -0.0453   0.0165  total (Debye):  203.209


           -------------------------------------------------
          | TOTAL ENERGY             -330.489401326557 Eh   |
          | GRADIENT NORM               0.070248362020 Eh/α |
          | HOMO-LUMO GAP               0.263932756040 eV   |
           -------------------------------------------------
########################################################################
[WARNING] Runtime exception occurred
-1- restart_readRestart: Dimension missmatch in restart file.
########################################################################

------------------------------------------------------------------------
 * finished run on 2022/07/30 at 11:23:47.226     
------------------------------------------------------------------------
 total:
 * wall-time:     0 d,  0 h,  0 min, 11.349 sec
 *  cpu-time:     0 d,  0 h,  0 min, 11.281 sec
 * ratio c/w:     0.994 speedup
 SCF:
 * wall-time:     0 d,  0 h,  0 min, 10.879 sec
 *  cpu-time:     0 d,  0 h,  0 min, 10.819 sec
 * ratio c/w:     0.995 speedup

