      -----------------------------------------------------------      
     |                   =====================                   |     
     |                           x T B                           |     
     |                   =====================                   |     
     |                         S. Grimme                         |     
     |          Mulliken Center for Theoretical Chemistry        |     
     |                    University of Bonn                     |     
      -----------------------------------------------------------      

   * xtb version 6.5.1 (b24c23e) compiled by 'conda@728c89f4b128' on 2022-07-12

   xtb is free software: you can redistribute it and/or modify it under
   the terms of the GNU Lesser General Public License as published by
   the Free Software Foundation, either version 3 of the License, or
   (at your option) any later version.
   
   xtb is distributed in the hope that it will be useful,
   but WITHOUT ANY WARRANTY; without even the implied warranty of
   MERCHANTABILITY or FITNESS FOR A PARTICULAR PURPOSE.  See the
   GNU Lesser General Public License for more details.
   
   Cite this work as:
   * C. Bannwarth, E. Caldeweyher, S. Ehlert, A. Hansen, P. Pracht,
     J. Seibert, S. Spicher, S. Grimme, WIREs Comput. Mol. Sci., 2020, 11,
     e01493. DOI: 10.1002/wcms.1493
   
   for GFN2-xTB:
   * C. Bannwarth, S. Ehlert and S. Grimme., J. Chem. Theory Comput., 2019,
     15, 1652-1671. DOI: 10.1021/acs.jctc.8b01176
   for GFN1-xTB:
   * S. Grimme, C. Bannwarth, P. Shushkov, J. Chem. Theory Comput., 2017,
     13, 1989-2009. DOI: 10.1021/acs.jctc.7b00118
   for GFN0-xTB:
   * P. Pracht, E. Caldeweyher, S. Ehlert, S. Grimme, ChemRxiv, 2019, preprint.
     DOI: 10.26434/chemrxiv.8326202.v1
   for GFN-FF:
   * S. Spicher and S. Grimme, Angew. Chem. Int. Ed., 2020, 59, 15665-15673.
     DOI: 10.1002/anie.202004239
   
   for ALPB and GBSA implicit solvation:
   * S. Ehlert, M. Stahn, S. Spicher, S. Grimme, J. Chem. Theory Comput.,
     2021, 17, 4250-4261. DOI: 10.1021/acs.jctc.1c00471
   
   for DFT-D4:
   * E. Caldeweyher, C. Bannwarth and S. Grimme, J. Chem. Phys., 2017,
     147, 034112. DOI: 10.1063/1.4993215
   * E. Caldeweyher, S. Ehlert, A. Hansen, H. Neugebauer, S. Spicher,
     C. Bannwarth and S. Grimme, J. Chem. Phys., 2019, 150, 154122.
     DOI: 10.1063/1.5090222
   * E. Caldeweyher, J.-M. Mewes, S. Ehlert and S. Grimme, Phys. Chem. Chem. Phys.
     2020, 22, 8499-8512. DOI: 10.1039/D0CP00502A
   
   for sTDA-xTB:
   * S. Grimme and C. Bannwarth, J. Chem. Phys., 2016, 145, 054103.
     DOI: 10.1063/1.4959605
   
   in the mass-spec context:
   * V. Asgeirsson, C. Bauer and S. Grimme, Chem. Sci., 2017, 8, 4879.
     DOI: 10.1039/c7sc00601b
   * J. Koopman and S. Grimme, ACS Omega 2019, 4, 12, 15120-15133.
     DOI: 10.1021/acsomega.9b02011
   
   for metadynamics refer to:
   * S. Grimme, J. Chem. Theory Comput., 2019, 155, 2847-2862
     DOI: 10.1021/acs.jctc.9b00143
   
   for SPH calculations refer to:
   * S. Spicher and S. Grimme, J. Chem. Theory Comput., 2021, 17, 1701-1714
     DOI: 10.1021/acs.jctc.0c01306
   
   with help from (in alphabetical order)
   P. Atkinson, C. Bannwarth, F. Bohle, G. Brandenburg, E. Caldeweyher
   M. Checinski, S. Dohm, S. Ehlert, S. Ehrlich, I. Gerasimov, C. Hölzer
   A. Katbashev, J. Koopman, C. Lavigne, S. Lehtola, F. März, M. Müller,
   F. Musil, H. Neugebauer, J. Pisarek, C. Plett, P. Pracht, F. Pultar,
   J. Seibert, P. Shushkov, S. Spicher, M. Stahn, M. Steiner, T. Strunk,
   J. Stückrath, T. Rose, and J. Unsleber
   
 * started run on 2022/07/30 at 10:20:59.610     

           -------------------------------------------------
          |                Calculation Setup                |
           -------------------------------------------------

          program call               : xtb xtbopt.xyz --gfn 1 --vipea
          hostname                   : cx3-5-14.cx3.hpc.ic.ac.uk
          coordinate file            : xtbopt.xyz
          omp threads                :                     1

   ID    Z sym.   atoms
    1    6 C      1-5, 7-12, 14-18, 20-25, 27-32, 34-39, 62-66, 68-73, 75-79,
                  81-86, 88-93, 95-100, 123-145, 147-152, 154-158, 160-165,
                  167-172, 174-179, 201-205, 207-212, 214-218, 220-225,
                  227-232, 234-239
    2    7 N      6, 19, 26, 40, 67, 80, 87, 101, 146, 159, 166, 180, 206,
                  219, 226, 240
    3    8 O      13, 33, 74, 94, 153, 173, 213, 233
    4    1 H      41-61, 102-122, 181-200, 241-260

           -------------------------------------------------
          |                 I P E A - x T B                 |
           -------------------------------------------------

        Reference                      10.1039/c7sc00601b
      * Hamiltonian:
        H0-scaling (s, p, d)           2.150000    2.300000    2.000000
        zeta-weighting                 0.000000
      * Dispersion:
        s8                             2.400000
        a1                             0.630000
        a2                             5.000000
        s9                             0.000000
      * Repulsion:
        kExp                           1.500000
        rExp                           1.000000
      * Coulomb:
        alpha                          1.000000
        third order                    atomic
        anisotropic                    false
      * Halogen bond correction:
        rad-scale                      1.300000
        damping                        0.440000


          ...................................................
          :                      SETUP                      :
          :.................................................:
          :  # basis functions                1054          :
          :  # atomic orbitals                1054          :
          :  # shells                          698          :
          :  # electrons                       826          :
          :  # halogen bonds                     0          :
          :  max. iterations                   250          :
          :  Hamiltonian                  GFN1-xTB          :
          :  restarted?                      false          :
          :  GBSA solvation                  false          :
          :  PC potential                    false          :
          :  electronic temp.          300.0000000     K    :
          :  accuracy                    1.0000000          :
          :  -> integral cutoff          0.2500000E+02      :
          :  -> integral neglect         0.1000000E-07      :
          :  -> SCF convergence          0.1000000E-05 Eh   :
          :  -> wf. convergence          0.2000000E-04 e    :
          :  Broyden damping             0.4000000          :
          ...................................................

 iter      E             dE          RMSdq      gap      omega  full diag
   1   -523.6401012 -0.523640E+03  0.101E+01    0.77       0.0  T
   2   -524.1041013 -0.464000E+00  0.628E+00    1.25       1.0  T
   3   -515.3139031  0.879020E+01  0.478E+00    0.35       1.0  T
   4   -525.4981392 -0.101842E+02  0.926E-01    1.23       1.0  T
   5   -526.0070232 -0.508884E+00  0.268E-01    1.10       1.0  T
   6   -526.0437277 -0.367045E-01  0.122E-01    1.12       1.0  T
   7   -526.0500654 -0.633770E-02  0.529E-02    1.11       1.0  T
   8   -526.0509206 -0.855181E-03  0.333E-02    1.11       1.0  T
   9   -526.0511278 -0.207146E-03  0.223E-02    1.11       1.0  T
  10   -526.0513240 -0.196283E-03  0.541E-03    1.11       1.1  T
  11   -526.0513370 -0.129133E-04  0.209E-03    1.11       3.0  T
  12   -526.0513386 -0.159643E-05  0.999E-04    1.11       6.2  T
  13   -526.0513390 -0.434836E-06  0.424E-04    1.11      14.6  T
  14   -526.0513391 -0.758160E-07  0.165E-04    1.11      37.5  T
  15   -526.0513391 -0.102867E-07  0.826E-05    1.11      75.1  T

   *** convergence criteria satisfied after 15 iterations ***

         #    Occupation            Energy/Eh            Energy/eV
      -------------------------------------------------------------
         1        2.0000           -1.0535630             -28.6689
       ...           ...                  ...                  ...
       407        2.0000           -0.4007986             -10.9063
       408        2.0000           -0.3996260             -10.8744
       409        2.0000           -0.3986971             -10.8491
       410        2.0000           -0.3878299             -10.5534
       411        2.0000           -0.3826175             -10.4116
       412        2.0000           -0.3795869             -10.3291
       413        2.0000           -0.3732430             -10.1565 (HOMO)
       414                         -0.3324409              -9.0462 (LUMO)
       415                         -0.3235017              -8.8029
       416                         -0.3195062              -8.6942
       417                         -0.3182672              -8.6605
       418                         -0.3173144              -8.6346
       ...                                ...                  ...
      1054                        551.1141542           14996.5795
      -------------------------------------------------------------
                  HL-Gap            0.0408021 Eh            1.1103 eV
             Fermi-level           -0.3528414 Eh           -9.6013 eV

 SCC (total)                   0 d,  0 h,  0 min,  7.192 sec
 SCC setup                      ...        0 min,  0.007 sec (  0.101%)
 Dispersion                     ...        0 min,  0.010 sec (  0.138%)
 classical contributions        ...        0 min,  0.003 sec (  0.042%)
 integral evaluation            ...        0 min,  0.646 sec (  8.984%)
 iterations                     ...        0 min,  5.136 sec ( 71.414%)
 molecular gradient             ...        0 min,  1.305 sec ( 18.143%)
 printout                       ...        0 min,  0.085 sec (  1.177%)

         :::::::::::::::::::::::::::::::::::::::::::::::::::::
         ::                     SUMMARY                     ::
         :::::::::::::::::::::::::::::::::::::::::::::::::::::
         :: total energy            -515.485377025602 Eh    ::
         :: gradient norm              0.083940269353 Eh/a0 ::
         :: HOMO-LUMO gap              1.110282771360 eV    ::
         ::.................................................::
         :: SCC energy              -526.051339077986 Eh    ::
         :: -> electrostatic           0.372973426128 Eh    ::
         :: repulsion energy          10.786974451412 Eh    ::
         :: dispersion energy         -0.221012399028 Eh    ::
         :: halogen bond corr.         0.000000000000 Eh    ::
         :: add. restraining           0.000000000000 Eh    ::
         :: total charge               0.000000000001 e     ::
         :::::::::::::::::::::::::::::::::::::::::::::::::::::

           ------------------------------------------------- 
          |        vertical delta SCC IP calculation        |
           ------------------------------------------------- 
   1   -525.6458287 -0.525646E+03  0.900E-02    1.11       0.0  T
   2   -525.6342138  0.116148E-01  0.132E-01    0.97       1.0  T
   3   -525.6527579 -0.185441E-01  0.503E-02    1.10       1.0  T
   4   -525.6473362  0.542168E-02  0.717E-02    1.07       1.0  T
   5   -525.6545441 -0.720783E-02  0.295E-02    1.10       1.0  T
   6   -525.6552595 -0.715397E-03  0.134E-02    1.09       1.0  T
   7   -525.6552129  0.466059E-04  0.113E-02    1.09       1.0  T
   8   -525.6553519 -0.139032E-03  0.391E-03    1.09       1.6  T
   9   -525.6553677 -0.157887E-04  0.142E-03    1.09       4.4  T
  10   -525.6553686 -0.915032E-06  0.903E-04    1.09       6.9  T
  11   -525.6553691 -0.541480E-06  0.358E-04    1.09      17.3  T
  12   -525.6553693 -0.120609E-06  0.124E-04    1.09      50.1  T
  13   -525.6553693 -0.749526E-08  0.661E-05    1.09      93.9  T
     SCC iter.                  ...        0 min,  4.437 sec
     gradient                   ...        0 min,  1.308 sec
------------------------------------------------------------------------
empirical IP shift (eV):    4.8455
delta SCC IP (eV):    5.9294
------------------------------------------------------------------------
           ------------------------------------------------- 
          |        vertical delta SCC EA calculation        |
           ------------------------------------------------- 
   1   -526.3332778 -0.526333E+03  0.154E-01    0.29       0.0  T
   2   -526.3330339  0.243898E-03  0.156E-01    0.03       1.0  T
   3   -526.3526849 -0.196511E-01  0.870E-02    0.20       1.0  T
   4   -526.3583296 -0.564469E-02  0.577E-02    0.09       1.0  T
   5   -526.3588084 -0.478759E-03  0.343E-02    0.09       1.0  T
   6   -526.3541273  0.468102E-02  0.505E-02    0.11       1.0  T
   7   -526.3585234 -0.439610E-02  0.259E-02    0.11       1.0  T
   8   -526.3595646 -0.104118E-02  0.829E-03    0.11       1.0  T
   9   -526.3596574 -0.927808E-04  0.397E-03    0.10       1.6  T
  10   -526.3596750 -0.175787E-04  0.143E-03    0.10       4.3  T
  11   -526.3596754 -0.463648E-06  0.797E-04    0.10       7.8  T
  12   -526.3596761 -0.692229E-06  0.327E-04    0.10      19.0  T
  13   -526.3596762 -0.662728E-07  0.148E-04    0.10      42.0  T
  14   -526.3596762 -0.469902E-08  0.836E-05    0.10      74.2  T
     SCC iter.                  ...        0 min,  4.783 sec
     gradient                   ...        0 min,  1.293 sec
------------------------------------------------------------------------
empirical EA shift (eV):    4.8455
delta SCC EA (eV):    3.5448
------------------------------------------------------------------------
           -------------------------------------------------
          |                Property Printout                |
           -------------------------------------------------

    * Orbital Energies and Occupations

         #    Occupation            Energy/Eh            Energy/eV
      -------------------------------------------------------------
         1        2.0000           -1.0132474             -27.5719
       ...           ...                  ...                  ...
       402        2.0000           -0.3763601             -10.2413
       403        2.0000           -0.3734283             -10.1615
       404        2.0000           -0.3668016              -9.9812
       405        2.0000           -0.3650899              -9.9346
       406        2.0000           -0.3611043              -9.8261
       407        2.0000           -0.3606596              -9.8140
       408        2.0000           -0.3539147              -9.6305
       409        2.0000           -0.3536415              -9.6231
       410        2.0000           -0.3440773              -9.3628
       411        2.0000           -0.3423045              -9.3146
       412        2.0000           -0.3365702              -9.1585
       413        2.0000           -0.3264813              -8.8840
       414        0.8610           -0.2858017              -7.7771 (HOMO)
       415        0.1156           -0.2821363              -7.6773 (LUMO)
       416        0.0191           -0.2803292              -7.6281
       417        0.0036           -0.2787336              -7.5847
       418        0.0006           -0.2769826              -7.5371
       419        0.0000           -0.2732666              -7.4360
       420        0.0000           -0.2722018              -7.4070
       421        0.0000           -0.2691406              -7.3237
       422                         -0.2594876              -7.0610
       423                         -0.2594203              -7.0592
       424                         -0.2549171              -6.9366
       425                         -0.2534642              -6.8971
       ...                                ...                  ...
      1054                        551.1595536           14997.8148
      -------------------------------------------------------------
                  HL-Gap            0.0036654 Eh            0.0997 eV
             Fermi-level           -0.2951112 Eh           -8.0304 eV

  Mulliken/CM5 charges         n(s)   n(p)   n(d)
     1C    -0.02406 -0.06489   1.087  2.937  0.000
     2C     0.06150  0.12188   1.105  2.834  0.000
     3C    -0.03623 -0.08157   1.080  2.956  0.000
     4C    -0.03435 -0.07933   1.074  2.960  0.000
     5C     0.06177  0.12578   1.099  2.839  0.000
     6N    -0.15905 -0.51207   1.312  3.847  0.000
     7C     0.00741  0.01316   1.089  2.903  0.000
     8C     0.01627  0.00764   1.095  2.889  0.000
     9C    -0.01673 -0.06999   1.080  2.937  0.000
    10C    -0.01035 -0.06215   1.092  2.918  0.000
    11C    -0.00873 -0.01719   1.099  2.909  0.000
    12C     0.14448  0.13433   1.202  2.654  0.000
    13O    -0.29969 -0.35512   1.651  4.648  0.000
    14C    -0.01681 -0.06994   1.085  2.931  0.000
    15C    -0.01947 -0.07274   1.075  2.944  0.000
    16C     0.05900  0.12717   1.117  2.824  0.000
    17C    -0.03795 -0.08398   1.084  2.954  0.000
    18C    -0.03750 -0.08296   1.091  2.947  0.000
    19N    -0.28576 -0.47241   1.292  3.993  0.000
    20C     0.06478  0.13553   1.130  2.805  0.000
    21C     0.01655  0.02375   1.084  2.900  0.000
    22C     0.06594  0.13082   1.109  2.825  0.000
    23C    -0.03393 -0.07837   1.079  2.955  0.000
    24C    -0.03405 -0.07904   1.073  2.961  0.000
    25C     0.06124  0.12464   1.098  2.841  0.000
    26N    -0.15672 -0.50896   1.314  3.843  0.000
    27C     0.00616  0.01196   1.088  2.905  0.000
    28C     0.01588  0.00728   1.095  2.889  0.000
    29C    -0.01810 -0.07128   1.078  2.940  0.000
    30C    -0.01108 -0.06287   1.092  2.919  0.000
    31C    -0.00914 -0.01760   1.099  2.910  0.000
    32C     0.14395  0.13378   1.201  2.655  0.000
    33O    -0.30079 -0.35622   1.651  4.649  0.000
    34C    -0.01669 -0.06982   1.086  2.931  0.000
    35C    -0.01867 -0.07205   1.077  2.942  0.000
    36C     0.06028  0.12975   1.120  2.820  0.000
    37C    -0.03858 -0.08463   1.086  2.953  0.000
    38C    -0.03997 -0.08638   1.092  2.948  0.000
    39C     0.05872  0.12437   1.125  2.816  0.000
    40N    -0.28885 -0.47595   1.292  3.997  0.000
    41H     0.02773  0.08677   0.972  0.000  0.000
    42H     0.03850  0.09519   0.962  0.000  0.000
    43H     0.02954  0.08827   0.970  0.000  0.000
    44H     0.16406  0.37238   0.836  0.000  0.000
    45H     0.03094  0.08887   0.969  0.000  0.000
    46H     0.04046  0.10066   0.960  0.000  0.000
    47H     0.03841  0.10012   0.962  0.000  0.000
    48H     0.04163  0.09829   0.958  0.000  0.000
    49H     0.02940  0.08733   0.971  0.000  0.000
    50H     0.02182  0.08058   0.978  0.000  0.000
    51H     0.02593  0.08401   0.974  0.000  0.000
    52H     0.03495  0.09307   0.965  0.000  0.000
    53H     0.03060  0.08938   0.969  0.000  0.000
    54H     0.16253  0.37082   0.837  0.000  0.000
    55H     0.03088  0.08883   0.969  0.000  0.000
    56H     0.03975  0.09996   0.960  0.000  0.000
    57H     0.03806  0.09978   0.962  0.000  0.000
    58H     0.04144  0.09811   0.959  0.000  0.000
    59H     0.02861  0.08658   0.971  0.000  0.000
    60H     0.02041  0.07913   0.980  0.000  0.000
    61H     0.02904  0.08549   0.971  0.000  0.000
    62C    -0.02347 -0.06431   1.087  2.936  0.000
    63C     0.06155  0.12193   1.105  2.834  0.000
    64C    -0.03597 -0.08130   1.080  2.956  0.000
    65C    -0.03423 -0.07920   1.075  2.960  0.000
    66C     0.06209  0.12610   1.100  2.838  0.000
    67N    -0.15883 -0.51185   1.312  3.847  0.000
    68C     0.00746  0.01320   1.089  2.903  0.000
    69C     0.01618  0.00755   1.095  2.889  0.000
    70C    -0.01673 -0.07000   1.080  2.937  0.000
    71C    -0.01027 -0.06207   1.092  2.918  0.000
    72C    -0.00869 -0.01715   1.099  2.909  0.000
    73C     0.14447  0.13431   1.202  2.654  0.000
    74O    -0.29958 -0.35500   1.651  4.648  0.000
    75C    -0.01683 -0.06995   1.086  2.931  0.000
    76C    -0.01953 -0.07279   1.075  2.944  0.000
    77C     0.05942  0.12759   1.117  2.823  0.000
    78C    -0.03769 -0.08372   1.084  2.953  0.000
    79C    -0.03712 -0.08259   1.091  2.946  0.000
    80N    -0.28563 -0.47226   1.292  3.993  0.000
    81C     0.06495  0.13569   1.130  2.805  0.000
    82C     0.01706  0.02425   1.084  2.899  0.000
    83C     0.06614  0.13100   1.109  2.825  0.000
    84C    -0.03346 -0.07791   1.079  2.954  0.000
    85C    -0.03371 -0.07871   1.073  2.960  0.000
    86C     0.06164  0.12504   1.098  2.840  0.000
    87N    -0.15665 -0.50887   1.314  3.843  0.000
    88C     0.00630  0.01210   1.088  2.905  0.000
    89C     0.01586  0.00726   1.095  2.889  0.000
    90C    -0.01811 -0.07130   1.078  2.940  0.000
    91C    -0.01101 -0.06280   1.092  2.919  0.000
    92C    -0.00903 -0.01749   1.099  2.910  0.000
    93C     0.14403  0.13386   1.201  2.655  0.000
    94O    -0.30062 -0.35604   1.651  4.649  0.000
    95C    -0.01661 -0.06975   1.086  2.931  0.000
    96C    -0.01862 -0.07200   1.077  2.941  0.000
    97C     0.06055  0.13002   1.120  2.819  0.000
    98C    -0.03846 -0.08450   1.086  2.953  0.000
    99C    -0.03977 -0.08618   1.092  2.948  0.000
   100C     0.05879  0.12443   1.125  2.816  0.000
   101N    -0.28854 -0.47564   1.292  3.997  0.000
   102H     0.02809  0.08712   0.972  0.000  0.000
   103H     0.03876  0.09545   0.961  0.000  0.000
   104H     0.02978  0.08851   0.970  0.000  0.000
   105H     0.16422  0.37254   0.836  0.000  0.000
   106H     0.03116  0.08907   0.969  0.000  0.000
   107H     0.04068  0.10088   0.959  0.000  0.000
   108H     0.03841  0.10012   0.962  0.000  0.000
   109H     0.04164  0.09830   0.958  0.000  0.000
   110H     0.02938  0.08730   0.971  0.000  0.000
   111H     0.02219  0.08096   0.978  0.000  0.000
   112H     0.02632  0.08442   0.974  0.000  0.000
   113H     0.03544  0.09355   0.965  0.000  0.000
   114H     0.03106  0.08984   0.969  0.000  0.000
   115H     0.16271  0.37098   0.837  0.000  0.000
   116H     0.03091  0.08884   0.969  0.000  0.000
   117H     0.03989  0.10009   0.960  0.000  0.000
   118H     0.03819  0.09990   0.962  0.000  0.000
   119H     0.04159  0.09826   0.958  0.000  0.000
   120H     0.02877  0.08675   0.971  0.000  0.000
   121H     0.02063  0.07935   0.979  0.000  0.000
   122H     0.02929  0.08573   0.971  0.000  0.000
   123C    -0.01600 -0.01611   1.078  2.938  0.000
   124C    -0.01936 -0.01946   1.074  2.945  0.000
   125C    -0.02032 -0.02109   1.062  2.958  0.000
   126C    -0.01989 -0.02152   1.090  2.930  0.000
   127C    -0.02362 -0.02437   1.060  2.964  0.000
   128C    -0.01671 -0.01830   1.094  2.922  0.000
   129C    -0.01875 -0.01885   1.076  2.943  0.000
   130C    -0.01848 -0.01858   1.076  2.943  0.000
   131C    -0.02267 -0.02341   1.061  2.962  0.000
   132C    -0.01904 -0.02063   1.092  2.928  0.000
   133C    -0.02252 -0.02325   1.061  2.962  0.000
   134C    -0.01933 -0.02091   1.091  2.928  0.000
   135C    -0.01864 -0.01874   1.074  2.944  0.000
   136C    -0.01504 -0.01514   1.078  2.937  0.000
   137C    -0.02294 -0.02367   1.060  2.963  0.000
   138C    -0.01589 -0.01748   1.095  2.921  0.000
   139C    -0.01953 -0.02030   1.062  2.957  0.000
   140C    -0.01935 -0.02099   1.090  2.929  0.000
   141C     0.01211  0.01935   1.080  2.908  0.000
   142C     0.06553  0.13041   1.109  2.825  0.000
   143C    -0.03654 -0.08099   1.078  2.959  0.000
   144C    -0.03489 -0.07986   1.074  2.961  0.000
   145C     0.05909  0.12255   1.095  2.846  0.000
   146N    -0.15675 -0.50918   1.313  3.844  0.000
   147C     0.00982  0.01547   1.091  2.899  0.000
   148C     0.01709  0.00840   1.096  2.887  0.000
   149C    -0.01644 -0.06973   1.080  2.937  0.000
   150C    -0.01041 -0.06221   1.092  2.918  0.000
   151C    -0.00878 -0.01724   1.099  2.910  0.000
   152C     0.14449  0.13434   1.202  2.654  0.000
   153O    -0.30029 -0.35573   1.651  4.649  0.000
   154C    -0.01654 -0.06967   1.085  2.931  0.000
   155C    -0.01871 -0.07201   1.075  2.944  0.000
   156C     0.05719  0.12525   1.115  2.828  0.000
   157C    -0.03881 -0.08485   1.084  2.955  0.000
   158C    -0.03941 -0.08489   1.090  2.950  0.000
   159N    -0.28563 -0.47188   1.292  3.993  0.000
   160C     0.06420  0.13502   1.130  2.806  0.000
   161C     0.01390  0.02113   1.081  2.905  0.000
   162C     0.06572  0.13064   1.109  2.825  0.000
   163C    -0.03575 -0.08020   1.078  2.958  0.000
   164C    -0.03450 -0.07947   1.074  2.961  0.000
   165C     0.05935  0.12278   1.095  2.846  0.000
   166N    -0.15622 -0.50867   1.314  3.843  0.000
   167C     0.00956  0.01521   1.091  2.900  0.000
   168C     0.01702  0.00832   1.096  2.887  0.000
   169C    -0.01766 -0.07104   1.077  2.941  0.000
   170C    -0.01610 -0.06924   1.086  2.930  0.000
   171C    -0.00880 -0.01726   1.099  2.910  0.000
   172C     0.14446  0.13429   1.202  2.654  0.000
   173O    -0.30059 -0.35605   1.651  4.649  0.000
   174C    -0.01084 -0.06263   1.092  2.919  0.000
   175C    -0.01756 -0.07077   1.078  2.940  0.000
   176C     0.05737  0.12552   1.115  2.828  0.000
   177C    -0.03898 -0.08501   1.084  2.955  0.000
   178C    -0.03976 -0.08523   1.090  2.950  0.000
   179C     0.06393  0.13464   1.130  2.806  0.000
   180N    -0.28637 -0.47258   1.292  3.995  0.000
   181H     0.03216  0.09023   0.968  0.000  0.000
   182H     0.02833  0.08717   0.972  0.000  0.000
   183H     0.16266  0.37062   0.837  0.000  0.000
   184H     0.03056  0.08850   0.969  0.000  0.000
   185H     0.03970  0.09991   0.960  0.000  0.000
   186H     0.03811  0.09982   0.962  0.000  0.000
   187H     0.04152  0.09818   0.958  0.000  0.000
   188H     0.02979  0.08770   0.970  0.000  0.000
   189H     0.02006  0.07890   0.980  0.000  0.000
   190H     0.02370  0.08175   0.976  0.000  0.000
   191H     0.03347  0.09155   0.967  0.000  0.000
   192H     0.02926  0.08811   0.971  0.000  0.000
   193H     0.16250  0.37046   0.838  0.000  0.000
   194H     0.02945  0.08736   0.971  0.000  0.000
   195H     0.04178  0.09845   0.958  0.000  0.000
   196H     0.03829  0.10002   0.962  0.000  0.000
   197H     0.03938  0.09960   0.961  0.000  0.000
   198H     0.03083  0.08876   0.969  0.000  0.000
   199H     0.01946  0.07828   0.981  0.000  0.000
   200H     0.02300  0.08107   0.977  0.000  0.000
   201C     0.01420  0.02144   1.082  2.904  0.000
   202C     0.06567  0.13059   1.109  2.825  0.000
   203C    -0.03571 -0.08017   1.078  2.958  0.000
   204C    -0.03473 -0.07970   1.073  2.961  0.000
   205C     0.05949  0.12291   1.095  2.846  0.000
   206N    -0.15613 -0.50858   1.314  3.843  0.000
   207C     0.00951  0.01517   1.091  2.900  0.000
   208C     0.01694  0.00825   1.096  2.887  0.000
   209C    -0.01660 -0.06987   1.080  2.937  0.000
   210C    -0.01049 -0.06229   1.092  2.918  0.000
   211C    -0.00867 -0.01713   1.099  2.909  0.000
   212C     0.14458  0.13444   1.202  2.654  0.000
   213O    -0.30037 -0.35583   1.651  4.649  0.000
   214C    -0.01632 -0.06945   1.085  2.931  0.000
   215C    -0.01859 -0.07189   1.075  2.943  0.000
   216C     0.05778  0.12596   1.115  2.827  0.000
   217C    -0.03834 -0.08438   1.085  2.954  0.000
   218C    -0.03931 -0.08479   1.090  2.949  0.000
   219N    -0.28630 -0.47254   1.291  3.995  0.000
   220C     0.06413  0.13481   1.130  2.806  0.000
   221C     0.01258  0.01983   1.080  2.907  0.000
   222C     0.06584  0.13071   1.109  2.825  0.000
   223C    -0.03600 -0.08046   1.078  2.958  0.000
   224C    -0.03417 -0.07915   1.074  2.960  0.000
   225C     0.05947  0.12295   1.095  2.846  0.000
   226N    -0.15662 -0.50909   1.313  3.844  0.000
   227C     0.00999  0.01564   1.091  2.899  0.000
   228C     0.01701  0.00833   1.096  2.887  0.000
   229C    -0.01747 -0.07086   1.077  2.940  0.000
   230C    -0.01591 -0.06905   1.086  2.930  0.000
   231C    -0.00864 -0.01710   1.099  2.909  0.000
   232C     0.14461  0.13446   1.202  2.654  0.000
   233O    -0.30051 -0.35595   1.651  4.649  0.000
   234C    -0.01088 -0.06268   1.092  2.919  0.000
   235C    -0.01761 -0.07082   1.078  2.940  0.000
   236C     0.05722  0.12527   1.115  2.828  0.000
   237C    -0.03902 -0.08507   1.084  2.955  0.000
   238C    -0.03946 -0.08493   1.090  2.950  0.000
   239C     0.06413  0.13498   1.130  2.806  0.000
   240N    -0.28539 -0.47165   1.292  3.993  0.000
   241H     0.03355  0.09163   0.966  0.000  0.000
   242H     0.02899  0.08783   0.971  0.000  0.000
   243H     0.16260  0.37057   0.837  0.000  0.000
   244H     0.03023  0.08818   0.970  0.000  0.000
   245H     0.03948  0.09969   0.961  0.000  0.000
   246H     0.03842  0.10014   0.962  0.000  0.000
   247H     0.04192  0.09859   0.958  0.000  0.000
   248H     0.03007  0.08797   0.970  0.000  0.000
   249H     0.02031  0.07912   0.980  0.000  0.000
   250H     0.02353  0.08156   0.976  0.000  0.000
   251H     0.03274  0.09083   0.967  0.000  0.000
   252H     0.02921  0.08806   0.971  0.000  0.000
   253H     0.16272  0.37070   0.837  0.000  0.000
   254H     0.02968  0.08762   0.970  0.000  0.000
   255H     0.04216  0.09884   0.958  0.000  0.000
   256H     0.03868  0.10038   0.961  0.000  0.000
   257H     0.03928  0.09951   0.961  0.000  0.000
   258H     0.03074  0.08868   0.969  0.000  0.000
   259H     0.01979  0.07861   0.980  0.000  0.000
   260H     0.02377  0.08181   0.976  0.000  0.000

Wiberg/Mayer (AO) data.
largest (>0.10) Wiberg bond orders for each atom

 ---------------------------------------------------------------------------
     #   Z sym  total        # sym  WBO       # sym  WBO       # sym  WBO
 ---------------------------------------------------------------------------
     1   6 C    3.806 --    39 C    1.387     2 C    1.368    41 H    0.996
     2   6 C    3.922 --     1 C    1.368     3 C    1.243     6 N    1.230
     3   6 C    3.832 --     4 C    1.593     2 C    1.243    42 H    0.993
     4   6 C    3.819 --     3 C    1.593     5 C    1.253    43 H    0.999
     5   6 C    3.894 --     7 C    1.336     4 C    1.253     6 N    1.230
     6   7 N    3.246 --     2 C    1.230     5 C    1.230    44 H    0.961
     7   6 C    3.837 --    16 C    1.368     5 C    1.336     8 C    1.057
     8   6 C    3.899 --    15 C    1.414     9 C    1.410     7 C    1.057
     9   6 C    3.869 --    10 C    1.473     8 C    1.410    45 H    0.988
    10   6 C    3.892 --     9 C    1.473    11 C    1.389    46 H    0.988
    11   6 C    3.937 --    10 C    1.389    14 C    1.383    12 C    1.082
    12   6 C    4.001 --    13 O    1.941    11 C    1.082    47 H    0.954
    13   8 O    2.064 --    12 C    1.941
    14   6 C    3.889 --    15 C    1.468    11 C    1.383    48 H    0.982
    15   6 C    3.859 --    14 C    1.468     8 C    1.414    49 H    0.988
    16   6 C    3.923 --     7 C    1.368    19 N    1.355    17 C    1.160
    17   6 C    3.838 --    18 C    1.694    16 C    1.160    50 H    0.998
    18   6 C    3.851 --    17 C    1.694    20 C    1.165    51 H    0.999
    19   7 N    2.556 --    20 C    1.411    16 C    1.355
    20   6 C    3.942 --    19 N    1.411    21 C    1.290    18 C    1.165
    21   6 C    3.837 --    20 C    1.290    22 C    1.283   126 C    1.218
    22   6 C    3.898 --    21 C    1.283    23 C    1.270    26 N    1.248
    23   6 C    3.827 --    24 C    1.577    22 C    1.270    52 H    0.998
    24   6 C    3.810 --    23 C    1.577    25 C    1.261    53 H    0.998
    25   6 C    3.888 --    27 C    1.335    24 C    1.261    26 N    1.223
    26   7 N    3.258 --    22 C    1.248    25 C    1.223    54 H    0.960
    27   6 C    3.821 --    36 C    1.357    25 C    1.335    28 C    1.060
    28   6 C    3.898 --    35 C    1.413    29 C    1.408    27 C    1.060
    29   6 C    3.864 --    30 C    1.474    28 C    1.408    55 H    0.988
    30   6 C    3.891 --    29 C    1.474    31 C    1.388    56 H    0.988
    31   6 C    3.935 --    30 C    1.388    34 C    1.383    32 C    1.083
    32   6 C    4.000 --    33 O    1.939    31 C    1.083    57 H    0.954
    33   8 O    2.062 --    32 C    1.939
    34   6 C    3.888 --    35 C    1.470    31 C    1.383    58 H    0.982
    35   6 C    3.862 --    34 C    1.470    28 C    1.413    59 H    0.988
    36   6 C    3.944 --    40 N    1.380    27 C    1.357    37 C    1.152
    37   6 C    3.842 --    38 C    1.708    36 C    1.152    60 H    0.999
    38   6 C    3.862 --    37 C    1.708    39 C    1.146    61 H    0.993
    39   6 C    3.966 --     1 C    1.387    40 N    1.372    38 C    1.146
    40   7 N    2.540 --    36 C    1.380    39 C    1.372
    41   1 H    1.033 --     1 C    0.996
    42   1 H    1.016 --     3 C    0.993
    43   1 H    1.031 --     4 C    0.999
    44   1 H    1.082 --     6 N    0.961
    45   1 H    1.049 --     9 C    0.988
    46   1 H    1.042 --    10 C    0.988
    47   1 H    1.011 --    12 C    0.954
    48   1 H    1.022 --    14 C    0.982
    49   1 H    1.048 --    15 C    0.988
    50   1 H    1.035 --    17 C    0.998
    51   1 H    1.032 --    18 C    0.999
    52   1 H    1.029 --    23 C    0.998
    53   1 H    1.031 --    24 C    0.998
    54   1 H    1.086 --    26 N    0.960
    55   1 H    1.046 --    29 C    0.988
    56   1 H    1.042 --    30 C    0.988
    57   1 H    1.011 --    32 C    0.954
    58   1 H    1.022 --    34 C    0.982
    59   1 H    1.051 --    35 C    0.988
    60   1 H    1.035 --    37 C    0.999
    61   1 H    1.019 --    38 C    0.993
    62   6 C    3.807 --   100 C    1.388    63 C    1.368   102 H    0.996
    63   6 C    3.921 --    62 C    1.368    64 C    1.243    67 N    1.230
    64   6 C    3.833 --    65 C    1.593    63 C    1.243   103 H    0.993
    65   6 C    3.818 --    64 C    1.593    66 C    1.253   104 H    0.999
    66   6 C    3.894 --    68 C    1.335    65 C    1.253    67 N    1.230
    67   7 N    3.247 --    66 C    1.230    63 C    1.230   105 H    0.961
    68   6 C    3.836 --    77 C    1.368    66 C    1.335    69 C    1.056
    69   6 C    3.899 --    76 C    1.414    70 C    1.410    68 C    1.056
    70   6 C    3.869 --    71 C    1.473    69 C    1.410   106 H    0.988
    71   6 C    3.892 --    70 C    1.473    72 C    1.389   107 H    0.988
    72   6 C    3.937 --    71 C    1.389    75 C    1.383    73 C    1.082
    73   6 C    4.001 --    74 O    1.941    72 C    1.082   108 H    0.954
    74   8 O    2.064 --    73 C    1.941
    75   6 C    3.889 --    76 C    1.468    72 C    1.383   109 H    0.982
    76   6 C    3.859 --    75 C    1.468    69 C    1.414   110 H    0.988
    77   6 C    3.925 --    68 C    1.368    80 N    1.355    78 C    1.159
    78   6 C    3.838 --    79 C    1.695    77 C    1.159   111 H    0.998
    79   6 C    3.852 --    78 C    1.695    81 C    1.164   112 H    0.999
    80   7 N    2.557 --    81 C    1.410    77 C    1.355
    81   6 C    3.943 --    80 N    1.410    82 C    1.292    79 C    1.164
    82   6 C    3.839 --    81 C    1.292    83 C    1.284   140 C    1.215
    83   6 C    3.899 --    82 C    1.284    84 C    1.269    87 N    1.248
    84   6 C    3.828 --    85 C    1.578    83 C    1.269   113 H    0.998
    85   6 C    3.810 --    84 C    1.578    86 C    1.260   114 H    0.998
    86   6 C    3.888 --    88 C    1.336    85 C    1.260    87 N    1.223
    87   7 N    3.258 --    83 C    1.248    86 C    1.223   115 H    0.960
    88   6 C    3.820 --    97 C    1.356    86 C    1.336    89 C    1.059
    89   6 C    3.898 --    96 C    1.413    90 C    1.408    88 C    1.059
    90   6 C    3.864 --    91 C    1.474    89 C    1.408   116 H    0.988
    91   6 C    3.891 --    90 C    1.474    92 C    1.388   117 H    0.988
    92   6 C    3.935 --    91 C    1.388    95 C    1.382    93 C    1.083
    93   6 C    4.000 --    94 O    1.939    92 C    1.083   118 H    0.954
    94   8 O    2.062 --    93 C    1.939
    95   6 C    3.888 --    96 C    1.470    92 C    1.382   119 H    0.982
    96   6 C    3.862 --    95 C    1.470    89 C    1.413   120 H    0.988
    97   6 C    3.944 --   101 N    1.381    88 C    1.356    98 C    1.151
    98   6 C    3.842 --    99 C    1.708    97 C    1.151   121 H    0.999
    99   6 C    3.862 --    98 C    1.708   100 C    1.146   122 H    0.993
   100   6 C    3.966 --    62 C    1.388   101 N    1.372    99 C    1.146
   101   7 N    2.541 --    97 C    1.381   100 C    1.372
   102   1 H    1.033 --    62 C    0.996
   103   1 H    1.016 --    64 C    0.993
   104   1 H    1.031 --    65 C    0.999
   105   1 H    1.082 --    67 N    0.961
   106   1 H    1.049 --    70 C    0.988
   107   1 H    1.042 --    71 C    0.988
   108   1 H    1.011 --    73 C    0.954
   109   1 H    1.022 --    75 C    0.982
   110   1 H    1.048 --    76 C    0.988
   111   1 H    1.035 --    78 C    0.998
   112   1 H    1.032 --    79 C    0.999
   113   1 H    1.028 --    84 C    0.998
   114   1 H    1.031 --    85 C    0.998
   115   1 H    1.086 --    87 N    0.960
   116   1 H    1.046 --    90 C    0.988
   117   1 H    1.042 --    91 C    0.988
   118   1 H    1.011 --    93 C    0.954
   119   1 H    1.022 --    95 C    0.982
   120   1 H    1.051 --    96 C    0.988
   121   1 H    1.035 --    98 C    0.999
   122   1 H    1.019 --    99 C    0.993
   123   6 C    3.833 --   124 C    2.376   127 C    1.354   126 C    0.169
   124   6 C    3.830 --   123 C    2.376   125 C    1.353   128 C    0.169
   125   6 C    3.804 --   126 C    2.474   124 C    1.353
   126   6 C    3.764 --   125 C    2.474    21 C    1.218   123 C    0.169
   127   6 C    3.800 --   128 C    2.469   123 C    1.354
   128   6 C    3.767 --   127 C    2.469   141 C    1.223   124 C    0.169
   129   6 C    3.832 --   130 C    2.361   133 C    1.366   132 C    0.167
   130   6 C    3.832 --   129 C    2.361   131 C    1.366   134 C    0.167
   131   6 C    3.799 --   132 C    2.457   130 C    1.366
   132   6 C    3.765 --   131 C    2.457   161 C    1.234   129 C    0.167
   133   6 C    3.799 --   134 C    2.457   129 C    1.366
   134   6 C    3.765 --   133 C    2.457   201 C    1.234   130 C    0.167
   135   6 C    3.830 --   136 C    2.380   139 C    1.350   138 C    0.169
   136   6 C    3.833 --   135 C    2.380   137 C    1.352   140 C    0.170
   137   6 C    3.801 --   138 C    2.473   136 C    1.352
   138   6 C    3.767 --   137 C    2.473   221 C    1.220   135 C    0.169
   139   6 C    3.806 --   140 C    2.478   135 C    1.350
   140   6 C    3.764 --   139 C    2.478    82 C    1.215   136 C    0.170
   141   6 C    3.818 --   179 C    1.284   142 C    1.278   128 C    1.223
   142   6 C    3.903 --   141 C    1.278   143 C    1.273   146 N    1.251
   143   6 C    3.823 --   144 C    1.573   142 C    1.273   181 H    0.998
   144   6 C    3.814 --   143 C    1.573   145 C    1.266   182 H    0.999
   145   6 C    3.882 --   147 C    1.332   144 C    1.266   146 N    1.220
   146   7 N    3.247 --   142 C    1.251   145 C    1.220   183 H    0.961
   147   6 C    3.832 --   156 C    1.373   145 C    1.332   148 C    1.056
   148   6 C    3.900 --   155 C    1.415   149 C    1.411   147 C    1.056
   149   6 C    3.869 --   150 C    1.473   148 C    1.411   184 H    0.988
   150   6 C    3.892 --   149 C    1.473   151 C    1.389   185 H    0.988
   151   6 C    3.937 --   150 C    1.389   154 C    1.384   152 C    1.082
   152   6 C    4.002 --   153 O    1.941   151 C    1.082   186 H    0.954
   153   8 O    2.064 --   152 C    1.941
   154   6 C    3.889 --   155 C    1.468   151 C    1.384   187 H    0.982
   155   6 C    3.859 --   154 C    1.468   148 C    1.415   188 H    0.988
   156   6 C    3.922 --   147 C    1.373   159 N    1.348   157 C    1.162
   157   6 C    3.837 --   158 C    1.690   156 C    1.162   189 H    0.999
   158   6 C    3.847 --   157 C    1.690   160 C    1.168   190 H    0.999
   159   7 N    2.544 --   160 C    1.418   156 C    1.348
   160   6 C    3.941 --   159 N    1.418   161 C    1.279   158 C    1.168
   161   6 C    3.817 --   160 C    1.279   162 C    1.273   132 C    1.234
   162   6 C    3.901 --   163 C    1.275   161 C    1.273   166 N    1.252
   163   6 C    3.823 --   164 C    1.571   162 C    1.275   191 H    0.998
   164   6 C    3.814 --   163 C    1.571   165 C    1.267   192 H    0.998
   165   6 C    3.882 --   167 C    1.329   164 C    1.267   166 N    1.221
   166   7 N    3.249 --   162 C    1.252   165 C    1.221   193 H    0.961
   167   6 C    3.829 --   176 C    1.375   165 C    1.329   168 C    1.056
   168   6 C    3.900 --   169 C    1.415   175 C    1.411   167 C    1.056
   169   6 C    3.863 --   170 C    1.468   168 C    1.415   194 H    0.988
   170   6 C    3.889 --   169 C    1.468   171 C    1.384   195 H    0.982
   171   6 C    3.937 --   174 C    1.389   170 C    1.384   172 C    1.082
   172   6 C    4.001 --   173 O    1.941   171 C    1.082   196 H    0.954
   173   8 O    2.064 --   172 C    1.941
   174   6 C    3.892 --   175 C    1.473   171 C    1.389   197 H    0.988
   175   6 C    3.865 --   174 C    1.473   168 C    1.411   198 H    0.988
   176   6 C    3.923 --   167 C    1.375   180 N    1.349   177 C    1.160
   177   6 C    3.839 --   178 C    1.692   176 C    1.160   199 H    0.999
   178   6 C    3.847 --   177 C    1.692   179 C    1.166   200 H    0.999
   179   6 C    3.943 --   180 N    1.415   141 C    1.284   178 C    1.166
   180   7 N    2.541 --   179 C    1.415   176 C    1.349
   181   1 H    1.029 --   143 C    0.998
   182   1 H    1.032 --   144 C    0.999
   183   1 H    1.083 --   146 N    0.961
   184   1 H    1.049 --   149 C    0.988
   185   1 H    1.042 --   150 C    0.988
   186   1 H    1.011 --   152 C    0.954
   187   1 H    1.022 --   154 C    0.982
   188   1 H    1.048 --   155 C    0.988
   189   1 H    1.035 --   157 C    0.999
   190   1 H    1.033 --   158 C    0.999
   191   1 H    1.029 --   163 C    0.998
   192   1 H    1.032 --   164 C    0.998
   193   1 H    1.084 --   166 N    0.961
   194   1 H    1.052 --   169 C    0.988
   195   1 H    1.022 --   170 C    0.982
   196   1 H    1.011 --   172 C    0.954
   197   1 H    1.042 --   174 C    0.988
   198   1 H    1.046 --   175 C    0.988
   199   1 H    1.037 --   177 C    0.999
   200   1 H    1.033 --   178 C    0.999
   201   6 C    3.819 --   239 C    1.279   202 C    1.274   134 C    1.234
   202   6 C    3.901 --   203 C    1.275   201 C    1.274   206 N    1.252
   203   6 C    3.823 --   204 C    1.571   202 C    1.275   241 H    0.998
   204   6 C    3.812 --   203 C    1.571   205 C    1.267   242 H    0.998
   205   6 C    3.882 --   207 C    1.329   204 C    1.267   206 N    1.221
   206   7 N    3.250 --   202 C    1.252   205 C    1.221   243 H    0.961
   207   6 C    3.829 --   216 C    1.374   205 C    1.329   208 C    1.056
   208   6 C    3.899 --   215 C    1.415   209 C    1.410   207 C    1.056
   209   6 C    3.869 --   210 C    1.473   208 C    1.410   244 H    0.988
   210   6 C    3.892 --   209 C    1.473   211 C    1.389   245 H    0.988
   211   6 C    3.937 --   210 C    1.389   214 C    1.384   212 C    1.082
   212   6 C    4.001 --   213 O    1.941   211 C    1.082   246 H    0.954
   213   8 O    2.064 --   212 C    1.941
   214   6 C    3.888 --   215 C    1.468   211 C    1.384   247 H    0.982
   215   6 C    3.859 --   214 C    1.468   208 C    1.415   248 H    0.988
   216   6 C    3.924 --   207 C    1.374   219 N    1.350   217 C    1.160
   217   6 C    3.839 --   218 C    1.693   216 C    1.160   249 H    0.999
   218   6 C    3.848 --   217 C    1.693   220 C    1.166   250 H    0.999
   219   7 N    2.541 --   220 C    1.414   216 C    1.350
   220   6 C    3.943 --   219 N    1.414   221 C    1.286   218 C    1.166
   221   6 C    3.820 --   220 C    1.286   222 C    1.279   138 C    1.220
   222   6 C    3.903 --   221 C    1.279   223 C    1.272   226 N    1.251
   223   6 C    3.823 --   224 C    1.574   222 C    1.272   251 H    0.998
   224   6 C    3.815 --   223 C    1.574   225 C    1.265   252 H    0.998
   225   6 C    3.883 --   227 C    1.333   224 C    1.265   226 N    1.220
   226   7 N    3.247 --   222 C    1.251   225 C    1.220   253 H    0.961
   227   6 C    3.832 --   236 C    1.372   225 C    1.333   228 C    1.056
   228   6 C    3.900 --   229 C    1.415   235 C    1.410   227 C    1.056
   229   6 C    3.863 --   230 C    1.468   228 C    1.415   254 H    0.988
   230   6 C    3.889 --   229 C    1.468   231 C    1.384   255 H    0.982
   231   6 C    3.937 --   234 C    1.389   230 C    1.384   232 C    1.082
   232   6 C    4.001 --   233 O    1.941   231 C    1.082   256 H    0.954
   233   8 O    2.064 --   232 C    1.941
   234   6 C    3.892 --   235 C    1.473   231 C    1.389   257 H    0.988
   235   6 C    3.865 --   234 C    1.473   228 C    1.410   258 H    0.988
   236   6 C    3.921 --   227 C    1.372   240 N    1.349   237 C    1.162
   237   6 C    3.837 --   238 C    1.689   236 C    1.162   259 H    0.999
   238   6 C    3.847 --   237 C    1.689   239 C    1.168   260 H    0.999
   239   6 C    3.941 --   240 N    1.418   201 C    1.279   238 C    1.168
   240   7 N    2.545 --   239 C    1.418   236 C    1.349
   241   1 H    1.028 --   203 C    0.998
   242   1 H    1.031 --   204 C    0.998
   243   1 H    1.083 --   206 N    0.961
   244   1 H    1.049 --   209 C    0.988
   245   1 H    1.042 --   210 C    0.988
   246   1 H    1.011 --   212 C    0.954
   247   1 H    1.021 --   214 C    0.982
   248   1 H    1.048 --   215 C    0.988
   249   1 H    1.035 --   217 C    0.999
   250   1 H    1.033 --   218 C    0.999
   251   1 H    1.029 --   223 C    0.998
   252   1 H    1.032 --   224 C    0.998
   253   1 H    1.083 --   226 N    0.961
   254   1 H    1.052 --   229 C    0.988
   255   1 H    1.022 --   230 C    0.982
   256   1 H    1.011 --   232 C    0.954
   257   1 H    1.042 --   234 C    0.988
   258   1 H    1.046 --   235 C    0.988
   259   1 H    1.035 --   237 C    0.999
   260   1 H    1.033 --   238 C    0.999
 ---------------------------------------------------------------------------

Topologies differ in total number of bonds
Writing topology from bond orders to xtbtopo.mol

 dipole moment from electron density (au)
     X       Y       Z   
-131.2044   0.1254   0.2261  total (Debye):  333.489


           -------------------------------------------------
          | TOTAL ENERGY             -515.793714157373 Eh   |
          | GRADIENT NORM               0.091430532715 Eh/α |
          | HOMO-LUMO GAP               0.099741060677 eV   |
           -------------------------------------------------
########################################################################
[WARNING] Runtime exception occurred
-1- restart_readRestart: Dimension missmatch in restart file.
########################################################################

------------------------------------------------------------------------
 * finished run on 2022/07/30 at 10:21:20.660     
------------------------------------------------------------------------
 total:
 * wall-time:     0 d,  0 h,  0 min, 21.050 sec
 *  cpu-time:     0 d,  0 h,  0 min, 20.981 sec
 * ratio c/w:     0.997 speedup
 SCF:
 * wall-time:     0 d,  0 h,  0 min, 20.482 sec
 *  cpu-time:     0 d,  0 h,  0 min, 20.419 sec
 * ratio c/w:     0.997 speedup

