260
 energy: -456.641901273765 gnorm: 1.141982694031 xtb: 6.5.1 (b24c23e)
C           40.16970600000000        0.02194900000000       -0.11849400000000
C           40.90446200000000       -1.26028800000000       -0.61598100000000
C           40.30937800000000       -2.35325900000000       -1.20278600000000
C           41.33483700000000       -3.30365000000000       -1.44709500000000
C           42.52100399999999       -2.75924200000000       -0.99409900000000
N           42.25451500000000       -1.49126600000000       -0.54238900000000
C           43.93880500000000       -3.46624300000000       -0.96967100000000
C           43.96799500000000       -4.93706200000000       -1.13805800000000
C           44.26188000000000       -5.50815700000000       -2.38357800000000
C           44.27748400000000       -6.89620100000000       -2.53511400000000
C           43.99743500000000       -7.71187100000000       -1.43547100000000
C           44.00866400000000       -9.18212500000000       -1.57200300000000
O           44.24668100000000       -9.75564000000000       -2.62869600000000
C           43.70275200000000       -7.15279700000000       -0.18803200000000
C           43.68811000000000       -5.76524100000000       -0.04355100000000
C           45.06873500000000       -2.74913800000000       -0.72739800000000
C           46.36954200000000       -3.37964300000000       -0.63222800000000
C           47.27080400000000       -2.44272800000000       -0.36177000000000
N           45.26630900000000       -1.41100400000000       -0.51187100000000
C           46.59418100000000       -1.16350500000000       -0.27818400000000
C           47.25987499999999       -0.00940900000000       -0.00689600000000
C           46.48177200000000        1.37195900000000        0.05920500000000
C           47.02387300000000        2.62453500000000       -0.15200000000000
C           45.99731000000000        3.57687400000000        0.06556500000000
C           44.85407699999999        2.87855300000000        0.39152600000000
N           45.14555300000000        1.53590200000000        0.33273100000000
C           43.44170300000000        3.50470600000000        0.74757600000000
C           43.40154100000000        4.91064300000000        1.20433800000000
C           43.69839600000000        5.23414600000000        2.53410700000000
C           43.66993600000000        6.56477500000000        2.95797400000000
C           43.34598800000000        7.57203400000000        2.04494500000000
C           43.31181400000000        8.98573000000000        2.46994900000000
O           43.55113600000000        9.34807200000000        3.61617500000000
C           43.04873799999999        7.26104200000000        0.71410100000000
C           43.07810000000000        5.92990300000000        0.29753600000000
C           42.31693900000000        2.75443500000000        0.61962000000000
C           40.99228800000000        3.26207000000000        0.93140300000000
C           40.10774800000000        2.30086100000000        0.68276300000000
C           40.83246800000000        1.14556100000000        0.21385400000000
N           42.15496300000000        1.46161400000000        0.20759000000000
H           39.09022500000000       -0.01200800000000       -0.03164100000000
H           39.25689500000000       -2.46153000000000       -1.41573400000000
H           41.21570200000000       -4.28455600000000       -1.88179100000000
H           42.94873700000000       -0.82758800000000       -0.20716800000000
H           44.48153400000000       -4.85631700000000       -3.22699600000000
H           44.50899799999999       -7.32919000000000       -3.50414500000000
H           43.78586299999999       -9.75396400000000       -0.65582700000000
H           43.48451200000000       -7.77246600000000        0.67544700000000
H           43.46287500000000       -5.30908500000000        0.91873400000000
H           46.58210800000000       -4.42708200000000       -0.74950400000000
H           48.32207600000000       -2.62510600000000       -0.23357700000000
H           48.04832100000000        2.83465500000000       -0.41941600000000
H           46.08531099999999        4.65046200000000       -0.00334800000000
H           44.46234300000000        0.78821700000000        0.42279100000000
H           43.94825099999999        4.43667700000000        3.23127800000000
H           43.89993000000000        6.80462900000000        3.99206200000000
H           43.05480800000000        9.71935100000000        1.68717700000000
H           42.79367100000000        8.03158100000000       -0.00667700000000
H           42.84709200000000        5.66450000000000       -0.73307700000000
H           40.76019400000000        4.24379300000000        1.30278200000000
H           39.04287300000000        2.36417800000000        0.81237100000000
C           97.64423700000000        0.02640400000000       -0.11714500000000
C           96.90948100000000        1.36924200000000        0.18019700000000
C           97.50456500000000        2.60414800000000        0.29823500000000
C           96.47910599999999        3.53043500000000        0.62215300000000
C           95.29293900000000        2.82618200000000        0.69707500000000
N           95.55942799999998        1.52060300000000        0.36955500000000
C           93.87513799999999        3.40088600000000        1.10958200000000
C           93.84594799999999        4.71807600000000        1.78535800000000
C           93.55206299999999        5.88415600000000        1.06582600000000
C           93.53645899999999        7.12312700000000        1.70970600000000
C           93.81650800000000        7.19181300000000        3.07711800000000
C           93.80527900000000        8.49086300000000        3.77908500000000
O           93.56726199999999        9.55421200000000        3.21800700000000
C           94.11119099999999        6.03467000000000        3.80491400000000
C           94.12583300000000        4.80002000000000        3.15543500000000
C           92.74520800000001        2.66983300000000        0.91337600000000
C           91.44440099999998        3.14164700000000        1.34231100000000
C           90.54313900000000        2.21206800000000        1.04762500000000
N           92.54763399999999        1.43689300000000        0.35042500000000
C           91.21976200000000        1.10133400000000        0.40757200000000
C           90.55406800000000       -0.00940900000000       -0.00689600000000
C           91.33217099999999       -1.19543300000000       -0.71815900000000
C           90.79007000000000       -2.12047100000000       -1.58870900000000
C           91.81663300000000       -3.03354300000000       -1.93596000000000
C           92.95986600000001       -2.63332500000000       -1.27738000000000
N           92.66839000000000       -1.48356800000000       -0.58151500000000
C           94.37224000000001       -3.35181700000000       -1.32846500000000
C           94.41240200000000       -4.77498700000000       -1.72831100000000
C           94.11554700000001       -5.78179400000000       -0.80133800000000
C           94.14400700000000       -7.12405800000000       -1.18677800000000
C           94.46795500000000       -7.45567200000000       -2.50519600000000
C           94.50212900000000       -8.86768100000000       -2.93576900000000
O           94.26280700000000       -9.80499100000000       -2.18305600000000
C           94.76520499999999       -6.45867800000000       -3.44000300000000
C           94.73584299999999       -5.12004100000000       -3.04820400000000
C           95.49700400000000       -2.65658100000000       -1.01874600000000
C           96.82165500000001       -3.25190400000000       -1.04092100000000
C           97.70619499999999       -2.31421400000000       -0.71460500000000
C           96.98147500000000       -1.09284600000000       -0.46389800000000
N           95.65897999999999       -1.35234100000000       -0.64442900000000
H           98.72371800000001        0.00648000000000       -0.02604300000000
H           98.55704799999999        2.81235900000000        0.18111200000000
H           96.59824100000000        4.58772100000000        0.80458800000000
H           94.86520599999999        0.78244300000000        0.28032300000000
H           93.33240900000000        5.80965200000000        0.00248300000000
H           93.30494500000000        8.02092500000000        1.14361500000000
H           94.02808000000000        8.45844300000000        4.85858800000000
H           94.32943099999999        6.07127900000000        4.86710400000000
H           94.35106800000000        3.88668800000000        3.70306100000000
H           91.23183500000000        4.07821500000000        1.82576000000000
H           89.49186699999998        2.29270400000000        1.25545400000000
H           89.76562199999999       -2.14696100000000       -1.92776700000000
H           91.72863200000000       -3.88858800000000       -2.58883100000000
H           93.35160000000000       -0.91142000000000       -0.09183100000000
H           93.86569200000000       -5.50499600000000        0.22110400000000
H           93.91401300000000       -7.89724800000000       -0.45942300000000
H           94.75913499999999       -9.04387300000000       -3.99401700000000
H           95.02027199999999       -6.69997400000000       -4.46714800000000
H           94.96685100000001       -4.32752000000000       -3.75849600000000
H           97.05374899999998       -4.27474800000000       -1.27649200000000
H           98.77106999999998       -2.43879200000000       -0.64188900000000
C           53.49273800000000       -0.00830600000000        0.00159400000000
C           52.28379799999999       -0.02176200000000       -0.00685400000000
C           50.86226900000000       -0.01294200000000       -0.01883700000000
C           49.65059999999999       -0.00550400000000       -0.00797400000000
C           54.90934200000000       -0.01498200000000        0.00212700000000
C           56.13003800000000       -0.00550400000000       -0.00797400000000
C           69.51081499999998       -0.00830600000000        0.00159400000000
C           68.30187599999999       -0.02176200000000       -0.00685400000000
C           66.88034700000000       -0.01294200000000       -0.01883700000000
C           65.66867800000000       -0.00550400000000       -0.00797400000000
C           70.92742000000000       -0.01498200000000        0.00212700000000
C           72.14811600000000       -0.00550400000000       -0.00797400000000
C           85.52889300000000       -0.00830600000000        0.00159400000000
C           84.31995400000000       -0.02176200000000       -0.00685400000000
C           82.89842500000000       -0.01294200000000       -0.01883700000000
C           81.68675499999999       -0.00550400000000       -0.00797400000000
C           86.94549800000000       -0.01498200000000        0.00212700000000
C           88.16619300000001       -0.00550400000000       -0.00797400000000
C           57.30018599999999        0.01039100000000        0.00820700000000
C           58.08489400000000        0.87978300000000       -1.05868700000000
C           57.54336100000000        1.47661900000000       -2.17203000000000
C           58.58240799999999        2.17409100000000       -2.83443500000000
C           59.73359300000000        1.97854100000000       -2.11052400000000
N           59.43183499999999        1.15230800000000       -1.05401700000000
C           61.15194400000000        2.59504400000000       -2.44652900000000
C           61.18961800000000        3.77557600000000       -3.34555900000000
C           61.41460600000000        3.62029500000000       -4.71855500000000
C           61.45730000000000        4.73484400000000       -5.55990600000000
C           61.26972500000000        6.01005900000000       -5.02375900000000
C           61.31273400000000        7.20334500000000       -5.89363700000000
O           61.47402999999999        7.14138000000000       -7.10690200000000
C           61.03799099999999        6.17877900000000       -3.65608100000000
C           60.99840500000000        5.06027000000000       -2.82071900000000
C           62.28278300000000        2.07485600000000       -1.89969800000000
C           63.58900100000000        2.62468600000000       -2.19420500000000
C           64.50049900000000        1.92236400000000       -1.53171900000000
N           62.48195500000000        1.03206600000000       -1.03326900000000
C           63.82237199999999        0.88934700000000       -0.77420700000000
C           64.50446500000000        0.01039100000000        0.00820700000000
C           63.72836599999999       -1.09859200000000        0.84369400000000
C           64.30750999999999       -2.11077400000000        1.58717400000000
C           63.26631399999999       -2.83558400000000        2.21151300000000
C           62.07403599999999       -2.24754300000000        1.83423100000000
N           62.36319199999999       -1.21220800000000        0.97510200000000
C           60.64004300000000       -2.68115000000000        2.34190100000000
C           60.57717300000000       -3.77741200000000        3.33605300000000
C           60.45295000000000       -5.09971600000000        2.88910000000000
C           60.42013800000000       -6.14863500000000        3.80665700000000
C           60.49772800000000       -5.86831000000000        5.17582200000000
C           60.45133700000000       -6.99271400000000        6.13040400000000
O           60.51966599999999       -6.84261300000000        7.34420800000000
C           60.61201599999999       -4.55262400000000        5.63344300000000
C           60.65673199999999       -3.50716500000000        4.70909100000000
C           59.51122000000000       -2.08796200000000        1.87708800000000
C           58.20321800000000       -2.45236700000000        2.38001200000000
C           57.29598700000000       -1.70510600000000        1.76555700000000
C           57.97574200000000       -0.84634800000000        0.81795700000000
N           59.31504200000000       -1.11185300000000        0.94006500000000
H           56.51209800000000        1.42314900000000       -2.47662000000000
H           58.49667100000000        2.75642200000000       -3.73716200000000
H           60.10448900000000        0.76475600000000       -0.40296700000000
H           61.56334800000000        2.62208700000000       -5.11919800000000
H           61.63992600000000        4.60118200000000       -6.62114800000000
H           61.18445400000000        8.17746200000000       -5.39040800000000
H           60.88764800000000        7.16274000000000       -3.22558200000000
H           60.82507600000000        5.17209900000000       -1.75112200000000
H           63.80146500000000        3.45629400000000       -2.84035100000000
H           65.55743000000000        2.10891500000000       -1.56951800000000
H           65.36368000000000       -2.30265000000000        1.69139200000000
H           63.37829400000000       -3.68025400000000        2.87891400000000
H           61.67432699999999       -0.61443100000000        0.52202900000000
H           60.38220199999999       -5.28988800000000        1.81827900000000
H           60.33475400000000       -7.16549400000000        3.43725300000000
H           60.35014600000000       -7.99806200000000        5.68873400000000
H           60.66750199999999       -4.33608900000000        6.69703400000000
H           60.74982900000000       -2.47641900000000        5.04180300000000
H           57.99068499999999       -3.19169500000000        3.13082700000000
H           56.23870699999999       -1.75702800000000        1.94785500000000
C           73.31826399999999        0.01039100000000        0.00820700000000
C           74.10297199999999        0.87978300000000       -1.05868700000000
C           73.56143899999999        1.47661900000000       -2.17203000000000
C           74.60048600000000        2.17409100000000       -2.83443500000000
C           75.75167000000000        1.97854100000000       -2.11052400000000
N           75.44991200000000        1.15230800000000       -1.05401700000000
C           77.17002200000000        2.59504400000000       -2.44652900000000
C           77.20769600000000        3.77557600000000       -3.34555900000000
C           77.43268300000000        3.62029500000000       -4.71855500000000
C           77.47537800000001        4.73484400000000       -5.55990600000000
C           77.28780200000000        6.01005900000000       -5.02375900000000
C           77.33081199999999        7.20334500000000       -5.89363700000000
O           77.49210700000000        7.14138000000000       -7.10690200000000
C           77.05606899999999        6.17877900000000       -3.65608100000000
C           77.01648299999999        5.06027000000000       -2.82071900000000
C           78.30086100000000        2.07485600000000       -1.89969800000000
C           79.60707899999998        2.62468600000000       -2.19420500000000
C           80.51857699999999        1.92236400000000       -1.53171900000000
N           78.50003300000000        1.03206600000000       -1.03326900000000
C           79.84045000000000        0.88934700000000       -0.77420700000000
C           80.52254300000000        0.01039100000000        0.00820700000000
C           79.74644400000000       -1.09859200000000        0.84369400000000
C           80.32558799999998       -2.11077400000000        1.58717400000000
C           79.28439200000000       -2.83558400000000        2.21151300000000
C           78.09211400000000       -2.24754300000000        1.83423100000000
N           78.38127000000000       -1.21220800000000        0.97510200000000
C           76.65812099999999       -2.68115000000000        2.34190100000000
C           76.59525100000000       -3.77741200000000        3.33605300000000
C           76.47102800000000       -5.09971600000000        2.88910000000000
C           76.43821600000000       -6.14863500000000        3.80665700000000
C           76.51580599999998       -5.86831000000000        5.17582200000000
C           76.46941499999998       -6.99271400000000        6.13040400000000
O           76.53774300000001       -6.84261300000000        7.34420800000000
C           76.63009400000000       -4.55262400000000        5.63344300000000
C           76.67480999999999       -3.50716500000000        4.70909100000000
C           75.52929800000000       -2.08796200000000        1.87708800000000
C           74.22129600000000       -2.45236700000000        2.38001200000000
C           73.31406400000000       -1.70510600000000        1.76555700000000
C           73.99382000000000       -0.84634800000000        0.81795700000000
N           75.33311999999998       -1.11185300000000        0.94006500000000
H           72.53017600000000        1.42314900000000       -2.47662000000000
H           74.51474899999999        2.75642200000000       -3.73716200000000
H           76.12256700000000        0.76475600000000       -0.40296700000000
H           77.58142599999999        2.62208700000000       -5.11919800000000
H           77.65800399999999        4.60118200000000       -6.62114800000000
H           77.20253099999999        8.17746200000000       -5.39040800000000
H           76.90572600000000        7.16274000000000       -3.22558200000000
H           76.84315400000000        5.17209900000000       -1.75112200000000
H           79.81954299999998        3.45629400000000       -2.84035100000000
H           81.57550800000000        2.10891500000000       -1.56951800000000
H           81.38175800000000       -2.30265000000000        1.69139200000000
H           79.39637200000000       -3.68025400000000        2.87891400000000
H           77.69240499999999       -0.61443100000000        0.52202900000000
H           76.40028000000000       -5.28988800000000        1.81827900000000
H           76.35283200000001       -7.16549400000000        3.43725300000000
H           76.36822400000000       -7.99806200000000        5.68873400000000
H           76.68558000000000       -4.33608900000000        6.69703400000000
H           76.76790699999999       -2.47641900000000        5.04180300000000
H           74.00876300000000       -3.19169500000000        3.13082700000000
H           72.25678400000000       -1.75702800000000        1.94785500000000
260
 energy: -457.014105577018 gnorm: 0.479558021310 xtb: 6.5.1 (b24c23e)
C           40.18935095453745       -0.00389483235531       -0.12844184497285
C           40.90029001916233       -1.24459731424296       -0.61090778630461
C           40.31301285466680       -2.35904256953098       -1.20165768839071
C           41.33174065591503       -3.30277097022083       -1.44327576137760
C           42.53767142614861       -2.76332752271425       -0.99329847470215
N           42.25527412423501       -1.49147128589886       -0.54062422936115
C           43.91176951566264       -3.44734223001344       -0.96829977872297
C           43.96144746110787       -4.93085207577608       -1.13942817634858
C           44.26169802429976       -5.50802197176281       -2.38156182071152
C           44.27742158906052       -6.89185920607759       -2.53251224253704
C           43.99716361053953       -7.71358656605094       -1.43448897322208
C           44.01008272393881       -9.18370908596676       -1.57882107748309
O           44.24556777948571       -9.75172042440805       -2.62340602628611
C           43.70344612894793       -7.14716652724007       -0.18904263159050
C           43.68749591886191       -5.76370000138928       -0.04561609046749
C           45.07168170143209       -2.74196753180814       -0.72444435397486
C           46.37156164678018       -3.38531595111288       -0.63279199423659
C           47.27900456508647       -2.44452597288641       -0.36135382206147
N           45.26244263222756       -1.40265541113118       -0.50820599083480
C           46.60130824588752       -1.16108709172303       -0.27744487096063
C           47.25523651979235        0.01847060951421       -0.01224116187291
C           46.49439626473762        1.35458035269335        0.05611790199592
C           47.02323313364486        2.62779534755830       -0.14767086171026
C           46.00113454618183        3.57356956171636        0.06787973954133
C           44.83871573322566        2.88043069787756        0.39462903568462
N           45.14861398726961        1.53376346867663        0.33525338900091
C           43.46878660462198        3.48828235314749        0.73999022212128
C           43.40876738118742        4.90608365335043        1.20044996150459
C           43.69903784180158        5.23475442699187        2.53177003773827
C           43.66911527035721        6.56096700672705        2.95465728778621
C           43.34567397432291        7.57390062276301        2.04423531391612
C           43.31352413105910        8.98606663607844        2.47684037461630
O           43.54998870646636        9.34513840633323        3.61019891133766
C           43.04881414763711        7.25533985425555        0.71407813303713
C           43.07814397494268        5.92817858957423        0.29881025737923
C           42.31545321769779        2.74828130099782        0.61990800959626
C           40.99079115440675        3.26905100436359        0.93364431075566
C           40.10257835208078        2.30416449804788        0.68445804868444
C           40.83875273103734        1.14696199272637        0.21589680303036
N           42.16384700756247        1.45572546633164        0.20544103687942
H           39.10069234481991       -0.02000607358013       -0.03724747478027
H           39.25947479759620       -2.46387770794267       -1.41634362878593
H           41.21427110905981       -4.28293712724067       -1.88129254455582
H           42.94804578122226       -0.82856219286583       -0.20731819297827
H           44.48081121667394       -4.85829366194067       -3.22562627941515
H           44.50820392859172       -7.32930455168007       -3.50116709170549
H           43.78597299380892       -9.75277516504268       -0.65614642453529
H           43.48517857226977       -7.77191507275948        0.67314501339477
H           43.46294515779526       -5.31054863646208        0.91706665729216
H           46.57956338070095       -4.43222501265439       -0.75069025508419
H           48.32857281648538       -2.62168742485592       -0.23232363275779
H           48.04702237184156        2.83622446061079       -0.41844303565394
H           46.08682386458650        4.64824015584839       -0.00347006173759
H           44.46441407978242        0.78888784050566        0.42296849296250
H           43.94803855624600        4.43894651864039        3.23012346722421
H           43.89905643822445        6.80528102204146        3.98918580761804
H           43.05492132420271        9.71803766901382        1.68733247628935
H           42.79437376143012        8.03052641052297       -0.00442485230096
H           42.84778325889537        5.66572039069613       -0.73119315826866
H           40.76241646350814        4.24976139096590        1.30426877466324
H           39.03819415593722        2.36298488087863        0.81224660098809
C           97.62459050012816        0.05342833665877       -0.11108510952210
C           96.91365272978514        1.35337061784575        0.17571394040726
C           97.50093002984576        2.60833619156066        0.30238355787486
C           96.48220472595274        3.52758423006945        0.62484302788574
C           95.27627041958071        2.82913595845550        0.70000567980467
N           95.55866829863167        1.51979425635229        0.37113807099824
C           93.90217412048381        3.38439549316532        1.10023957436383
C           93.85249543986005        4.71366934737846        1.78077177088356
C           93.55224483870123        5.88292512250513        1.06742763255760
C           93.53652129933440        7.11807114909821        1.70946195856638
C           93.81677922313192        7.19269572931872        3.07888584886861
C           93.80386000568375        8.49596308362168        3.77428896115112
O           93.56837575239916        9.54801613084460        3.22023789957047
C           94.11049674311730        6.03054589482282        3.80094979614818
C           94.12644709452105        4.79988287586037        3.15286152748408
C           92.74226238367122        2.66222287896859        0.91185932655522
C           91.44238436378194        3.14668584890861        1.34499000504775
C           90.53494296124202        2.21334923777072        1.04897285948325
N           92.55148485043937        1.42789641543182        0.34884357554528
C           91.21261035960968        1.09894926963961        0.40684377052163
C           90.55847270769625       -0.02954368924990       -0.02668820349742
C           91.31947007321403       -1.17925294808054       -0.71105827951038
C           90.79069592965722       -2.12558775969262       -1.58691562533906
C           91.81280158392632       -3.03207274395626       -1.93219825547326
C           92.97521833566266       -2.63659907272166       -1.27583580241097
N           92.66529865196732       -1.48316506651975       -0.57821987803864
C           94.34514941943507       -3.33394059877242       -1.32566631808211
C           94.40517447580847       -4.76903665652821       -1.72901711347401
C           94.11490532461696       -5.78100313657920       -0.80361902970750
C           94.14482821939504       -7.11904981959361       -1.18742563985758
C           94.46826903786091       -7.45683000060923       -2.50682094464196
C           94.50041585881104       -8.87178668731103       -2.93022263991943
O           94.26395838259818       -9.79923323333867       -2.18640062170741
C           94.76512867232327       -6.45392110501928       -3.43685789079419
C           94.73579921655495       -5.11931146842220       -3.04618720882498
C           95.49848974464297       -2.65162017212751       -1.01509185123077
C           96.82315086199088       -3.25895588235803       -1.04292833249807
C           97.71136454334577       -2.31790278961620       -0.71502674250952
C           96.97519034890367       -1.09514609342396       -0.46297611912136
N           95.65009674795205       -1.34625056903036       -0.64294770628639
H           98.71325008062850        0.01624525378118       -0.02627138172089
H           98.55446805328693        2.81465097056432        0.18190712165620
H           96.59967227241773        4.58609723445514        0.80410426106990
H           94.86589659143392        0.78333746413341        0.28073693798008
H           93.33313174065751        5.81053694985555        0.00471934523702
H           93.30573904710917        8.01936822733078        1.14615630138344
H           94.02797014112353        8.45763042671728        4.85766317304573
H           94.32876448035471        6.07209743829553        4.86488320155784
H           94.35099797733169        3.88883012866190        3.70248610160609
H           91.23438093724936        4.08315407033446        1.82762630014321
H           89.48536580247502        2.28915425192723        1.25459410263095
H           89.76691804579539       -2.14881005037903       -1.92783389014594
H           91.72711879292042       -3.88666776656820       -2.58769838917526
H           93.34952096626273       -0.91206960673872       -0.09205418897711
H           93.86590412411941       -5.50624379576353        0.21888500536942
H           93.91488608112196       -7.89619475547419       -0.46217784056364
H           94.75902142444843       -9.04286683156319       -3.99315875108770
H           95.01956882308284       -6.70034547344906       -4.46468842012672
H           94.96615925141926       -4.32958030928163       -3.75760546720707
H           97.05152600559003       -4.28053815430788       -1.27856545794517
H           98.77574861318203       -2.43773002956828       -0.64133047725029