      -----------------------------------------------------------      
     |                   =====================                   |     
     |                           x T B                           |     
     |                   =====================                   |     
     |                         S. Grimme                         |     
     |          Mulliken Center for Theoretical Chemistry        |     
     |                    University of Bonn                     |     
      -----------------------------------------------------------      

   * xtb version 6.5.1 (b24c23e) compiled by 'conda@728c89f4b128' on 2022-07-12

   xtb is free software: you can redistribute it and/or modify it under
   the terms of the GNU Lesser General Public License as published by
   the Free Software Foundation, either version 3 of the License, or
   (at your option) any later version.
   
   xtb is distributed in the hope that it will be useful,
   but WITHOUT ANY WARRANTY; without even the implied warranty of
   MERCHANTABILITY or FITNESS FOR A PARTICULAR PURPOSE.  See the
   GNU Lesser General Public License for more details.
   
   Cite this work as:
   * C. Bannwarth, E. Caldeweyher, S. Ehlert, A. Hansen, P. Pracht,
     J. Seibert, S. Spicher, S. Grimme, WIREs Comput. Mol. Sci., 2020, 11,
     e01493. DOI: 10.1002/wcms.1493
   
   for GFN2-xTB:
   * C. Bannwarth, S. Ehlert and S. Grimme., J. Chem. Theory Comput., 2019,
     15, 1652-1671. DOI: 10.1021/acs.jctc.8b01176
   for GFN1-xTB:
   * S. Grimme, C. Bannwarth, P. Shushkov, J. Chem. Theory Comput., 2017,
     13, 1989-2009. DOI: 10.1021/acs.jctc.7b00118
   for GFN0-xTB:
   * P. Pracht, E. Caldeweyher, S. Ehlert, S. Grimme, ChemRxiv, 2019, preprint.
     DOI: 10.26434/chemrxiv.8326202.v1
   for GFN-FF:
   * S. Spicher and S. Grimme, Angew. Chem. Int. Ed., 2020, 59, 15665-15673.
     DOI: 10.1002/anie.202004239
   
   for ALPB and GBSA implicit solvation:
   * S. Ehlert, M. Stahn, S. Spicher, S. Grimme, J. Chem. Theory Comput.,
     2021, 17, 4250-4261. DOI: 10.1021/acs.jctc.1c00471
   
   for DFT-D4:
   * E. Caldeweyher, C. Bannwarth and S. Grimme, J. Chem. Phys., 2017,
     147, 034112. DOI: 10.1063/1.4993215
   * E. Caldeweyher, S. Ehlert, A. Hansen, H. Neugebauer, S. Spicher,
     C. Bannwarth and S. Grimme, J. Chem. Phys., 2019, 150, 154122.
     DOI: 10.1063/1.5090222
   * E. Caldeweyher, J.-M. Mewes, S. Ehlert and S. Grimme, Phys. Chem. Chem. Phys.
     2020, 22, 8499-8512. DOI: 10.1039/D0CP00502A
   
   for sTDA-xTB:
   * S. Grimme and C. Bannwarth, J. Chem. Phys., 2016, 145, 054103.
     DOI: 10.1063/1.4959605
   
   in the mass-spec context:
   * V. Asgeirsson, C. Bauer and S. Grimme, Chem. Sci., 2017, 8, 4879.
     DOI: 10.1039/c7sc00601b
   * J. Koopman and S. Grimme, ACS Omega 2019, 4, 12, 15120-15133.
     DOI: 10.1021/acsomega.9b02011
   
   for metadynamics refer to:
   * S. Grimme, J. Chem. Theory Comput., 2019, 155, 2847-2862
     DOI: 10.1021/acs.jctc.9b00143
   
   for SPH calculations refer to:
   * S. Spicher and S. Grimme, J. Chem. Theory Comput., 2021, 17, 1701-1714
     DOI: 10.1021/acs.jctc.0c01306
   
   with help from (in alphabetical order)
   P. Atkinson, C. Bannwarth, F. Bohle, G. Brandenburg, E. Caldeweyher
   M. Checinski, S. Dohm, S. Ehlert, S. Ehrlich, I. Gerasimov, C. Hölzer
   A. Katbashev, J. Koopman, C. Lavigne, S. Lehtola, F. März, M. Müller,
   F. Musil, H. Neugebauer, J. Pisarek, C. Plett, P. Pracht, F. Pultar,
   J. Seibert, P. Shushkov, S. Spicher, M. Stahn, M. Steiner, T. Strunk,
   J. Stückrath, T. Rose, and J. Unsleber
   
 * started run on 2022/07/30 at 08:17:09.173     

           -------------------------------------------------
          |                Calculation Setup                |
           -------------------------------------------------

          program call               : xtb xtbopt.xyz --gfn 1 --vipea
          hostname                   : cx3-14-28.cx3.hpc.ic.ac.uk
          coordinate file            : xtbopt.xyz
          omp threads                :                     1

   ID    Z sym.   atoms
    1   29 Cu     1, 59, 133
    2    6 C      2-6, 8-13, 15-19, 21-26, 28-33, 35-40, 60-64, 66-71, 73-77,
                  79-84, 86-91, 93-98, 117-132, 134-138, 140-145, 147-151,
                  153-158, 160-165, 167-172
    3    7 N      7, 14, 20, 27, 34, 41, 65, 72, 78, 85, 92, 99, 139, 146,
                  152, 159, 166, 173
    4    1 H      42-58, 100-116, 174-189

           -------------------------------------------------
          |                 I P E A - x T B                 |
           -------------------------------------------------

        Reference                      10.1039/c7sc00601b
      * Hamiltonian:
        H0-scaling (s, p, d)           2.150000    2.300000    2.000000
        zeta-weighting                 0.000000
      * Dispersion:
        s8                             2.400000
        a1                             0.630000
        a2                             5.000000
        s9                             0.000000
      * Repulsion:
        kExp                           1.500000
        rExp                           1.000000
      * Coulomb:
        alpha                          1.000000
        third order                    atomic
        anisotropic                    false
      * Halogen bond correction:
        rad-scale                      1.300000
        damping                        0.440000


          ...................................................
          :                      SETUP                      :
          :.................................................:
          :  # basis functions                 810          :
          :  # atomic orbitals                 807          :
          :  # shells                          517          :
          :  # electrons                       645          :
          :  # halogen bonds                     0          :
          :  max. iterations                   250          :
          :  Hamiltonian                  GFN1-xTB          :
          :  restarted?                      false          :
          :  GBSA solvation                  false          :
          :  PC potential                    false          :
          :  electronic temp.          300.0000000     K    :
          :  accuracy                    1.0000000          :
          :  -> integral cutoff          0.2500000E+02      :
          :  -> integral neglect         0.1000000E-07      :
          :  -> SCF convergence          0.1000000E-05 Eh   :
          :  -> wf. convergence          0.2000000E-04 e    :
          :  Broyden damping             0.4000000          :
          ...................................................

 iter      E             dE          RMSdq      gap      omega  full diag
   1   -401.2521529 -0.401252E+03  0.107E+01    0.01       0.0  T
   2   -400.9020831  0.350070E+00  0.667E+00    0.08       1.0  T
   3   -361.9683784  0.389337E+02  0.771E+00    0.26       1.0  T
   4   -392.9588065 -0.309904E+02  0.318E+00    0.01       1.0  T
   5   -392.0068421  0.951964E+00  0.238E+00    0.26       1.0  T
   6   -401.8901115 -0.988327E+01  0.107E+00    0.04       1.0  T
   7   -402.0914668 -0.201355E+00  0.858E-01    0.04       1.0  T
   8   -402.3097895 -0.218323E+00  0.684E-01    0.12       1.0  T
   9   -402.3514884 -0.416990E-01  0.581E-01    0.06       1.0  T
  10   -402.3215835  0.299049E-01  0.632E-01    0.04       1.0  T
  11   -402.3073994  0.141841E-01  0.599E-01    0.17       1.0  T
  12   -402.3540108 -0.466114E-01  0.404E-01    0.08       1.0  T
  13   -402.3284578  0.255530E-01  0.663E-01    0.02       1.0  T
  14   -402.3410455 -0.125877E-01  0.387E-01    0.02       1.0  T
  15   -402.3562243 -0.151788E-01  0.372E-01    0.04       1.0  T
  16   -402.4017109 -0.454866E-01  0.240E-01    0.01       1.0  T
  17   -402.4251793 -0.234684E-01  0.110E-01    0.01       1.0  T
  18   -402.4307221 -0.554280E-02  0.118E-01    0.01       1.0  T
  19   -402.4261264  0.459567E-02  0.150E-01    0.02       1.0  T
  20   -402.4340414 -0.791499E-02  0.865E-02    0.00       1.0  T
  21   -402.4313060  0.273546E-02  0.106E-01    0.00       1.0  T
  22   -402.4337944 -0.248847E-02  0.736E-02    0.00       1.0  T
  23   -402.4362457 -0.245126E-02  0.144E-02    0.00       1.0  T
  24   -402.4363138 -0.681242E-04  0.608E-03    0.00       1.2  T
  25   -402.4363082  0.561023E-05  0.480E-03    0.00       1.5  T
  26   -402.4363164 -0.819683E-05  0.414E-03    0.00       1.8  T
  27   -402.4363208 -0.442693E-05  0.113E-03    0.00       6.4  T
  28   -402.4363210 -0.189578E-06  0.108E-03    0.00       6.7  T
  29   -402.4363215 -0.448514E-06  0.473E-04    0.00      15.4  T
  30   -402.4363216 -0.149855E-06  0.149E-04    0.00      48.8  T
  31   -402.4363216  0.481600E-08  0.268E-04    0.00      27.2  T
  32   -402.4363216 -0.199659E-07  0.727E-05    0.00     100.1  T

   *** convergence criteria satisfied after 32 iterations ***

         #    Occupation            Energy/Eh            Energy/eV
      -------------------------------------------------------------
         1        2.0000           -1.0216868             -27.8015
       ...           ...                  ...                  ...
       317        2.0000           -0.3956706             -10.7667
       318        2.0000           -0.3944338             -10.7331
       319        2.0000           -0.3812752             -10.3750
       320        2.0000           -0.3808292             -10.3629
       321        2.0000           -0.3755830             -10.2201
       322        0.8329           -0.3230082              -8.7895
       323        0.8274           -0.3229967              -8.7892 (HOMO)
       324        0.8251           -0.3229918              -8.7891 (LUMO)
       325        0.2305           -0.3213121              -8.7433
       326        0.1249           -0.3206622              -8.7257
       327        0.1103           -0.3205349              -8.7222
       328        0.0452           -0.3196466              -8.6980
       ...           ...                  ...                  ...
       807                        503.8752625           13711.1438
      -------------------------------------------------------------
                  HL-Gap            0.0000049 Eh            0.0001 eV
             Fermi-level           -0.3233522 Eh           -8.7989 eV

 SCC (total)                   0 d,  0 h,  0 min, 12.140 sec
 SCC setup                      ...        0 min,  0.009 sec (  0.072%)
 Dispersion                     ...        0 min,  0.011 sec (  0.092%)
 classical contributions        ...        0 min,  0.003 sec (  0.026%)
 integral evaluation            ...        0 min,  0.781 sec (  6.435%)
 iterations                     ...        0 min,  9.583 sec ( 78.940%)
 molecular gradient             ...        0 min,  1.680 sec ( 13.836%)
 printout                       ...        0 min,  0.073 sec (  0.599%)

         :::::::::::::::::::::::::::::::::::::::::::::::::::::
         ::                     SUMMARY                     ::
         :::::::::::::::::::::::::::::::::::::::::::::::::::::
         :: total energy            -393.991976425318 Eh    ::
         :: gradient norm              0.077909967821 Eh/a0 ::
         :: HOMO-LUMO gap              0.000132764791 eV    ::
         ::.................................................::
         :: SCC energy              -402.436321630330 Eh    ::
         :: -> electrostatic           0.261477499217 Eh    ::
         :: repulsion energy           8.601369860691 Eh    ::
         :: dispersion energy         -0.157024655679 Eh    ::
         :: halogen bond corr.         0.000000000000 Eh    ::
         :: add. restraining           0.000000000000 Eh    ::
         :: total charge              -0.000000000002 e     ::
         :::::::::::::::::::::::::::::::::::::::::::::::::::::

           ------------------------------------------------- 
          |        vertical delta SCC IP calculation        |
           ------------------------------------------------- 
   1   -402.0802733 -0.402080E+03  0.189E-01    0.00       0.0  T
   2   -402.0254391  0.548341E-01  0.397E-01    0.07       1.0  T
   3   -402.0155616  0.987756E-02  0.395E-01    0.01       1.0  T
   4   -401.9976882  0.178734E-01  0.437E-01    0.06       1.0  T
   5   -402.0550324 -0.573443E-01  0.263E-01    0.02       1.0  T
   6   -402.0849630 -0.299306E-01  0.100E-01    0.01       1.0  T
   7   -402.0847188  0.244207E-03  0.964E-02    0.02       1.0  T
   8   -402.0861054 -0.138661E-02  0.768E-02    0.00       1.0  T
   9   -402.0886932 -0.258782E-02  0.729E-03    0.00       1.0  T
  10   -402.0884777  0.215477E-03  0.233E-02    0.01       1.0  T
  11   -402.0887058 -0.228068E-03  0.467E-03    0.00       1.6  T
  12   -402.0886944  0.113958E-04  0.677E-03    0.00       1.1  T
  13   -402.0887141 -0.197286E-04  0.683E-04    0.00      10.7  T
  14   -402.0887140  0.962130E-07  0.791E-04    0.00       9.2  T
  15   -402.0887143 -0.275576E-06  0.165E-04    0.00      44.0  T
  16   -402.0887143  0.210139E-08  0.185E-04    0.00      39.3  T
     SCC iter.                  ...        0 min,  5.279 sec
     gradient                   ...        0 min,  1.553 sec
------------------------------------------------------------------------
empirical IP shift (eV):    4.8455
delta SCC IP (eV):    4.6134
------------------------------------------------------------------------
           ------------------------------------------------- 
          |        vertical delta SCC EA calculation        |
           ------------------------------------------------- 
   1   -402.6891977 -0.402689E+03  0.475E-01    0.00       0.0  T
   2   -402.4933871  0.195811E+00  0.866E-01    0.00       1.0  T
   3   -402.5861553 -0.927682E-01  0.444E-01    0.01       1.0  T
   4   -402.5097476  0.764077E-01  0.740E-01    0.08       1.0  T
   5   -402.4709894  0.387582E-01  0.643E-01    0.01       1.0  T
   6   -402.2085387  0.262451E+00  0.738E-01    0.11       1.0  T
   7   -402.6035576 -0.395019E+00  0.529E-01    0.04       1.0  T
   8   -402.5413284  0.622293E-01  0.516E-01    0.00       1.0  T
   9   -402.6366885 -0.953602E-01  0.444E-01    0.07       1.0  T
  10   -402.6070458  0.296427E-01  0.454E-01    0.05       1.0  T
  11   -402.6524368 -0.453909E-01  0.297E-01    0.01       1.0  T
  12   -402.7121843 -0.597475E-01  0.201E-01    0.02       1.0  T
  13   -402.7198865 -0.770221E-02  0.155E-01    0.02       1.0  T
  14   -402.6989822  0.209043E-01  0.247E-01    0.03       1.0  T
  15   -402.7354347 -0.364525E-01  0.487E-02    0.00       1.0  T
  16   -402.7345754  0.859308E-03  0.589E-02    0.00       1.0  T
  17   -402.7364985 -0.192313E-02  0.125E-02    0.00       1.0  T
  18   -402.7364356  0.628753E-04  0.141E-02    0.00       1.0  T
  19   -402.7365068 -0.711967E-04  0.667E-03    0.00       1.1  T
  20   -402.7365275 -0.206586E-04  0.300E-03    0.00       2.4  T
  21   -402.7365324 -0.489415E-05  0.142E-03    0.00       5.1  T
  22   -402.7365335 -0.113287E-05  0.569E-04    0.00      12.8  T
  23   -402.7365337 -0.215562E-06  0.330E-04    0.00      22.1  T
  24   -402.7365337  0.684465E-07  0.471E-04    0.00      15.5  T
  25   -402.7365338 -0.127431E-06  0.207E-04    0.00      35.2  T
  26   -402.7365338 -0.208333E-07  0.690E-05    0.00     105.4  T
  27   -402.7365338 -0.217335E-08  0.127E-05    0.00     571.0  T
     SCC iter.                  ...        0 min,  8.315 sec
     gradient                   ...        0 min,  1.674 sec
------------------------------------------------------------------------
empirical EA shift (eV):    4.8455
delta SCC EA (eV):    3.3237
------------------------------------------------------------------------
           -------------------------------------------------
          |                Property Printout                |
           -------------------------------------------------

    * Orbital Energies and Occupations

         #    Occupation            Energy/Eh            Energy/eV
      -------------------------------------------------------------
         1        2.0000           -0.9750842             -26.5334
       ...           ...                  ...                  ...
       311        2.0000           -0.3757239             -10.2240
       312        2.0000           -0.3681990             -10.0192
       313        2.0000           -0.3640124              -9.9053
       314        2.0000           -0.3628211              -9.8729
       315        2.0000           -0.3574603              -9.7270
       316        2.0000           -0.3497271              -9.5166
       317        2.0000           -0.3494290              -9.5084
       318        2.0000           -0.3479682              -9.4687
       319        2.0000           -0.3361712              -9.1477
       320        2.0000           -0.3357474              -9.1362
       321        2.0000           -0.3304331              -8.9915
       322        0.8984           -0.2767189              -7.5299
       323        0.8886           -0.2767001              -7.5294 (HOMO)
       324        0.8780           -0.2766796              -7.5288 (LUMO)
       325        0.3955           -0.2755823              -7.4990
       326        0.3726           -0.2755120              -7.4971
       327        0.3671           -0.2754949              -7.4966
       328        0.1911           -0.2747774              -7.4771
       329        0.0073           -0.2715803              -7.3901
       330        0.0014           -0.2699772              -7.3465
       331                         -0.2480091              -6.7487
       332                         -0.2413473              -6.5674
       333                         -0.2410269              -6.5587
       334                         -0.2202827              -5.9942
       ...                                ...                  ...
       807                        503.9209810           13712.3878
      -------------------------------------------------------------
                  HL-Gap            0.0000205 Eh            0.0006 eV
             Fermi-level           -0.2769126 Eh           -7.5352 eV

  Mulliken/CM5 charges         n(s)   n(p)   n(d)
     1Cu    0.30888  0.66300   0.538  0.892  9.261
     2C    -0.01664 -0.05787   1.092  2.925  0.000
     3C     0.05548  0.11659   1.111  2.833  0.000
     4C    -0.03781 -0.08389   1.088  2.950  0.000
     5C    -0.03838 -0.08359   1.083  2.955  0.000
     6C     0.06396  0.13035   1.122  2.814  0.000
     7N    -0.21056 -0.46118   1.330  3.881  0.000
     8C     0.01120  0.01816   1.079  2.910  0.000
     9C    -0.02277 -0.02456   1.082  2.941  0.000
    10C    -0.03439 -0.03687   1.069  2.965  0.000
    11C     0.02732  0.02220   1.090  2.883  0.000
    12C    -0.01901 -0.06571   1.089  2.930  0.000
    13C     0.05181  0.07638   1.129  2.820  0.000
    14N    -0.26440 -0.45950   1.381  3.884  0.000
    15C     0.05121  0.07579   1.128  2.820  0.000
    16C    -0.01975 -0.06645   1.089  2.931  0.000
    17C     0.06266  0.12823   1.120  2.817  0.000
    18C    -0.03777 -0.08296   1.083  2.955  0.000
    19C    -0.03598 -0.08116   1.086  2.950  0.000
    20N    -0.20917 -0.45896   1.330  3.879  0.000
    21C     0.06095  0.12675   1.116  2.823  0.000
    22C     0.02207  0.02892   1.087  2.891  0.000
    23C     0.06102  0.12683   1.116  2.823  0.000
    24C    -0.03597 -0.08115   1.086  2.950  0.000
    25C    -0.03773 -0.08293   1.083  2.955  0.000
    26C     0.06269  0.12826   1.120  2.817  0.000
    27N    -0.20902 -0.45901   1.330  3.879  0.000
    28C     0.01123  0.01819   1.079  2.910  0.000
    29C    -0.02278 -0.02456   1.082  2.941  0.000
    30C    -0.03436 -0.03684   1.069  2.965  0.000
    31C     0.02732  0.02220   1.090  2.883  0.000
    32C    -0.01888 -0.06558   1.089  2.930  0.000
    33C     0.05184  0.07641   1.128  2.820  0.000
    34N    -0.26436 -0.45946   1.381  3.884  0.000
    35C     0.05122  0.07580   1.128  2.820  0.000
    36C    -0.01985 -0.06655   1.089  2.931  0.000
    37C     0.06390  0.13030   1.122  2.814  0.000
    38C    -0.03842 -0.08362   1.084  2.955  0.000
    39C    -0.03781 -0.08389   1.088  2.950  0.000
    40C     0.05551  0.11664   1.111  2.833  0.000
    41N    -0.21066 -0.46111   1.330  3.881  0.000
    42H     0.02691  0.08581   0.973  0.000  0.000
    43H     0.03104  0.08757   0.969  0.000  0.000
    44H     0.02648  0.08447   0.974  0.000  0.000
    45H     0.03404  0.09128   0.966  0.000  0.000
    46H     0.02990  0.09581   0.970  0.000  0.000
    47H     0.02851  0.09441   0.971  0.000  0.000
    48H     0.03203  0.08928   0.968  0.000  0.000
    49H     0.02710  0.08510   0.973  0.000  0.000
    50H     0.02810  0.08608   0.972  0.000  0.000
    51H     0.02821  0.08625   0.972  0.000  0.000
    52H     0.02716  0.08521   0.973  0.000  0.000
    53H     0.03400  0.09126   0.966  0.000  0.000
    54H     0.02998  0.09589   0.970  0.000  0.000
    55H     0.02849  0.09440   0.972  0.000  0.000
    56H     0.03209  0.08933   0.968  0.000  0.000
    57H     0.02642  0.08436   0.974  0.000  0.000
    58H     0.03102  0.08755   0.969  0.000  0.000
    59Cu    0.31080  0.66491   0.538  0.893  9.258
    60C    -0.01753 -0.05876   1.091  2.927  0.000
    61C     0.05569  0.11682   1.111  2.833  0.000
    62C    -0.03800 -0.08408   1.088  2.950  0.000
    63C    -0.03831 -0.08351   1.084  2.955  0.000
    64C     0.06356  0.12995   1.122  2.815  0.000
    65N    -0.21064 -0.46111   1.330  3.881  0.000
    66C     0.01167  0.01863   1.080  2.909  0.000
    67C    -0.02248 -0.02426   1.082  2.940  0.000
    68C    -0.03408 -0.03656   1.069  2.965  0.000
    69C     0.02745  0.02234   1.090  2.883  0.000
    70C    -0.01875 -0.06545   1.089  2.930  0.000
    71C     0.05194  0.07651   1.129  2.820  0.000
    72N    -0.26415 -0.45925   1.381  3.884  0.000
    73C     0.05129  0.07588   1.128  2.820  0.000
    74C    -0.01972 -0.06641   1.089  2.931  0.000
    75C     0.06220  0.12776   1.119  2.818  0.000
    76C    -0.03786 -0.08306   1.083  2.955  0.000
    77C    -0.03624 -0.08142   1.086  2.951  0.000
    78N    -0.20887 -0.45882   1.330  3.879  0.000
    79C     0.06108  0.12689   1.116  2.823  0.000
    80C     0.02126  0.02811   1.086  2.893  0.000
    81C     0.06100  0.12681   1.116  2.823  0.000
    82C    -0.03628 -0.08146   1.086  2.951  0.000
    83C    -0.03791 -0.08311   1.083  2.955  0.000
    84C     0.06218  0.12775   1.119  2.818  0.000
    85N    -0.20897 -0.45880   1.330  3.879  0.000
    86C     0.01162  0.01858   1.080  2.909  0.000
    87C    -0.02248 -0.02426   1.082  2.940  0.000
    88C    -0.03414 -0.03662   1.069  2.965  0.000
    89C     0.02745  0.02233   1.090  2.883  0.000
    90C    -0.01886 -0.06556   1.089  2.930  0.000
    91C     0.05188  0.07646   1.129  2.820  0.000
    92N    -0.26423 -0.45932   1.381  3.884  0.000
    93C     0.05128  0.07586   1.128  2.820  0.000
    94C    -0.01966 -0.06635   1.089  2.931  0.000
    95C     0.06358  0.12997   1.122  2.815  0.000
    96C    -0.03831 -0.08351   1.083  2.955  0.000
    97C    -0.03800 -0.08408   1.088  2.950  0.000
    98C     0.05567  0.11679   1.111  2.833  0.000
    99N    -0.21059 -0.46115   1.330  3.881  0.000
   100H     0.02660  0.08550   0.973  0.000  0.000
   101H     0.03092  0.08745   0.969  0.000  0.000
   102H     0.02640  0.08436   0.974  0.000  0.000
   103H     0.03418  0.09144   0.966  0.000  0.000
   104H     0.03012  0.09603   0.970  0.000  0.000
   105H     0.02861  0.09452   0.971  0.000  0.000
   106H     0.03219  0.08944   0.968  0.000  0.000
   107H     0.02701  0.08505   0.973  0.000  0.000
   108H     0.02809  0.08612   0.972  0.000  0.000
   109H     0.02790  0.08589   0.972  0.000  0.000
   110H     0.02692  0.08494   0.973  0.000  0.000
   111H     0.03416  0.09141   0.966  0.000  0.000
   112H     0.03001  0.09592   0.970  0.000  0.000
   113H     0.02860  0.09451   0.971  0.000  0.000
   114H     0.03216  0.08941   0.968  0.000  0.000
   115H     0.02642  0.08439   0.974  0.000  0.000
   116H     0.03093  0.08745   0.969  0.000  0.000
   117C    -0.01425 -0.01585   1.095  2.919  0.000
   118C    -0.01742 -0.01815   1.063  2.954  0.000
   119C    -0.01384 -0.01393   1.076  2.938  0.000
   120C    -0.01330 -0.01331   1.077  2.936  0.000
   121C    -0.01599 -0.01600   1.075  2.941  0.000
   122C    -0.01204 -0.01213   1.078  2.934  0.000
   123C    -0.02077 -0.02149   1.061  2.960  0.000
   124C    -0.01385 -0.01544   1.097  2.917  0.000
   125C    -0.01461 -0.01620   1.096  2.919  0.000
   126C    -0.02091 -0.02164   1.061  2.959  0.000
   127C    -0.01291 -0.01300   1.078  2.935  0.000
   128C    -0.01637 -0.01638   1.075  2.941  0.000
   129C    -0.01419 -0.01420   1.077  2.937  0.000
   130C    -0.01443 -0.01452   1.076  2.938  0.000
   131C    -0.01822 -0.01895   1.063  2.955  0.000
   132C    -0.01503 -0.01663   1.095  2.920  0.000
   133Cu    0.31601  0.66726   0.538  0.891  9.255
   134C     0.01692  0.02380   1.081  2.902  0.000
   135C     0.06250  0.12842   1.118  2.820  0.000
   136C    -0.03735 -0.08253   1.085  2.952  0.000
   137C    -0.03713 -0.08232   1.084  2.954  0.000
   138C     0.06061  0.12623   1.117  2.823  0.000
   139N    -0.20852 -0.45808   1.329  3.879  0.000
   140C     0.01723  0.02411   1.084  2.899  0.000
   141C    -0.01974 -0.02154   1.083  2.937  0.000
   142C    -0.03058 -0.03307   1.071  2.959  0.000
   143C     0.02868  0.02356   1.090  2.881  0.000
   144C    -0.01784 -0.06454   1.089  2.929  0.000
   145C     0.05254  0.07712   1.129  2.819  0.000
   146N    -0.26210 -0.45720   1.381  3.881  0.000
   147C     0.05253  0.07711   1.129  2.819  0.000
   148C    -0.01778 -0.06448   1.089  2.929  0.000
   149C     0.06052  0.12614   1.117  2.823  0.000
   150C    -0.03726 -0.08245   1.084  2.954  0.000
   151C    -0.03735 -0.08253   1.085  2.952  0.000
   152N    -0.20849 -0.45791   1.330  3.879  0.000
   153C     0.06249  0.12844   1.118  2.820  0.000
   154C     0.01708  0.02396   1.082  2.901  0.000
   155C     0.06247  0.12840   1.118  2.820  0.000
   156C    -0.03733 -0.08251   1.085  2.952  0.000
   157C    -0.03723 -0.08242   1.084  2.954  0.000
   158C     0.06053  0.12614   1.117  2.823  0.000
   159N    -0.20845 -0.45800   1.330  3.879  0.000
   160C     0.01722  0.02411   1.084  2.899  0.000
   161C    -0.01974 -0.02154   1.083  2.937  0.000
   162C    -0.03058 -0.03307   1.071  2.959  0.000
   163C     0.02867  0.02356   1.090  2.881  0.000
   164C    -0.01779 -0.06449   1.089  2.929  0.000
   165C     0.05253  0.07711   1.129  2.819  0.000
   166N    -0.26209 -0.45720   1.381  3.881  0.000
   167C     0.05254  0.07712   1.129  2.819  0.000
   168C    -0.01783 -0.06453   1.089  2.929  0.000
   169C     0.06060  0.12625   1.117  2.823  0.000
   170C    -0.03716 -0.08235   1.084  2.954  0.000
   171C    -0.03737 -0.08255   1.085  2.953  0.000
   172C     0.06252  0.12846   1.118  2.820  0.000
   173N    -0.20856 -0.45798   1.329  3.879  0.000
   174H     0.02744  0.08543   0.973  0.000  0.000
   175H     0.02702  0.08506   0.973  0.000  0.000
   176H     0.03492  0.09216   0.965  0.000  0.000
   177H     0.03076  0.09667   0.969  0.000  0.000
   178H     0.03077  0.09667   0.969  0.000  0.000
   179H     0.03483  0.09209   0.965  0.000  0.000
   180H     0.02691  0.08493   0.973  0.000  0.000
   181H     0.02745  0.08545   0.973  0.000  0.000
   182H     0.02745  0.08544   0.973  0.000  0.000
   183H     0.02694  0.08496   0.973  0.000  0.000
   184H     0.03484  0.09209   0.965  0.000  0.000
   185H     0.03076  0.09667   0.969  0.000  0.000
   186H     0.03077  0.09668   0.969  0.000  0.000
   187H     0.03492  0.09216   0.965  0.000  0.000
   188H     0.02699  0.08503   0.973  0.000  0.000
   189H     0.02742  0.08543   0.973  0.000  0.000

Wiberg/Mayer (AO) data.
largest (>0.10) Wiberg bond orders for each atom

 ---------------------------------------------------------------------------
     #   Z sym  total        # sym  WBO       # sym  WBO       # sym  WBO
 ---------------------------------------------------------------------------
     1  29 Cu   2.661 --     7 N    0.606    41 N    0.605    27 N    0.605
                            20 N    0.604
     2   6 C    3.825 --     3 C    1.391    40 C    1.391    42 H    0.998
     3   6 C    3.926 --     2 C    1.391     7 N    1.251     4 C    1.205
     4   6 C    3.843 --     5 C    1.629     3 C    1.205    43 H    0.994
     5   6 C    3.819 --     4 C    1.629     6 C    1.217    44 H    1.000
     6   6 C    3.931 --     7 N    1.298     8 C    1.298     5 C    1.217
     7   7 N    2.970 --     6 C    1.298     3 C    1.251     1 Cu   0.606
     8   6 C    3.807 --    17 C    1.304     6 C    1.298     9 C    1.190
     9   6 C    3.810 --    10 C    2.653     8 C    1.190
    10   6 C    3.778 --     9 C    2.653    11 C    1.158
    11   6 C    3.925 --    12 C    1.370    16 C    1.369    10 C    1.158
    12   6 C    3.875 --    13 C    1.466    11 C    1.370    45 H    0.988
    13   6 C    4.005 --    14 N    1.466    12 C    1.466    46 H    0.983
    14   7 N    2.915 --    13 C    1.466    15 C    1.466
    15   6 C    4.005 --    14 N    1.466    16 C    1.466    47 H    0.983
    16   6 C    3.875 --    15 C    1.466    11 C    1.369    48 H    0.989
    17   6 C    3.920 --     8 C    1.304    20 N    1.284    18 C    1.223
    18   6 C    3.816 --    19 C    1.617    17 C    1.223    49 H    1.000
    19   6 C    3.836 --    18 C    1.617    21 C    1.226    50 H    0.999
    20   7 N    2.975 --    17 C    1.284    21 C    1.274     1 Cu   0.604
    21   6 C    3.901 --    22 C    1.304    20 N    1.274    19 C    1.226
    22   6 C    3.858 --    21 C    1.304    23 C    1.303   117 C    1.210
    23   6 C    3.901 --    22 C    1.303    27 N    1.274    24 C    1.226
    24   6 C    3.835 --    25 C    1.617    23 C    1.226    51 H    0.999
    25   6 C    3.815 --    24 C    1.617    26 C    1.223    52 H    1.000
    26   6 C    3.919 --    28 C    1.304    27 N    1.284    25 C    1.223
    27   7 N    2.975 --    26 C    1.284    23 C    1.274     1 Cu   0.605
    28   6 C    3.807 --    26 C    1.304    37 C    1.299    29 C    1.190
    29   6 C    3.810 --    30 C    2.653    28 C    1.190
    30   6 C    3.778 --    29 C    2.653    31 C    1.158
    31   6 C    3.925 --    36 C    1.370    32 C    1.369    30 C    1.158
    32   6 C    3.874 --    33 C    1.466    31 C    1.369    53 H    0.988
    33   6 C    4.005 --    34 N    1.466    32 C    1.466    54 H    0.983
    34   7 N    2.915 --    35 C    1.466    33 C    1.466
    35   6 C    4.005 --    34 N    1.466    36 C    1.466    55 H    0.983
    36   6 C    3.877 --    35 C    1.466    31 C    1.370    56 H    0.989
    37   6 C    3.931 --    28 C    1.299    41 N    1.298    38 C    1.217
    38   6 C    3.820 --    39 C    1.629    37 C    1.217    57 H    1.000
    39   6 C    3.843 --    38 C    1.629    40 C    1.205    58 H    0.994
    40   6 C    3.926 --     2 C    1.391    41 N    1.251    39 C    1.205
    41   7 N    2.969 --    37 C    1.298    40 C    1.251     1 Cu   0.605
    42   1 H    1.036 --     2 C    0.998
    43   1 H    1.021 --     4 C    0.994
    44   1 H    1.026 --     5 C    1.000
    45   1 H    1.034 --    12 C    0.988
    46   1 H    1.050 --    13 C    0.983
    47   1 H    1.051 --    15 C    0.983
    48   1 H    1.035 --    16 C    0.989
    49   1 H    1.027 --    18 C    1.000
    50   1 H    1.032 --    19 C    0.999
    51   1 H    1.032 --    24 C    0.999
    52   1 H    1.028 --    25 C    1.000
    53   1 H    1.034 --    32 C    0.988
    54   1 H    1.050 --    33 C    0.983
    55   1 H    1.051 --    35 C    0.983
    56   1 H    1.035 --    36 C    0.989
    57   1 H    1.027 --    38 C    1.000
    58   1 H    1.021 --    39 C    0.994
    59  29 Cu   2.667 --    99 N    0.607    65 N    0.607    78 N    0.606
                            85 N    0.606
    60   6 C    3.821 --    98 C    1.390    61 C    1.390   100 H    0.998
    61   6 C    3.926 --    60 C    1.390    65 N    1.252    62 C    1.205
    62   6 C    3.842 --    63 C    1.630    61 C    1.205   101 H    0.994
    63   6 C    3.821 --    62 C    1.630    64 C    1.217   102 H    1.000
    64   6 C    3.930 --    66 C    1.300    65 N    1.296    63 C    1.217
    65   7 N    2.969 --    64 C    1.296    61 C    1.252    59 Cu   0.607
    66   6 C    3.809 --    75 C    1.304    64 C    1.300    67 C    1.190
    67   6 C    3.810 --    68 C    2.654    66 C    1.190
    68   6 C    3.779 --    67 C    2.654    69 C    1.157
    69   6 C    3.925 --    74 C    1.370    70 C    1.370    68 C    1.157
    70   6 C    3.875 --    71 C    1.466    69 C    1.370   103 H    0.988
    71   6 C    4.005 --    72 N    1.466    70 C    1.466   104 H    0.982
    72   7 N    2.916 --    73 C    1.467    71 C    1.466
    73   6 C    4.006 --    72 N    1.467    74 C    1.466   105 H    0.983
    74   6 C    3.875 --    73 C    1.466    69 C    1.370   106 H    0.989
    75   6 C    3.917 --    66 C    1.304    78 N    1.282    76 C    1.224
    76   6 C    3.815 --    77 C    1.616    75 C    1.224   107 H    1.000
    77   6 C    3.833 --    76 C    1.616    79 C    1.227   108 H    0.999
    78   7 N    2.976 --    75 C    1.282    79 C    1.275    59 Cu   0.606
    79   6 C    3.900 --    80 C    1.300    78 N    1.275    77 C    1.227
    80   6 C    3.851 --    81 C    1.301    79 C    1.300   132 C    1.213
    81   6 C    3.901 --    80 C    1.301    85 N    1.275    82 C    1.227
    82   6 C    3.833 --    83 C    1.616    81 C    1.227   109 H    0.999
    83   6 C    3.815 --    82 C    1.616    84 C    1.224   110 H    1.000
    84   6 C    3.918 --    86 C    1.304    85 N    1.282    83 C    1.224
    85   7 N    2.975 --    84 C    1.282    81 C    1.275    59 Cu   0.606
    86   6 C    3.809 --    84 C    1.304    95 C    1.300    87 C    1.190
    87   6 C    3.810 --    88 C    2.654    86 C    1.190
    88   6 C    3.779 --    87 C    2.654    89 C    1.157
    89   6 C    3.925 --    90 C    1.370    94 C    1.369    88 C    1.157
    90   6 C    3.875 --    91 C    1.465    89 C    1.370   111 H    0.988
    91   6 C    4.005 --    92 N    1.466    90 C    1.465   112 H    0.983
    92   7 N    2.915 --    93 C    1.466    91 C    1.466
    93   6 C    4.005 --    92 N    1.466    94 C    1.466   113 H    0.983
    94   6 C    3.875 --    93 C    1.466    89 C    1.369   114 H    0.989
    95   6 C    3.930 --    86 C    1.300    99 N    1.296    96 C    1.217
    96   6 C    3.820 --    97 C    1.629    95 C    1.217   115 H    1.000
    97   6 C    3.842 --    96 C    1.629    98 C    1.205   116 H    0.994
    98   6 C    3.926 --    60 C    1.390    99 N    1.252    97 C    1.205
    99   7 N    2.969 --    95 C    1.296    98 C    1.252    59 Cu   0.607
   100   1 H    1.036 --    60 C    0.998
   101   1 H    1.021 --    62 C    0.994
   102   1 H    1.027 --    63 C    1.000
   103   1 H    1.034 --    70 C    0.988
   104   1 H    1.050 --    71 C    0.982
   105   1 H    1.051 --    73 C    0.983
   106   1 H    1.035 --    74 C    0.989
   107   1 H    1.026 --    76 C    1.000
   108   1 H    1.032 --    77 C    0.999
   109   1 H    1.032 --    82 C    0.999
   110   1 H    1.026 --    83 C    1.000
   111   1 H    1.034 --    90 C    0.988
   112   1 H    1.050 --    91 C    0.983
   113   1 H    1.051 --    93 C    0.983
   114   1 H    1.035 --    94 C    0.989
   115   1 H    1.026 --    96 C    1.000
   116   1 H    1.021 --    97 C    0.994
   117   6 C    3.760 --   118 C    2.479    22 C    1.210   120 C    0.170
   118   6 C    3.826 --   117 C    2.479   119 C    1.354
   119   6 C    3.804 --   120 C    2.356   118 C    1.354   122 C    0.163
   120   6 C    3.844 --   119 C    2.356   121 C    1.384   117 C    0.170
   121   6 C    3.838 --   122 C    2.352   120 C    1.384   124 C    0.168
   122   6 C    3.807 --   121 C    2.352   123 C    1.358   119 C    0.163
   123   6 C    3.813 --   124 C    2.469   122 C    1.358
   124   6 C    3.759 --   123 C    2.469   134 C    1.218   121 C    0.168
   125   6 C    3.758 --   126 C    2.466   154 C    1.220   128 C    0.167
   126   6 C    3.813 --   125 C    2.466   127 C    1.360
   127   6 C    3.806 --   128 C    2.349   126 C    1.360   130 C    0.162
   128   6 C    3.837 --   127 C    2.349   129 C    1.386   125 C    0.167
   129   6 C    3.842 --   130 C    2.352   128 C    1.386   132 C    0.169
   130   6 C    3.803 --   129 C    2.352   131 C    1.357   127 C    0.162
   131   6 C    3.823 --   132 C    2.475   130 C    1.357
   132   6 C    3.758 --   131 C    2.475    80 C    1.213   129 C    0.169
   133  29 Cu   2.662 --   159 N    0.606   139 N    0.606   152 N    0.606
                           173 N    0.605
   134   6 C    3.820 --   135 C    1.293   172 C    1.293   124 C    1.218
   135   6 C    3.904 --   134 C    1.293   139 N    1.283   136 C    1.227
   136   6 C    3.826 --   137 C    1.614   135 C    1.227   174 H    0.999
   137   6 C    3.821 --   136 C    1.614   138 C    1.226   175 H    1.000
   138   6 C    3.912 --   140 C    1.309   139 N    1.273   137 C    1.226
   139   7 N    2.969 --   135 C    1.283   138 C    1.273   133 Cu   0.606
   140   6 C    3.827 --   138 C    1.309   149 C    1.308   141 C    1.186
   141   6 C    3.814 --   142 C    2.661   140 C    1.186
   142   6 C    3.786 --   141 C    2.661   143 C    1.154
   143   6 C    3.928 --   144 C    1.373   148 C    1.372   142 C    1.154
   144   6 C    3.877 --   145 C    1.464   143 C    1.373   176 H    0.988
   145   6 C    4.006 --   146 N    1.468   144 C    1.464   177 H    0.982
   146   7 N    2.920 --   145 C    1.468   147 C    1.468
   147   6 C    4.006 --   146 N    1.468   148 C    1.464   178 H    0.982
   148   6 C    3.877 --   147 C    1.464   143 C    1.372   179 H    0.988
   149   6 C    3.911 --   140 C    1.308   152 N    1.274   150 C    1.227
   150   6 C    3.821 --   151 C    1.613   149 C    1.227   180 H    1.000
   151   6 C    3.825 --   150 C    1.613   153 C    1.228   181 H    0.999
   152   7 N    2.970 --   153 C    1.284   149 C    1.274   133 Cu   0.606
   153   6 C    3.903 --   154 C    1.292   152 N    1.284   151 C    1.228
   154   6 C    3.819 --   155 C    1.292   153 C    1.292   125 C    1.220
   155   6 C    3.903 --   154 C    1.292   159 N    1.284   156 C    1.228
   156   6 C    3.826 --   157 C    1.614   155 C    1.228   182 H    0.999
   157   6 C    3.821 --   156 C    1.614   158 C    1.227   183 H    1.000
   158   6 C    3.911 --   160 C    1.308   159 N    1.273   157 C    1.227
   159   7 N    2.970 --   155 C    1.284   158 C    1.273   133 Cu   0.606
   160   6 C    3.827 --   169 C    1.308   158 C    1.308   161 C    1.186
   161   6 C    3.814 --   162 C    2.661   160 C    1.186
   162   6 C    3.786 --   161 C    2.661   163 C    1.154
   163   6 C    3.928 --   168 C    1.373   164 C    1.373   162 C    1.154
   164   6 C    3.877 --   165 C    1.464   163 C    1.373   184 H    0.988
   165   6 C    4.006 --   166 N    1.468   164 C    1.464   185 H    0.982
   166   7 N    2.920 --   167 C    1.468   165 C    1.468
   167   6 C    4.006 --   166 N    1.468   168 C    1.464   186 H    0.982
   168   6 C    3.877 --   167 C    1.464   163 C    1.373   187 H    0.988
   169   6 C    3.912 --   160 C    1.308   173 N    1.274   170 C    1.226
   170   6 C    3.821 --   171 C    1.614   169 C    1.226   188 H    1.000
   171   6 C    3.826 --   170 C    1.614   172 C    1.227   189 H    0.999
   172   6 C    3.904 --   134 C    1.293   173 N    1.284   171 C    1.227
   173   7 N    2.969 --   172 C    1.284   169 C    1.274   133 Cu   0.605
   174   1 H    1.032 --   136 C    0.999
   175   1 H    1.026 --   137 C    1.000
   176   1 H    1.034 --   144 C    0.988
   177   1 H    1.050 --   145 C    0.982
   178   1 H    1.050 --   147 C    0.982
   179   1 H    1.034 --   148 C    0.988
   180   1 H    1.026 --   150 C    1.000
   181   1 H    1.032 --   151 C    0.999
   182   1 H    1.032 --   156 C    0.999
   183   1 H    1.026 --   157 C    1.000
   184   1 H    1.034 --   164 C    0.988
   185   1 H    1.050 --   165 C    0.982
   186   1 H    1.050 --   167 C    0.982
   187   1 H    1.034 --   168 C    0.988
   188   1 H    1.026 --   170 C    1.000
   189   1 H    1.032 --   171 C    0.999
 ---------------------------------------------------------------------------

Topologies differ in total number of bonds
Writing topology from bond orders to xtbtopo.mol

 dipole moment from electron density (au)
     X       Y       Z   
 -86.5360   0.6686   0.4441  total (Debye):  219.962


           -------------------------------------------------
          | TOTAL ENERGY             -394.292188597387 Eh   |
          | GRADIENT NORM               0.085479124982 Eh/α |
          | HOMO-LUMO GAP               0.000558768107 eV   |
           -------------------------------------------------
########################################################################
[WARNING] Runtime exception occurred
-1- restart_readRestart: Dimension missmatch in restart file.
########################################################################

------------------------------------------------------------------------
 * finished run on 2022/07/30 at 08:17:40.628     
------------------------------------------------------------------------
 total:
 * wall-time:     0 d,  0 h,  0 min, 31.455 sec
 *  cpu-time:     0 d,  0 h,  0 min, 31.255 sec
 * ratio c/w:     0.994 speedup
 SCF:
 * wall-time:     0 d,  0 h,  0 min, 30.720 sec
 *  cpu-time:     0 d,  0 h,  0 min, 30.530 sec
 * ratio c/w:     0.994 speedup

