234
 energy: -401.610590283974 gnorm: 1.263175502616 xtb: 6.5.1 (b24c23e)
C           20.29710200000000       -0.05776000000000       -0.08089500000000
C           21.02448600000000       -0.25453200000000        1.28889000000000
C           20.42320700000000       -0.60719900000000        2.47720200000000
C           21.44352100000000       -0.64177900000000        3.46139300000000
C           22.62437500000000       -0.27857200000000        2.85079600000000
N           22.36807300000000       -0.10319300000000        1.51273400000000
C           24.04245600000000       -0.13106000000000        3.54909900000000
C           25.17647300000000       -0.07456400000000        2.79321500000000
C           26.48836500000000        0.07571700000000        3.39016700000000
C           27.39007200000000        0.13671100000000        2.41824000000000
N           25.37088300000000       -0.11504600000000        1.43692900000000
C           26.70500600000000        0.00443700000000        1.14668800000000
C           27.36528700000000        0.01282300000000       -0.04089800000000
C           26.58148900000000       -0.17884200000000       -1.40935500000000
C           27.09345500000000       -0.72831800000000       -2.56810700000000
C           26.07160300000000       -0.69012100000000       -3.54964500000000
C           24.96772300000000       -0.11495900000000       -2.96578300000000
C           23.56521200000000        0.14984100000000       -3.67046600000000
C           23.55827100000000        0.36342900000000       -5.14879200000000
C           24.05032700000000        1.55273900000000       -5.72468300000000
O           24.54466600000000        2.63769000000000       -5.04850900000000
C           23.66349400000000        3.20520400000000       -4.07899100000000
C           24.15178800000000        1.67823000000000       -7.11788900000000
C           23.72241200000000        0.65344400000000       -7.95715200000000
C           23.20652500000000       -0.51685900000000       -7.40566400000000
C           23.14282500000000       -0.67983500000000       -6.01521600000000
O           22.63813100000000       -1.82358200000000       -5.44471200000000
C           22.88516700000000       -3.04562600000000       -6.13447000000000
C           22.44206000000000        0.17616700000000       -2.90575200000000
C           21.11103300000000        0.33938400000000       -3.46249600000000
C           20.22739300000000        0.25829700000000       -2.47084400000000
C           20.96170800000000        0.06794600000000       -1.24417900000000
N           22.28851100000000        0.05068000000000       -1.55274900000000
N           25.26891900000000        0.14068100000000       -1.64650200000000
C           24.07973700000000       -0.01600300000000        5.03898400000000
C           23.77919400000000        1.19815900000000        5.69573100000000
O           23.31550200000000        2.31863300000000        5.05399300000000
C           24.32912700000000        2.99267400000000        4.31204600000000
C           23.81186200000000        1.28945000000000        7.09207900000000
C           24.16992700000000        0.18506500000000        7.85854800000000
C           24.45628200000000       -1.02733600000000        7.23048400000000
C           24.41114300000000       -1.13942900000000        5.83152900000000
O           24.61654600000000       -2.32725700000000        5.17562500000000
C           25.40215400000000       -3.31307100000000        5.82564900000000
H           19.20551200000000       -0.02142800000000       -0.07586400000000
H           19.37317200000000       -0.81232700000000        2.61896600000000
H           21.32542500000000       -0.88057300000000        4.50573500000000
H           23.06628800000000        0.09517100000000        0.79982500000000
H           26.70184800000000        0.13949500000000        4.44114000000000
H           28.44800800000000        0.24713900000000        2.57254400000000
H           28.08714600000000       -1.12568000000000       -2.69034000000000
H           26.12790200000000       -1.04310300000000       -4.56690600000000
H           24.17547500000000        3.23260700000000       -3.10777200000000
H           23.45039000000000        4.23755800000000       -4.37781600000000
H           22.71387300000000        2.68779000000000       -3.97304100000000
H           24.56920000000000        2.58858600000000       -7.53686300000000
H           23.78970800000000        0.76547300000000       -9.03279800000000
H           22.85965900000000       -1.30054000000000       -8.07078300000000
H           22.73640500000000       -3.87187000000000       -5.43580500000000
H           22.16662400000000       -3.17083200000000       -6.95142400000000
H           23.91365900000000       -3.10025000000000       -6.50628900000000
H           20.87340200000000        0.46201700000000       -4.50158000000000
H           19.15593100000000        0.31031200000000       -2.56184700000000
H           24.59243800000000        0.43319200000000       -0.94658000000000
H           24.61005200000000        3.91050000000000        4.83783900000000
H           23.91696000000000        3.28022100000000        3.33961200000000
H           25.22995000000000        2.40853200000000        4.14014700000000
H           23.54441900000000        2.22454700000000        7.57319500000000
H           24.19901500000000        0.26616200000000        8.94173300000000
H           24.68434299999999       -1.88412700000000        7.85270900000000
H           24.82637600000000       -3.80678500000000        6.61115400000000
H           25.67631300000000       -4.06872700000000        5.08669700000000
H           26.32719500000000       -2.88945600000000        6.23257800000000
C           68.74207000000000       -0.05394600000000        0.00518500000000
C           68.01468600000000       -0.37109700000000       -1.34182900000000
C           68.61596499999999       -0.82748200000000       -2.49429300000000
C           67.59565100000000       -0.94897200000000       -3.47156800000000
C           66.41479699999999       -0.53318400000000       -2.89548800000000
N           66.67109900000000       -0.24014900000000       -1.57818100000000
C           64.99671600000001       -0.44801200000000       -3.60410100000000
C           63.86269900000000       -0.32488300000000       -2.85617600000000
C           62.55080700000000       -0.22798900000000       -3.46408000000000
C           61.64909900000000       -0.08127100000000       -2.50135600000000
N           63.66828800000000       -0.24525100000000       -1.50162500000000
C           62.33416500000000       -0.10056600000000       -1.22308900000000
C           61.67388500000000        0.01282300000000       -0.04089800000000
C           62.45768200000000       -0.05705800000000        1.33914800000000
C           61.94571600000000       -0.50189600000000        2.54195700000000
C           62.96756799999999       -0.37703700000000        3.51627000000000
C           64.07144800000000        0.14423200000000        2.88382600000000
C           65.47395899999999        0.47031900000000        3.56232700000000
C           65.48090000000001        0.81382000000000        5.01597000000000
C           64.98884500000000        2.04940400000000        5.48441500000000
O           64.49450600000000        3.07029900000000        4.71493300000000
C           65.37567799999999        3.54984000000000        3.69902100000000
C           64.88738400000000        2.29762400000000        6.86106200000000
C           65.31675900000000        1.35108200000000        7.78767400000000
C           65.83264699999999        0.13659000000000        7.34185300000000
C           65.89634599999999       -0.14872500000000        5.97126800000000
O           66.40103999999999       -1.33844800000000        5.50415800000000
C           66.15400400000000       -2.49469800000000        6.29929600000000
C           66.59711100000000        0.42890700000000        2.79828200000000
C           67.92813799999999        0.64072500000000        3.33840900000000
C           68.81177900000000        0.47225000000000        2.35781400000000
C           68.07746400000001        0.17415400000000        1.15279200000000
N           66.75066000000000        0.18424600000000        1.46168000000000
N           63.77025200000000        0.28218600000000        1.54710600000000
C           64.95943500000000       -0.46517800000000       -5.09832300000000
C           65.25997700000001        0.68614100000000       -5.85988200000000
O           65.72366900000000        1.85898200000000       -5.31975900000000
C           64.71004499999999        2.59600200000000       -4.64033500000000
C           65.22730900000001        0.65357400000000       -7.25883300000000
C           64.86924399999999       -0.51427200000000       -7.92462100000000
C           64.58289000000001       -1.66637300000000       -7.19178800000000
C           64.62802800000000       -1.65429700000000       -5.78840100000000
O           64.42262599999999       -2.77945900000000       -5.03001100000000
C           63.63701800000000       -3.81890100000000       -5.59029800000000
H           69.83365999999999       -0.01820100000000       -0.00304000000000
H           69.66600000000000       -1.04434400000000       -2.61735800000000
H           67.71374700000000       -1.27919600000000       -4.49069700000000
H           65.97288300000000        0.02049100000000       -0.88560900000000
H           62.33732299999999       -0.25741300000000       -4.51657500000000
H           60.59116400000000        0.01507600000000       -2.66482300000000
H           60.95202599999999       -0.88689000000000        2.69885500000000
H           62.91126900000000       -0.63866500000000        4.56076400000000
H           64.86369700000000        3.49123700000000        2.72918500000000
H           65.58878100000000        4.60457800000000        3.90536900000000
H           66.32529800000000        3.02508400000000        3.63924900000000
H           64.46997100000000        3.24146800000000        7.19787900000000
H           65.24946400000000        1.55780700000000        8.84919600000000
H           66.17951200000000       -0.58519400000000        8.07367800000000
H           66.30276700000000       -3.37949700000000        5.67644600000000
H           66.87254700000000       -2.54715800000000        7.12412300000000
H           65.12551200000000       -2.51622200000000        6.67449000000000
H           68.16576999999999        0.85478000000000        4.36257400000000
H           69.88324100000000        0.53211000000000        2.44386000000000
H           64.44673400000001        0.51164700000000        0.82405500000000
H           64.42911900000000        3.46372800000000       -5.24524400000000
H           65.12221099999999        2.96842900000000       -3.69714300000000
H           63.80922099999999        2.02935300000000       -4.41744500000000
H           65.49475200000001        1.54245500000000       -7.82076700000000
H           64.84015599999999       -0.52929500000000       -9.01073400000000
H           64.35482900000000       -2.57483900000000       -7.73579600000000
H           64.21279500000000       -4.38015400000000       -6.32905800000000
H           63.36285800000000       -4.50623900000000       -4.78740800000000
H           62.71197599999999       -3.43293700000000       -6.03309800000000
C           30.44358400000000        0.02648100000000       -0.03134400000000
C           31.90181000000000        0.00464400000000       -0.04921800000000
C           33.03573800000000       -0.01611000000000       -0.05070900000000
C           34.39711999999999       -0.02869900000000       -0.05290000000000
C           35.67133900000000       -0.01839300000000       -0.05766500000000
C           36.85980099999999        0.00040500000000       -0.06382100000000
C           38.21216200000000        0.02519000000000       -0.04795300000000
C           39.31242900000000        0.02648100000000       -0.03134400000000
C           49.61142199999999        0.02648100000000       -0.03134400000000
C           51.06964800000000        0.00464400000000       -0.04921800000000
C           52.20357599999999       -0.01611000000000       -0.05070900000000
C           53.56495799999999       -0.02869900000000       -0.05290000000000
C           54.83917600000000       -0.01839300000000       -0.05766500000000
C           56.02763899999999        0.00040500000000       -0.06382100000000
C           57.38000000000000        0.02519000000000       -0.04795300000000
C           58.48026700000000        0.02648100000000       -0.03134400000000
C           40.97057100000000       -0.03188600000000        0.08989800000000
C           41.76173400000000        1.22449700000000        0.65328200000000
C           41.23284100000000        2.25881000000000        1.39697200000000
C           42.26773300000000        3.20632800000000        1.58361800000000
C           43.40243199999999        2.71976700000000        0.97112100000000
N           43.10140000000000        1.48143300000000        0.46076700000000
C           44.80988000000000        3.45310000000000        0.87506200000000
C           45.94188399999999        2.73161200000000        0.64377300000000
C           47.24263300000000        3.36013300000000        0.52224000000000
C           48.15273800000000        2.41331100000000        0.34203900000000
N           46.14705100000000        1.38654000000000        0.48646900000000
C           47.47963599999999        1.13137100000000        0.29817700000000
C           48.14882200000000       -0.03188600000000        0.08989800000000
C           47.34721600000000       -1.39558200000000       -0.01308000000000
C           47.84600700000000       -2.66662200000000        0.21861900000000
C           46.81012200000000       -3.58875500000000       -0.06648100000000
C           45.71104500000000       -2.85109800000000       -0.47095900000000
C           44.31626400000000       -3.43671500000000       -0.94921400000000
C           44.32239299999999       -4.78355500000000       -1.59921200000000
C           43.95847300000000       -5.91559600000000       -0.82071700000000
O           43.63400300000000       -5.69915500000000        0.49522300000000
C           42.69466400000000       -6.58994600000000        1.07908700000000
C           44.00076900000000       -7.20588200000000       -1.36834000000000
C           44.41107500000000       -7.39434800000000       -2.67942400000000
C           44.77613500000000       -6.29416800000000       -3.44766400000000
C           44.72298800000000       -4.98952300000000       -2.93641200000000
O           45.13357200000000       -4.06219100000000       -3.86455800000000
C           44.46322799999999       -2.80083500000000       -3.84852900000000
C           43.17875400000000       -2.70836400000000       -0.77920100000000
C           41.87474100000000       -3.21687500000000       -1.15873500000000
C           40.96206200000000       -2.29947800000000       -0.86533900000000
C           41.63945500000000       -1.14847700000000       -0.29918900000000
N           42.97609700000000       -1.45112500000000       -0.27758700000000
N           46.02641600000000       -1.51884300000000       -0.37053200000000
C           44.83924399999999        4.93755800000000        1.02685700000000
C           44.90601999999999        5.77408400000000       -0.10592700000000
O           44.96634400000000        5.21546600000000       -1.36013200000000
C           43.83126200000000        5.57105900000000       -2.15234800000000
C           44.97538200000000        7.16868100000000        0.02886600000000
C           44.94371900000000        7.75432500000000        1.29226600000000
C           44.83727700000000        6.94892300000000        2.42410100000000
C           44.80428100000000        5.55445200000000        2.29634600000000
O           44.64350400000000        4.84935500000000        3.46165800000000
C           45.87949000000000        4.27395500000000        3.89145000000000
H           40.21310000000000        2.34304200000000        1.75074500000000
H           42.19666300000000        4.14521800000000        2.10942500000000
H           43.77190100000000        0.84900200000000        0.02667400000000
H           47.44659900000000        4.41279800000000        0.58165100000000
H           49.20575100000000        2.58534900000000        0.23132500000000
H           48.84910400000000       -2.90924300000000        0.54361900000000
H           46.86195300000000       -4.66838600000000        0.00139600000000
H           42.29530000000000       -6.11792000000000        1.98373000000000
H           43.18958599999999       -7.52136900000000        1.38232100000000
H           41.84530400000000       -6.78992800000000        0.40960900000000
H           43.75490400000000       -8.07557800000000       -0.77191300000000
H           44.46125000000000       -8.39233700000000       -3.10253600000000
H           45.10500400000000       -6.44303800000000       -4.46700100000000
H           44.46778100000000       -2.45787200000000       -4.89863900000000
H           43.39964799999999       -2.90018200000000       -3.56146400000000
H           45.00538999999999       -2.05739600000000       -3.24918300000000
H           41.67465000000000       -4.17547800000000       -1.59773900000000
H           39.90799200000000       -2.41322500000000       -1.03693000000000
H           45.38059599999999       -0.74245700000000       -0.49299900000000
H           44.05923399999999        6.48576100000000       -2.71591400000000
H           42.92173600000000        5.72370700000000       -1.55868800000000
H           43.65189199999999        4.76558800000000       -2.87852000000000
H           45.07114199999999        7.79522600000000       -0.85231800000000
H           45.00222600000000        8.83359400000000        1.39242200000000
H           44.80354400000000        7.39329700000000        3.41103000000000
H           46.62592500000000        4.16054400000000        3.10206700000000
H           45.66237600000000        3.28770200000000        4.32168600000000
H           46.30546900000000        4.90599400000000        4.67944000000000
234
 energy: -401.972543837377 gnorm: 0.477225116820 xtb: 6.5.1 (b24c23e)
C           20.31515656346164       -0.06113303036592       -0.05358299418260
C           21.02021658993646       -0.25247476104826        1.27314475822559
C           20.42699510190756       -0.60608578978312        2.48129709457849
C           21.44035610815010       -0.63746157197407        3.46054763982044
C           22.64208694598713       -0.27887700842610        2.85502662106517
N           22.36882130284988       -0.10146417250602        1.51278694956829
C           24.01502798607304       -0.13238154549109        3.53346452174893
C           25.17844849493518       -0.07324076136808        2.78916800030923
C           26.48946582995551        0.07695877343749        3.39623210032707
C           27.39684096646752        0.13637905114997        2.41719584166217
N           25.36102529679775       -0.11471231388059        1.43356453753732
C           26.70145881093390        0.00312474047612        1.14483703077314
C           27.32995667550168        0.00949887067378       -0.07073083028465
C           26.58482465022542       -0.18197093512228       -1.39065781467437
C           27.09168181254883       -0.72606777662843       -2.57106371718940
C           26.07591620887041       -0.68671006026160       -3.54763597950128
C           24.95078110931050       -0.11057882219892       -2.96945074019855
C           23.59152868575271        0.14780537177851       -3.65482651165433
C           23.56645498596814        0.35973385457456       -5.14259986028374
C           24.05409729193606        1.54810047653037       -5.72908592067169
O           24.53597767944392        2.63097659440736       -5.04312016439606
C           23.66592059520816        3.20996479474340       -4.07521045196831
C           24.15003425045473        1.67506021628939       -7.11973333159694
C           23.72308134754462        0.65250255200286       -7.95372673869826
C           23.20692636991801       -0.51594037250466       -7.40351527085190
C           23.14129430995718       -0.67582848132992       -6.01377123924111
O           22.64570396005748       -1.82194653621603       -5.44551553603594
C           22.88307814237468       -3.04548715973190       -6.13388798441223
C           22.44007056296408        0.17764357113702       -2.90050963823667
C           21.10922738351305        0.33927485236697       -3.46978920321780
C           20.22233107252285        0.25852511167892       -2.47453387357716
C           20.96690127908612        0.06989061497963       -1.24563586125816
N           22.29660972213892        0.04865046245877       -1.54726916655768
N           25.26742070980477        0.14335878463065       -1.64762897900946
C           24.07321834960939       -0.01722022572192        5.03337068092193
C           23.77208008757043        1.19200124085315        5.69887220511770
O           23.32430279300867        2.31341078391149        5.04800457032393
C           24.32823619948178        2.99889491814560        4.30782475870579
C           23.81316943880188        1.28589820497978        7.09261786617082
C           24.16940679676364        0.18376380918961        7.85521387643991
C           24.45618209924590       -1.02601196266329        7.22867460895738
C           24.40915466506213       -1.13682191259787        5.83099513866302
O           24.62051038211741       -2.32174585433084        5.17743481627277
C           25.40152088580684       -3.31367139088120        5.82500830412962
H           19.21811847277566       -0.02421749684386       -0.06710438827652
H           19.37574364400074       -0.81252954412887        2.62095518509066
H           21.32357314446830       -0.88007508599957        4.50503113742187
H           23.06549960611312        0.09512521857684        0.80083453140831
H           26.69995983089954        0.13930805569175        4.44684703004742
H           28.45373711048947        0.24747130616097        2.56798547520345
H           28.08644424223170       -1.12485058139541       -2.69196176148782
H           26.13046617589665       -1.04250838772961       -4.56549715110115
H           24.17528140618733        3.23171003491760       -3.10635839061441
H           23.45080396400103        4.23944932609996       -4.37830556294059
H           22.71547014281783        2.68509933786896       -3.97455044537173
H           24.56768349807427        2.58719788697021       -7.53530739392600
H           23.78936939907813        0.76488787283332       -9.03114979645240
H           22.86007912170395       -1.30013661053691       -8.06855820949063
H           22.73546664458931       -3.86943172925265       -5.43255778460079
H           22.16770822053003       -3.17120961311500       -6.95347643977028
H           23.91207666502173       -3.09866655765835       -6.50748434585117
H           20.87522070646749        0.46279427444285       -4.50828877814313
H           19.15208440902659        0.31075421709947       -2.56059309986754
H           24.59334164113107        0.43368856929340       -0.94803193782622
H           24.61074480440518        3.91227296389151        4.83950503346524
H           23.91543758643310        3.28046822296387        3.33710234314863
H           25.22851265875718        2.40565842798407        4.14162112165390
H           23.54550390819614        2.22312621927820        7.57100635050557
H           24.19924020507046        0.26460594988088        8.93906220983740
H           24.68496270587663       -1.88406500875086        7.85043025682626
H           24.82684822719136       -3.80719442406294        6.61356340595453
H           25.67456129852444       -4.06721254399990        5.08377615486218
H           26.32575200621881       -2.88895937510809        6.23378168668723
C           68.72396485970279       -0.05977602130328       -0.02194331399741
C           68.01901213792280       -0.36761022476102       -1.32613974013000
C           68.61216699735137       -0.82672594313845       -2.49856811941255
C           67.59891119588848       -0.94460157463670       -3.47106235696307
C           66.39695689609094       -0.53379914868677       -2.89962223650119
N           66.67030287797949       -0.23844793992125       -1.57837587957781
C           65.02418557139976       -0.44793315047529       -3.58824124398099
C           63.86063988549370       -0.32324852127325       -2.85188911776214
C           62.54967268091840       -0.22731854146432       -3.47014738047727
C           61.64212659869078       -0.08136482022797       -2.50057673341069
N           63.67748505205027       -0.24461996384079       -1.49793478865606
C           62.33609516856263       -0.10116427989206       -1.22089130843153
C           61.70662216523061        0.01136369700959       -0.01152019210553
C           62.45291594805796       -0.06119306094234        1.32106225285662
C           61.94724517160932       -0.49936129485397        2.54484196437426
C           62.96327287267189       -0.37385649069908        3.51390538447597
C           64.08821813672334        0.14868909005590        2.88690527698070
C           65.44778310696294        0.46680956261239        3.54686873432465
C           65.47270019774750        0.80964234463805        5.01011065230375
C           64.98509063145117        2.04519007897958        5.48921848087878
O           64.50318414437562        3.06314195746467        4.71015305050329
C           65.37325298301518        3.55424839130120        3.69483781795302
C           64.88913140228208        2.29463196743650        6.86318615926426
C           65.31608880550016        1.34984382481027        7.78434477063341
C           65.83224654914778        0.13732204937101        7.33962082279323
C           65.89785283343787       -0.14485319623105        5.96945245187655
O           66.39346691926842       -1.33674549532906        5.50480646173416
C           66.15609244338101       -2.49461060919218        6.29870430521787
C           66.59906260633217        0.42989535637837        2.79298889118615
C           67.92994283871435        0.64126778781784        3.34571175761604
C           68.81679972440541        0.47279429515273        2.36148320850434
C           68.07210076860702        0.17619441210092        1.15409482417215
N           66.74264523318952        0.18182172605248        1.45628834395257
N           63.77121596973852        0.28497324146840        1.54765747762432
C           64.96593561280697       -0.46587568868846       -5.09259181088711
C           65.26707087340347        0.67970783640711       -5.86246758841763
O           65.71487278234038        1.85432901052265       -5.31333199910118
C           64.71094500488319        2.60256523131747       -4.63668572277727
C           65.22600758560183        0.64999124505283       -7.25906159923624
C           64.86976385140326       -0.51527297877376       -7.92118672458476
C           64.58298728949647       -1.66489744385610       -7.19010392716302
C           64.63002833809207       -1.65163941815653       -5.78809586323464
O           64.41865548283646       -2.77413634569208       -5.03230727249890
C           63.63765135926017       -3.81944191361356       -5.58960449820191
H           69.82103056059943       -0.02177209008322       -0.01155126701214
H           69.66342632600626       -1.04473273620578       -2.61934491636725
H           67.71561733902109       -1.27864343349808       -4.49002084121660
H           65.97366314086622        0.02034693879881       -0.88661208523048
H           62.33922119449133       -0.25811672053396       -4.52220161969396
H           60.58534965447856        0.01579049059455       -2.66031344457845
H           60.95263449234480       -0.88591012771565        2.70044628995774
H           62.90873297913786       -0.63820384510129        4.55926761001606
H           64.86389280413161        3.49022009749099        2.72785504498700
H           65.58836620209493        4.60650606159386        3.90568947731084
H           66.32370185553542        3.02253972016047        3.64099122088161
H           64.47148497760016        3.23994914226333        7.19645575800086
H           65.24980288323069        1.55707792645525        8.84760599656348
H           66.17909161593253       -0.58498698762290        8.07141930063232
H           66.30370534499997       -3.37735491611976        5.67299623043201
H           66.87146259930675       -2.54735211828610        7.12620033890630
H           65.12709426466775       -2.51453930295124        6.67554049719741
H           68.16395806117326        0.85614858950462        4.36920124102172
H           69.88707133476701        0.53243708659557        2.44256793753003
H           64.44571415509141        0.51220265768912        0.82534353508903
H           64.42842377992494        3.46534839662236       -5.24705959162419
H           65.12373175433689        2.96889747208725       -3.69466425716552
H           63.81066088001391        2.02635965849926       -4.41866033401174
H           65.49366965820968        1.54123578880135       -7.81846922697704
H           64.83992967249027       -0.53060885680507       -9.00793917604518
H           64.35420899391862       -2.57457869037687       -7.73353710806615
H           64.21232201039938       -4.38077608182936       -6.33142279147635
H           63.36460847976296       -4.50447378622891       -4.78463277183152
H           62.71341803887928       -3.43254970026546       -6.03434189791572
C           30.47557379315412        0.02616090879994       -0.03134698944932
C           31.82131121451248        0.00534415118993       -0.04875395354916