237
 energy: -371.519884013140 gnorm: 0.000793129960 xtb: 6.5.1 (b24c23e)
Fe          27.87295341386976        0.00723082746701        0.00341726840582
C           24.47292269621855        0.11150414195859       -0.09973996003744
C           25.13707551420208        1.20863684224122        0.40851668831699
C           24.47255627328467        2.36925695363562        0.92138263226685
C           25.44151111354833        3.22658287682018        1.32011734178847
C           26.69617226677211        2.58873839734969        1.04511179562249
N           26.49737582272424        1.35414663662850        0.48826782572640
C           27.92703163763868        3.17862932158048        1.29733308825853
C           27.95202680011648        4.54642811888858        1.88774370571566
C           27.90586845662435        5.66759116120826        1.05412310381266
C           27.82609507748735        5.49139408980089       -0.43881534012690
C           27.93485165813885        6.93804049511400        1.61703347242886
C           28.00773398372371        7.10772005851134        2.99591781157365
C           28.06141772226499        8.48879316505070        3.59117405315384
C           28.05222258288904        5.98458934635235        3.81539530825771
C           28.02480569441694        4.70441783207642        3.27469998665404
C           28.07419205334630        3.49305913386800        4.16715173748803
C           29.13481192870585        2.55645942455928        1.02770356122529
C           30.40771134037531        3.16290417607789        1.28056808311059
C           31.34871175866174        2.26025615529292        0.91395556810754
N           29.29867162793217        1.29755329639859        0.49982071710055
C           30.64772774705782        1.10791440276946        0.43879595243651
C           31.29569819619658       -0.04406845601120       -0.02124290096163
C           30.60667809387815       -1.17426727865436       -0.47528603822666
C           31.26510057176285       -2.36496785955838       -0.91523257160267
C           30.29202626432263       -3.23689414158435       -1.27264343862373
C           29.04239946981067       -2.57185295413474       -1.05318990560467
N           29.25209217470099       -1.30478523888120       -0.56251899814020
C           27.81322427866829       -3.14692599657585       -1.33114070978469
C           27.78727552796406       -4.52929218769684       -1.88656453402211
C           27.88148477418750       -4.72612274010473       -3.26791042241086
C           28.00422349742330       -3.54141893701521       -4.18859298494026
C           27.86182209874563       -6.01907241762402       -3.77540791931634
C           27.75057880181462       -7.11850309858743       -2.92871101219110
C           27.72361098247313       -8.50985031215859       -3.50155222764097
C           27.65529179587617       -6.91033174128929       -1.55762096542091
C           27.67262815632514       -5.62493061058020       -1.02707043937904
C           27.57216921119728       -5.40737364795162        0.45916356355017
C           26.60562798023534       -2.49505146902186       -1.12318046771852
C           25.32990730824014       -3.07796662537374       -1.42225119205933
C           24.39313885518615       -2.16138146964412       -1.08292385078128
C           25.09815500203306       -1.02261590166182       -0.57515408651504
N           26.45174206752717       -1.23285323185212       -0.61600445531328
H           23.38921667997873        0.13866631323125       -0.11856584793581
H           23.40181458962352        2.49096060918115        0.96473062124488
H           25.33633549270212        4.20439934405370        1.76203253817720
H           26.90995356824859        4.96272883565174       -0.70909157676780
H           28.67040912561535        4.89943156621999       -0.79677190932215
H           27.83449521443321        6.45589459116176       -0.94561170836784
H           27.89938982544864        7.80866439868222        0.97031541893442
H           27.64182264859809        8.49528870625013        4.59739010999025
H           29.09875615764445        8.82606239591063        3.65344215976620
H           27.51098500544767        9.19945652301581        2.97413704049396
H           28.10808862179999        6.10735025844689        4.89208826337028
H           28.97619588557886        2.91186114314095        3.96570616115382
H           28.07385151195575        3.78291285542802        5.21744220560169
H           27.21366538091606        2.84813825692711        3.98033344417853
H           30.54594618783602        4.15182192968830        1.68677433709083
H           32.42222915771985        2.35007482022924        0.95656199238979
H           32.33440443940564       -2.50083987382531       -0.93785068952388
H           30.39402528903234       -4.24147049678250       -1.65015874082926
H           27.16211249339338       -2.86165022524092       -4.04654677819824
H           28.02656075406101       -3.85886991941452       -5.23063472609398
H           28.91980359757018       -2.98747751394263       -3.97246680973125
H           27.93581443523603       -6.17342603771601       -4.84695618351140
H           28.53940351006979       -8.64651405596182       -4.21303540908589
H           27.81520980269831       -9.25860886251360       -2.71487111773898
H           26.78372083491525       -8.67910581356647       -4.03132174067746
H           27.56799814997703       -7.76074032518599       -0.88932191640470
H           26.68380112972504       -4.81898685035020        0.69660007256024
H           28.44269653643519       -4.85758968820952        0.82173272282089
H           27.51282815750816       -6.35780753636310        0.98861710605060
H           25.18978062541734       -4.06262640819962       -1.83853107048536
H           23.31952918294564       -2.23174233697269       -1.15768390112367
Fe          65.03726562165421       -0.02028448427061       -0.03551671675135
C           68.43607689722066       -0.03413335658356       -0.16137460063609
C           67.77056686070401       -1.19048579772872       -0.51351625306121
C           68.43110947709164       -2.40484551457659       -0.88855060668578
C           67.45982943464733       -3.29208561305217       -1.20911955778381
C           66.20775168454045       -2.61468291240022       -1.03565968932656
N           66.41047391300066       -1.33392322092781       -0.59681007273784
C           64.97863425624371       -3.18147267576779       -1.34340411155257
C           64.95047088413727       -4.57441285153305       -1.87142497483327
C           65.07078328162395       -4.80546601712667       -3.24462970071385
C           65.23215548083853       -3.64550906692803       -4.19051066277042
C           65.03913383647070       -6.11043526537810       -3.72237360809950
C           64.89157433351529       -7.18657406730090       -2.85337959482369
C           64.83657962833612       -8.59369116489106       -3.38402046997387
C           64.77382708341797       -6.94427433775086       -1.48852676801042
C           64.80186565452074       -5.64791639934062       -0.98836369835103
C           64.67383775414822       -5.39241889186779        0.48967434186160
C           63.77561579791270       -2.51361360713470       -1.18221274756921
C           62.50489183935856       -3.08088143150120       -1.52170814547564
C           61.56538446133785       -2.17074802945971       -1.16937701611276
N           63.61312466990551       -1.25670669189508       -0.64931061161826
C           62.26472113770603       -1.05424289145403       -0.61311163459059
C           61.61723648157916        0.05271836096593       -0.05297505762808
C           62.30839506898371        1.13152273967466        0.51012766544095
C           61.65507021143316        2.25229569257944        1.11173150464594
C           62.62949566139234        3.12063222184011        1.47495367561085
C           63.87497422606945        2.52618377874662        1.09111419696825
N           63.66199324669349        1.29769707892929        0.51221790881013
C           65.10079114473913        3.15430374326387        1.24020153222610
C           65.12954560901944        4.52660482331596        1.81972001515850
C           64.97984707413923        5.63767403627405        0.98380440512496
C           64.79090482152803        5.44341429470047       -0.49700316067919
C           65.00705027299279        6.91317363545336        1.53347962114104
C           65.17953873580331        7.09888535416806        2.90227078109015
C           65.21702257497596        8.49016524831895        3.47466506286817
C           65.32795622212271        5.98684084712403        3.72315281625137
C           65.30482479329876        4.70062271093329        3.19495213446100
C           65.46398505679602        3.50074066534616        4.09006979162491
C           66.30335322602939        2.56746629769629        0.87128286776385
C           67.57641314718906        3.21308483559247        1.01026523044426
C           68.51255973656617        2.31966947056417        0.61223394562195
C           67.81013746929331        1.13023682347302        0.23316031971813
N           66.45732551167521        1.30271256515755        0.37034333660585
H           69.51992812430154       -0.04448565790638       -0.18623792109404
H           69.50100500463068       -2.54059692058770       -0.89796183174769
H           67.56212963068478       -4.31339985088849       -1.53921145577248
H           66.14301625809128       -3.09079141525466       -3.95726606697175
H           64.38963499710795       -2.95809882862586       -4.09501001162754
H           65.28791553181777       -3.98974383084265       -5.22276858342264
H           65.13210733084250       -6.29016580608502       -4.78845628227529
H           65.23846786404201       -9.29919728751534       -2.65635790167905
H           63.80047442086018       -8.87242173505810       -3.59015979619047
H           65.40241295176779       -8.68207756541388       -4.31170963101046
H           64.65954860226161       -7.77780465027480       -0.80322590296806
H           63.77999260082967       -4.80013346133435        0.69492921701878
H           64.60611870349381       -6.32896077867295        1.04232983821162
H           65.53625294726423       -4.83130989233029        0.85413972681850
H           62.36672880663476       -4.05274715234087       -1.96726755089903
H           60.49333682641679       -2.23760656713666       -1.26217610816472
H           60.58774762119876        2.34780930693924        1.23055450884704
H           62.53087403854832        4.07970482070154        1.95724563435374
H           65.62643124195195        4.87920368454681       -0.91535613779601
H           64.72384386459601        6.40229875623202       -1.01001778352594
H           63.87700767407095        4.87862057236118       -0.69095412777054
H           64.89090222433298        7.77626941977546        0.88610436649570
H           64.39528819164562        9.08941836105803        3.07991097075516
H           65.14468210584540        8.46781663222593        4.56195079236637
H           66.15324429239386        8.98198628669827        3.20175461891196
H           65.46257750642326        6.12115627093454        4.79145520503231
H           66.34700376006981        2.92743466049047        3.80132981130404
H           64.59663941895090        2.84388826279757        4.00164240669128
H           65.56940584410165        3.80311077472667        5.13151455842984
H           67.71565350285893        4.21938842949252        1.37146432875545
H           69.58456839979401        2.43301796646767        0.57856407582703
C           32.69733667318297       -0.06785179577536       -0.02009103797540
C           33.92297496602660       -0.08160073463650       -0.02245762235432
C           35.26354628153601       -0.09286181739118       -0.02133866018186
C           36.49555276817083       -0.09538720398573       -0.02518734118550
C           37.83128729367539       -0.09718136978110       -0.02389973871836
C           39.06336573022785       -0.09390785449808       -0.02152354237207
C           40.40367947408268       -0.08970871810074       -0.01968614197755
C           41.62964114801080       -0.08286431308687       -0.01486346743000
C           51.28275170438600        0.06419027821549       -0.02082464847292
C           52.50849056293546        0.08145887423254       -0.02225957476938
C           53.84911266500263        0.09440091689526       -0.02210955712967
C           55.08095661152805        0.10817641378989       -0.02986547534876
C           56.41707219175693        0.10821293345600       -0.03321975317271
C           57.64889753884476        0.10367370815733       -0.04178412629853
C           58.98985511951163        0.09326196924511       -0.04372001368806
C           60.21529741375826        0.07539375538049       -0.04389919365888
Fe          46.45688615284208       -0.06836079289419       -0.00871439548225
C           43.03044731170061       -0.07079070752663       -0.01374424562477
C           43.69818322355526        0.20906353112481        1.18473501454350
C           43.01914096942513        0.47370587936746        2.41467122748189
C           43.97564568640538        0.59568374546871        3.36678737689036
C           45.23443820561551        0.40847723882116        2.71055125936060
N           45.04953499161358        0.19773699440589        1.36581575555284
C           46.45053714949782        0.39870563842050        3.37672750028848
C           46.44491842852158        0.56512010655450        4.85720620458891
C           46.57005160375620        1.83933245605463        5.41773574024009
C           46.71379180837994        3.04234145201130        4.52433507495756
C           46.55746538908950        1.98044398413123        6.80053813195035
C           46.42210351874944        0.87293047669031        7.63107576379336
C           46.42795029599862        1.03472965117734        9.12710141981775
C           46.30066865138846       -0.39054841611880        7.06134866295051
C           46.30962674619619       -0.55587691825576        5.68154976926095
C           46.17387127145872       -1.92540893718492        5.07153940431603
C           47.67014577460759        0.24161906095128        2.73577641036906
C           48.92777814936052        0.23653311382090        3.42022105188345
C           49.88793536747401        0.14605436827695        2.46813400259878
N           47.86003109680821        0.13827658245820        1.37931823479422
C           49.21195126231248        0.09229790108881        1.20958929851929
C           49.88167293808251        0.04077031995254       -0.01902227049689
C           49.21096831292363       -0.04214085818196       -1.24517493776525
C           49.88589954041516       -0.08694500778095       -2.50471318918105
C           48.92813610976954       -0.22939164567352       -3.45269534284729
C           47.67299986807630       -0.27358142047894       -2.76491905211596
N           47.86050888362605       -0.13122918958198       -1.41152461209212
C           46.45988727572140       -0.48984268925747       -3.40078669447093
C           46.46029873891359       -0.68625825932478       -4.87758508578531
C           46.26508852576395        0.40878358266235       -5.72443928385821
C           46.05906106804144        1.78182981748699       -5.14267670349622
C           46.26462131902939        0.21506871347102       -7.10064996731525
C           46.45315102657760       -1.05137375668030       -7.64468762613351
C           46.46872927532820       -1.24403973241348       -9.13697442422598
C           46.64727203688592       -2.13302804449243       -6.79185893084301
C           46.65287074572275       -1.96325986525549       -5.41231726539077
C           46.86002700541631       -3.13873781965920       -4.49499227312840
C           45.24546985105489       -0.53179302320481       -2.73260037488723
C           43.99292002949535       -0.77304230350513       -3.38309936181869
C           43.03306526101415       -0.65641555538121       -2.43354048731053
C           43.70417498738155       -0.34580651442437       -1.21009947407113
N           45.05375294476848       -0.28847758659004       -1.39452729401498
H           41.94860788654816        0.54421193094253        2.52082074982031
H           43.85570640059512        0.78972753922008        4.42033599405819
H           47.61683947809322        2.95688772121051        3.91690635797216
H           46.77347066315874        3.95823743707192        5.11139834329731
H           45.86156604706989        3.11527465944462        3.84617326866200
H           46.65225041691951        2.96980370961564        7.23593444948642
H           47.44373776696047        0.91210600359891        9.51015223207098
H           45.79501904463224        0.28384580821346        9.60083512877824
H           46.07465242390330        2.02570136330713        9.41276323348020
H           46.19486716026964       -1.26011194691327        7.70172831160541
H           45.27815327981503       -1.97554289726960        4.44945102124031
H           47.03379432441807       -2.14477608621875        4.43600540879323
H           46.10526484327039       -2.69052860588994        5.84418637145142
H           49.04439086835832        0.29865527731757        4.49007833612755
H           50.95871929657402        0.11828730855871        2.59039841673137
H           50.95466689377126       -0.02134162960050       -2.63007336291578
H           49.04495033650709       -0.30475587530459       -4.52167002777059
H           45.16798530804952        1.79646984831336       -4.51221574568486
H           45.94098429458006        2.52468379514741       -5.93092863581169
H           46.91167235542316        2.06220766824905       -4.52137535528216
H           46.11278899831608        1.06463481929721       -7.75837217195549
H           46.14052579426365       -2.24911097408509       -9.40278591310707
H           47.48298776149527       -1.10566073398163       -9.51874982469716
H           45.82004583350394       -0.51880596357973       -9.62887822207356
H           46.79460219064288       -3.12456335307561       -7.20724225432832
H           46.97618376388605       -4.06063329011707       -5.06394253896565
H           46.00889947742096       -3.24782946417735       -3.82024974797183
H           47.75261883551578       -2.98992717839097       -3.88436957934360
H           43.87903677183454       -0.99863937198392       -4.43103121195559
H           41.96532870406550       -0.76390501261556       -2.53685472169626
