310
 energy: -541.540762852044 gnorm: 0.000873799581 xtb: 6.5.1 (b24c23e)
C           66.71675596542042       -0.04342876643193       -0.06903978922707
C           67.31972404702775       -1.28953782354710       -0.18039353096664
C           66.66137501524170       -2.54314082152527       -0.32541951138065
C           67.61820786028292       -3.51581032505057       -0.39529445345860
C           68.89217565688199       -2.88860014739569       -0.28222314518373
N           68.66139116779628       -1.54768145345830       -0.16510011153616
C           70.15312497296213       -3.49534057916071       -0.30855773745041
C           70.18089803116401       -4.97166190483737       -0.43091761803107
C           70.80931205159844       -5.57696156651434       -1.52393571236433
C           70.83572988224326       -6.95311330298886       -1.63999223439956
C           70.23841782667277       -7.75745010171812       -0.66364491264490
C           70.28526561372145       -9.22398514174784       -0.80785402028267
O           70.81585693379367       -9.78869044859124       -1.72987941681029
C           69.61095116572615       -7.15443417198995        0.42903903169131
C           69.58027139339869       -5.77574354639107        0.54190401212768
C           71.37250599164715       -2.81667567200466       -0.23031483225465
C           72.66542169234508       -3.47665963765837       -0.19314486053458
C           73.59085719763472       -2.49859909206376       -0.11571775865012
N           71.53405051549798       -1.46762900101082       -0.15525727674792
C           72.86334828729620       -1.24415722375418       -0.09560653426144
C           73.50582341488276        0.00836172843711       -0.05140297313727
C           72.87704764756349        1.26678197956651       -0.02101330997332
C           73.52679006276556        2.52925397940063        0.00262256239700
C           72.56508431870145        3.49949558658438        0.05769223926192
C           71.29624379585817        2.85711496331995        0.08367036832791
N           71.53627931356635        1.51032774638841        0.02154095177280
C           70.03660905169036        3.46480637460036        0.13893739692135
C           70.01431903777579        4.94263674048364        0.23145381011457
C           70.62476299843651        5.59435413950906        1.30799554311286
C           70.60618350962835        6.97304771525233        1.39129910210562
C           69.98094651225136        7.73388423327765        0.39779301435707
C           69.98252298683710        9.20414333403509        0.50587968713316
O           70.50600833038072        9.80775084397552        1.40719941250701
C           69.37006339614240        7.08451810076634       -0.67777047424054
C           69.38502202191015        5.70352815637344       -0.75818232661706
C           68.81593665673756        2.78129522715377        0.11933808963672
C           67.51543337096152        3.42239625918677        0.24092929751740
C           66.59730090017854        2.43723826073312        0.18246219352671
C           67.33572877161420        1.19490913936811        0.03674764617422
N           68.66900885131511        1.43987125119920        0.01261747180162
H           65.63145052738965       -0.04744711365717       -0.06751257091170
H           65.59176032317745       -2.66943809656887       -0.37662965314012
H           67.46142023288745       -4.57456923307888       -0.52304255199704
H           69.39082885978920       -0.84718353277314       -0.08454636218379
H           71.26207257111466       -4.95607259318069       -2.28865643996521
H           71.31689796019923       -7.42972711087553       -2.48730769910059
H           69.78696915562972       -9.77941315316351        0.01514063355799
H           69.14864843099026       -7.77078772267092        1.19325255701254
H           69.10610471231327       -5.31210549459136        1.39971564312598
H           72.82235016758455       -4.54289148391544       -0.21005055899549
H           74.66383027162382       -2.59302135514959       -0.07499732682924
H           74.59518617530006        2.66980445799143       -0.02089813494624
H           72.71896389570919        4.56606104240572        0.07117563972841
H           70.81002585158794        0.80166166072470        0.01134010877472
H           71.09720936431380        5.00780895319000        2.08792749564672
H           71.07284695353496        7.48507460878526        2.22599986780164
H           69.45641795670282        9.72316605083900       -0.32344700155454
H           68.88550220154963        7.66708695164547       -1.45455281661439
H           68.92364676590016        5.20351293305687       -1.60227906574336
H           67.35272832451585        4.48049507149104        0.36822909000974
H           65.52265759926550        2.51120082759064        0.23865480423161
C          117.01513387992692        0.01675071087891        0.02768853153712
C          116.41433746912675        1.24973702216970        0.24557636812966
C          117.07586820258274        2.49445229921879        0.44389968398189
C          116.12122956715093        3.45501340549927        0.62369521799417
C          114.84511302424328        2.82617754300044        0.55012004499436
N          115.07294755005057        1.50054126593006        0.31375107266027
C          113.58559776953572        3.42652220445700        0.65849357261176
C          113.56172621032512        4.88102597724007        0.93964901968976
C          112.96164294786116        5.76848967195651        0.04094918356701
C          112.93641626338514        7.12330923619139        0.30986881183742
C          113.50639365414453        7.62253465599924        1.48578865724278
C          113.46012849454054        9.07149804106889        1.75397766724535
O          112.95419363262788        9.87375257926791        1.01179535582440
C          114.10693898465806        6.73725710411991        2.38413191216279
C          114.13679726496973        5.38126017441794        2.11146796243236
C          112.36506483908522        2.75724921377350        0.53052876775951
C          111.06946680358328        3.39134724205917        0.70002518374136
C          110.14536652668269        2.42557921662549        0.52031355598505
N          112.20643881959052        1.43142550398072        0.27132379394367
C          110.87677229040543        1.20152024116512        0.25348454023421
C          110.23770841263476       -0.03392445896128        0.04141689375345
C          110.86138032349494       -1.27492777948997       -0.17471626832099
C          110.20565068158267       -2.50823474494529       -0.43406950420768
C          111.16387563162917       -3.46452433447152       -0.62420901831828
C          112.43637743370525       -2.84577341058083       -0.47500482694066
N          112.20155975993795       -1.52350824038726       -0.20781490586544
C          113.69553571018878       -3.44097888490921       -0.61159433875440
C          113.71982986553658       -4.89046365308752       -0.91367808972015
C          113.14144965408364       -5.81208942516506       -0.03511057664246
C          113.16128579377786       -7.16220695483227       -0.32713970361402
C          113.75539306390031       -7.62295666065114       -1.50680800230116
C          113.75596258051007       -9.06777327472751       -1.79957592478436
O          113.26188144696552       -9.89667192852579       -1.07881965414376
C          114.33457196513366       -6.70369700828184       -2.38497755188089
C          114.31867014187948       -5.35243026453471       -2.08959528187086
C          114.91603034935248       -2.76723188835599       -0.48964210428095
C          116.21811770575005       -3.41225454120807       -0.56486419993214
C          117.13582518957399       -2.44208314878917       -0.38183611336337
C          116.39593197391774       -1.20722222252025       -0.18755143908919
N          115.06224804553725       -1.44288397014552       -0.25096810011358
H          118.10048036713967        0.01960562818664        0.02704034697829
H          118.14619328559614        2.62504064034461        0.44040635997913
H          116.28048636227632        4.50914289077391        0.78288812758655
H          114.34143172139943        0.80709484951910        0.19814944971390
H          112.52985980862459        5.38634439492933       -0.87707029430220
H          112.47657117566084        7.81857394150525       -0.38421560705068
H          113.93448137250932        9.37283602384386        2.71232785713213
H          114.54837756426245        7.11540397600519        3.30053722018373
H          114.58970467602664        4.69537355575081        2.81865393558175
H          110.90978197462039        4.43003942448520        0.93949435451061
H          109.07141812611218        2.50592139716043        0.57189997792527
H          109.13608214503739       -2.63573926135231       -0.47970209037719
H          111.00544677194814       -4.50423794691848       -0.85942216810137
H          112.93106436255665       -0.83047454972853       -0.07623383413219
H          112.69339334289073       -5.46080498566274        0.88756629988154
H          112.71935310453341       -7.88355845233608        0.35182786183057
H          114.25410512107469       -9.33921829872862       -2.75470943364916
H          114.79492201139004       -7.05193445077304       -3.30389802293687
H          114.75515393000988       -4.64017305417217       -2.78067631515795
H          116.38202439843617       -4.46653560305574       -0.71949589774821
H          118.21128563045067       -2.52370699838727       -0.36666989489838
C           74.91596887945528        0.01843557282807       -0.03820513732445
C           76.13258739810807        0.02949388171529       -0.02235085669327
C           85.81305604633187        0.02365185749086        0.02478121310384
C           87.03064510146079        0.01465340631854        0.02724687399890
C           96.71530059881587       -0.04581434434805        0.00881293094582
C           97.93351595531290       -0.05158880612716        0.00719724215023
C          107.60964969774739       -0.04718740948625        0.03770571460832
C          108.82544700993932       -0.04260959129743        0.04174004149942
C           77.54190483465489        0.03450419869512       -0.00825766610534
C           78.17016515424083        1.14786575197706       -0.59661738336997
C           77.52780324414267        2.23382719535788       -1.24554514747903
C           78.49416589267523        3.10871947281843       -1.66086118472901
C           79.75621323071594        2.58455227891439       -1.26977512929370
N           79.51072871263699        1.39275238155018       -0.64310956008096
C           81.01676790650392        3.15662855077805       -1.48396075470029
C           81.03824872089581        4.48412584155326       -2.14162259233229
C           81.70758786225218        4.65572147510308       -3.35772129599173
C           81.72746589363217        5.89086413976174       -3.97566513218113
C           81.08341209355683        6.98581188142935       -3.38988228490012
C           81.12435101168003        8.29497712143618       -4.06721218021047
O           81.68728102263860        8.48835817402716       -5.11409375368767
C           80.41646857406010        6.81680816093219       -2.17418040405889
C           80.39190647159491        5.57788555249914       -1.55864395552168
C           82.23960225006756        2.57949682614425       -1.13493246706949
C           83.52021255416022        3.24669812554710       -1.28668253985627
C           84.45717782882629        2.37417895507904       -0.86169635192165
N           82.41844358403060        1.33909255471366       -0.60388248881621
C           83.74878908044153        1.17902421395361       -0.44897017378743
C           84.40550812683173        0.02559907355714        0.02415213386497
C           83.77599614322240       -1.14024485338070        0.50107937868105
C           84.41733763192798       -2.33164674698331        0.92715702153568
C           83.45054781174943       -3.20637687701238        1.34155781759747
C           82.18910526828060       -2.57036138410296        1.18507690648830
N           82.43534160499667       -1.33106632864745        0.65854700461864
C           80.92911830847653       -3.09808673268066        1.49522928969633
C           80.91471965019751       -4.43666042721102        2.13006572404261
C           80.25140484216200       -5.50331691588384        1.51647764436259
C           80.24323043130593       -6.75558895585305        2.10442493750152
C           80.89499962914093       -6.96590881996033        3.32197706349475
C           80.90342187822819       -8.29071928346598        3.96932981906023
O           81.46056953082368       -8.52139036166389        5.01182905348209
C           81.55496347232763       -5.89798146359043        3.93893840643620
C           81.56700654662791       -4.64901253604071        3.34889799751370
C           79.70523688785738       -2.46886506343029        1.25793853731712
C           78.42285729039489       -3.01189233124395        1.66934327237668
C           77.48563890515415       -2.13864875308677        1.24687826606511
C           78.19612951724679       -1.06160935782202        0.58612772775133
N           79.52752371021708       -1.27705715860212        0.62567048120716
H           76.46268273221104        2.32277925816367       -1.38463263072927
H           78.34722618403337        4.02932335924585       -2.20154842495141
H           80.22872007789258        0.77664563733001       -0.27685056344686
H           82.19724524094532        3.80616788100416       -3.82011894404772
H           82.23955577848164        6.03020535599637       -4.92170955989698
H           80.58611639422388        9.10414570508455       -3.52906688599837
H           79.91805875499404        7.66182596978166       -1.71039185467465
H           79.88628065495963        5.45468293669140       -0.60742796530941
H           83.66077344762076        4.25184461262017       -1.64964790677787
H           85.52521619462253        2.50993961009861       -0.80855392587870
H           85.48180499086949       -2.49773905023816        0.90581447630714
H           83.59690160678495       -4.20835115031364        1.71029995059036
H           81.71787346966782       -0.65616562609729        0.41585108971906
H           79.75697121784255       -5.34679837861104        0.56442832750777
H           79.73145765586207       -7.57922146387273        1.61735448338015
H           80.35211487670226       -9.07582755448339        3.40936249404630
H           82.05362720426439       -6.06878665366145        4.88699670816492
H           82.06727308401220       -3.82040881300453        3.83747300814931
H           78.28127924573448       -3.92627106006511        2.22220311949995
H           76.41636821136309       -2.18858848758718        1.37354599710759
C           88.43784903445331        0.00954482540585        0.02544552535347
C           89.07038660904362        0.92860751907590       -0.83381801016704
C           88.43530153743630        1.80952683932336       -1.74638123100801
C           89.40486298524866        2.56392065818726       -2.34887569073165
C           90.66124250967415        2.16939804327054       -1.81418999581252
N           90.41025531126040        1.16396368670344       -0.91972836153406
C           91.92049438092899        2.70268946197845       -2.11738953345288
C           91.94712361738176        3.85456765289266       -3.04773867373628
C           92.67658147084275        3.77989261291349       -4.23902607322975
C           92.70373858832161        4.85174747597092       -5.10970220313433
C           92.00599337003568        6.02618647048585       -4.80863366168686
C           92.05724174819693        7.15852030574113       -5.75216259220752
O           92.68086447832709        7.14160263233611       -6.78214272389141
C           91.27806421210077        6.10323337955416       -3.61893628253454
C           91.24738271785563        5.02751956916970       -2.74935447582531
C           93.13904924977629        2.23733762688577       -1.61738781764217
C           94.41318051510842        2.89009997818179       -1.85725974154722
C           95.35020126738978        2.12902495445119       -1.25470172966830
N           93.32012193831173        1.12385919954770       -0.85589228147975
C           94.64888586134138        1.01554983669612       -0.64891567607219
C           95.30817348573069       -0.03978324053897        0.01367686615717
C           94.67194915789548       -1.10112931825679        0.68758823844279
C           95.30134533036230       -2.21325894358381        1.30208852140853
C           94.33139380415841       -2.97075046084551        1.90026984446402
C           93.07975647414219       -2.33813476933900        1.67131104502459
N           93.33316073445749       -1.22669194890973        0.91373785234696
C           91.82278938492645       -2.75089664126571        2.13386213703463
C           91.80538965056009       -3.92355925186456        3.03798260888762
C           91.06703634378887       -5.06283737214281        2.70369374421389
C           91.05340362325951       -6.16179015173216        3.54388145412555
C           91.77584711218725       -6.14291865334805        4.73929741621812
C           91.78176729788305       -7.30178253659724        5.65145690175035
O           92.40140911708875       -7.33594856873104        6.68340267488109
C           92.51134611223806       -5.00197627273271        5.07692484192035
C           92.52784064159148       -3.90649561212616        4.23568350624769
C           90.60438352045678       -2.14868209062931        1.81355146547388
C           89.33045117140129       -2.53813597070378        2.39096369330134
C           88.39323523091612       -1.76685897040721        1.80173377560116
C           89.09558032298550       -0.90540466335182        0.87186681845028
N           90.42319991422015       -1.13710255352152        0.92093474072475
H           87.37324426874230        1.84824894372333       -1.92437282893557
H           89.26364062395250        3.31792026195804       -3.10578569585116
H           91.12462191110185        0.66395950987810       -0.40131557756192
H           93.20755377460054        2.86631053917343       -4.48141411845057
H           93.26298244827677        4.79922833335965       -6.03766764470750
H           91.46864511723615        8.04500693366643       -5.43366789252953
H           90.73762513147436        7.01208721702695       -3.37508791758007
H           90.69531543149866        5.09799715324342       -1.81880640511205
H           94.54911558089164        3.81467765665183       -2.39438056204569
H           96.41344678637491        2.29492755669037       -1.19796859840193
H           96.35988978963708       -2.41152147344519        1.27652703978190
H           94.46934231269083       -3.89283155524236        2.44070845352567
H           92.62234340410278       -0.58923414539226        0.57105428565263
H           90.51795522635733       -5.08658743418512        1.76916254176423
H           90.48248726913238       -7.04384591303317        3.27263854022360
H           91.16153969035854       -8.15658217208778        5.30743956683827
H           93.06486573973470       -4.99377166453154        6.00976727883109
H           93.08650971477465       -3.01834074044236        4.50891086080255
H           89.19470174385553       -3.28480197857710        3.15642164717716
H           87.32960948487236       -1.75235467729598        1.97631237919683
C           99.34076073241268       -0.05111128478907        0.00723398537251
C           99.97315343572103        0.83132405450097       -0.89075060626925
C           99.33997846120043        1.66103406199583       -1.85122011965878
C          100.30680759895533        2.40437423647027       -2.47114603303952
C          101.56072842252608        2.05323281875432       -1.90142130514652
N          101.31085322179500        1.08277899840191       -0.96854485063049
C          102.81583852600285        2.59008033563380       -2.21485170616509
C          102.83476055147113        3.70223264740012       -3.19279573949937
C          103.56312469147778        3.58443724387307       -4.38104366161975
C          103.57775117677920        4.61882114321643       -5.29636187980330
C          102.86927754283633        5.79811893742256       -5.04343523068591
C          102.90374392470153        6.88849431854585       -6.03602900556495
O          103.51467209040494        6.82933243463830       -7.07200635529140
C          102.14386743153089        5.91880691587077       -3.85584588553879
C          102.12455110337767        4.88004091675741       -2.94216513584792
C          104.03524706533551        2.15677377638221       -1.68824617539336
C          105.31159567943067        2.79251089867646       -1.96475688861428
C          106.24903260223314        2.05865326126001       -1.33041665533193
N          104.21384147643951        1.08369637115718       -0.87263815252596
C          105.54363715936911        0.98246796711492       -0.66241834944340
C          106.19863403357552       -0.04921778352824        0.03373850414742
C          105.57281346814872       -1.09682705083610        0.73247770139796
C          106.21594002089965       -2.16101551936692        1.41654932298400
C          105.25102063280492       -2.90666545173316        2.03696900241643
C          103.99051606756660       -2.31104014441359        1.75803355305094
N          104.23340900218180       -1.23725291045598        0.94585382837818
C          102.73427756669962       -2.71250346420815        2.23091456888624
C          102.71702499246187       -3.84282724055034        3.18782432472699
C          101.99324829234850       -5.00309915941613        2.89711175285358
C          101.97635364424217       -6.06119032694289        3.78820444742411
C          102.67989757258731       -5.97867796476491        4.99218176615748
C          102.67856862970798       -7.09108429494768        5.96052928429926
O          103.27799569158977       -7.06788134512301        7.00466703615593
C          103.40121179605590       -4.81672002496882        5.28561769279512
C          103.42177687429984       -3.76247021923324        4.39327185974596
C          101.51471942899011       -2.12793544823579        1.88261190862464
C          100.24261098934494       -2.49410755156648        2.47860918728296
C           99.30412268885455       -1.74584787702202        1.86261354601319
C          100.00259719165953       -0.92368119126986        0.89529876860952
N          101.33049698734700       -1.15321731145547        0.95019210933287
H           98.28117789119445        1.67337361291192       -2.04939416523120
H          100.16591755154111        3.12264607749172       -3.26210821495800
H          102.02401179676394        0.61800659058868       -0.41681876563699
H          104.10214259942805        2.66649827753426       -4.58629375467223
H          104.13505482989267        4.53228062241443       -6.22293103040917
H          102.31485550522181        7.78544869390115       -5.74904725577890
H          101.59522502316904        6.83195448165762       -3.64918316104919
H          101.57238918477890        4.98336823339863       -2.01473651910717
H          105.44820234521073        3.68599033654311       -2.55197312180986
H          107.31592259923485        2.21132501986861       -1.30007122897728
H          107.28097405471776       -2.32785002787905        1.42817543237589
H          105.39770676781716       -3.79450552227662        2.62996933765581
H          103.51644548715254       -0.62586368689045        0.56988619988372
H          101.45733790975008       -5.07523588075048        1.95740826707139
H          101.41663535216706       -6.96008417410145        3.55105852852655
H          102.07369157972626       -7.96831122341156        5.64711606096794
H          103.93991251477836       -4.75902807875558        6.22536390543130
H          103.96864652935658       -2.85723778316747        4.63208757499998
H          100.10896143550853       -3.21023596121006        3.27305826302545
H           98.24177977705054       -1.72232303292952        2.04206153742239
