252
 energy: -416.089170977412 gnorm: 0.000379442464 xtb: 6.5.1 (b24c23e)
C           35.95394923182867        0.07286344506627       -0.00905428455135
C           36.56155401063378        1.24446853984048        0.42282985446586
C           35.90865680230838        2.42848681210644        0.86676731719299
C           36.87056994471051        3.34129299788342        1.19661471874892
C           38.14293378743236        2.74848491805307        0.95499619787590
N           37.90489518118270        1.48235807435193        0.49937144512430
C           39.40477467085238        3.31852523782843        1.15489934175001
C           39.43436355048058        4.72313995764767        1.63260224381955
C           38.90871868487675        5.72325444300230        0.90942909914389
C           38.90761934104751        7.15347161219332        1.38313869498332
N           39.83859664445828        7.34498097137995        2.49839654205304
C           40.19881135349344        6.29323855192387        3.29938013269991
C           40.05935927178447        5.01207735510489        2.91505354167846
C           40.62150567304192        2.66689765555780        0.93742239241529
C           41.91733765264799        3.29931402220506        1.10710802208412
C           42.84198672039629        2.36828203202935        0.79402624140214
N           40.78067686484125        1.38190546858153        0.51738785448029
C           42.11023677474255        1.17077645677000        0.42789113649801
C           42.75010295005600       -0.02430275235353        0.04361596189200
C           42.11533914121448       -1.21740968102356       -0.35052873091164
C           42.75948251672198       -2.43100264647263       -0.70974450111676
C           41.79245515449727       -3.34332135020753       -1.02970183020799
C           40.52650411535000       -2.71168056300577       -0.88387180451381
N           40.77379183723578       -1.43016836564879       -0.46602734497231
C           39.26585429850122       -3.28040025328068       -1.09612807001282
C           39.23842095872983       -4.68974317203782       -1.55637092105624
C           38.64799678466877       -5.65324368040280       -0.83331902573761
C           38.59007018527392       -7.08772304220056       -1.28933026574971
N           39.55492862444518       -7.34265598175027       -2.36254001878487
C           39.98132831755475       -6.32261663928244       -3.17286321516842
C           39.88588863031148       -5.02968194713460       -2.81570110444886
C           38.04827157082441       -2.61796506706200       -0.90741868071354
C           36.74657584134142       -3.19987273526820       -1.19577111777439
C           35.82998746468226       -2.26017670628573       -0.88724585357955
C           36.57056014468886       -1.10137976117913       -0.42180790412378
N           37.90264977244388       -1.34930363453493       -0.45585468440890
H           34.86865940359388        0.08500860766492       -0.02257933887058
H           34.83884302664932        2.55060543989051        0.92753755763543
H           36.71859357297448        4.33638106709717        1.58212125754869
H           38.63012207250517        0.81597371388018        0.25614811689659
H           38.44384921658334        5.54835200508241       -0.05395992907216
H           37.88688183977125        7.45394313782093        1.68585899550405
H           39.21292055823761        7.82254045598118        0.56697195572432
H           39.75588412833078        8.24401742885623        2.95036350317574
H           40.67973575540318        6.57556423463983        4.23049187132957
H           40.39517042568924        4.19640932638821        3.53934560175877
H           42.07458006152589        4.32027081123801        1.41548132923652
H           43.91652038326079        2.45867080236656        0.79677963980462
H           43.82741786188459       -2.57880688936235       -0.71417022383514
H           41.93892844015844       -4.36636673803224       -1.33581792652630
H           40.05244215626607       -0.74598291721803       -0.26318024931204
H           38.16604180961181       -5.44140143945274        0.11396193275034
H           37.56809735316362       -7.33840137856112       -1.63051698376385
H           38.82670576440238       -7.76028346500988       -0.45379128099831
H           39.44562715287576       -8.24503246182845       -2.80238616118296
H           40.47676282353337       -6.64268379127207       -4.08398323356960
H           40.27055435746566       -4.24125019468404       -3.44697599688995
H           36.58147305291392       -4.18812901654466       -1.59381230566338
H           34.75517977043047       -2.31331268777689       -0.96535112618036
C           90.88062028496691       -0.05520916800911       -0.05210954556746
C           90.27344719910943       -1.27570366019662       -0.31684151483091
C           90.92642110692530       -2.51646742323824       -0.56051982254057
C           89.96488658252164       -3.46233322050551       -0.77977558880745
C           88.69285138966171       -2.82813254199321       -0.68790612146807
N           88.93044952262288       -1.51414424014716       -0.39752987813022
C           87.43142088085911       -3.41331094756890       -0.84099612160253
C           87.40241742686634       -4.85716092122394       -1.18222842651389
C           87.94427661025382       -5.32324062739264       -2.31741480696086
C           87.94627800760067       -6.78705131625498       -2.67411003943203
N           86.99975310998087       -7.53777666089818       -1.84484884044922
C           86.62167109443750       -7.06967166865400       -0.61383426532460
C           86.75983935419400       -5.78014923092770       -0.25811211482718
C           86.21436392812545       -2.74208645767122       -0.69744988528826
C           84.91989411110929       -3.36371964210924       -0.91159423573847
C           83.99448377700988       -2.40683768181866       -0.69293308226952
N           86.05390281373188       -1.43084774307933       -0.36915164692606
C           84.72451639520906       -1.20107251555342       -0.35132817213666
C           84.08339992513402        0.01485767034969       -0.04192006872054
C           84.71714381536549        1.23166281887406        0.27352755598389
C           84.07181062634118        2.45036187759105        0.61279989910458
C           85.03835003544155        3.39059257621072        0.84004834441656
C           86.30526306973620        2.77652969244606        0.63821931712576
N           86.05892128861645        1.47062702534556        0.30367779885855
C           87.56565857232684        3.36851462609068        0.77478492668631
C           87.59232623703842        4.80611324367503        1.13729348829423
C           88.17241447863134        5.23437943629113        2.26858592534624
C           88.23054606202444        6.69102556332924        2.64779696627477
N           87.27547444370838        7.48128909308084        1.86609684870593
C           86.86035535476758        7.05123856294399        0.63251281056008
C           86.95620861109386        5.76664154559322        0.24655396183465
C           88.78400669416619        2.70532144915840        0.59376769678504
C           90.08607120704785        3.34910360974323        0.67363762634543
C           91.00352458326529        2.38759738378532        0.44531390598475
C           90.26323471095976        1.16015322344009        0.21462052868090
N           88.93047123706977        1.39072432789323        0.30228468783157
H           91.96603740941123       -0.06084366922693       -0.05586982388990
H           91.99593046403282       -2.65521839412998       -0.55857146476424
H           90.11680698290911       -4.51059725731925       -0.97970751643872
H           88.20518291024673       -0.81835111699093       -0.25955479296902
H           88.42246619595319       -4.66560706537580       -3.03412247013875
H           88.96403460130425       -7.20556674673090       -2.56074875906873
H           87.65703042938138       -6.92063800589424       -3.72552787301989
H           87.08047358662667       -8.53993218654156       -1.93726495205854
H           86.12841303571052       -7.80120172911853        0.01825017700730
H           86.41013381228318       -5.41849307393155        0.69830568346488
H           84.76417689257026       -4.39108454706226       -1.19873018162137
H           82.92055329576620       -2.48175659429937       -0.75508157083422
H           83.00339820524621        2.57959239099531        0.67721634311851
H           84.89096059438069        4.41907563352140        1.12691263556527
H           86.78086153596780        0.78256323313400        0.11667756082571
H           88.64572557212131        4.54895505310713        2.96188693167078
H           89.25508259057924        7.08211452329718        2.50265655169549
H           87.98385822554414        6.81556985277099        3.71084332807002
H           87.38661618830135        8.47894448992624        1.97581859249542
H           86.37304513213479        7.80901056800388        0.02724473912118
H           86.58024781324220        5.43700773252830       -0.71162284183222
H           90.25096876114611        4.39736818536273        0.86414426214903
H           92.07884639135075        2.47217072116668        0.41954976362554
C           47.95626621236084       -0.07649283670062        0.04711577687029
C           46.72808066302066       -0.06831252667699        0.04987725427253
C           45.38176539284894       -0.05860639232380        0.04921187328489
C           44.15817888340916       -0.04128550526841        0.04893027884269
C           49.30244051838262       -0.08242064344591        0.04432995050007
C           50.52633886380007       -0.08474649758322        0.03820590960852
C           64.03180520102998        0.00293109286855        0.00364118813156
C           62.80240434600915        0.00129228172172        0.01065016007648
C           61.45806890335859       -0.00065499908699        0.01653520350457
C           60.23307847392476       -0.00428695305341        0.02366164425044
C           65.37614062566121        0.00291502365963       -0.00225825334921
C           66.60115618063685        0.00386888228361       -0.00972347056695
C           80.10529173435134        0.05401356945835       -0.04695889587807
C           78.87717578899642        0.06362720415882       -0.04802484949038
C           77.53097246450665        0.07074265046400       -0.04746552148999
C           76.30704923967575        0.07348630651745       -0.04416207981354
C           81.45162207669539        0.04288922122789       -0.04332464946835
C           82.67525656406670        0.02850906627892       -0.04311755122841
C           51.93327121781355       -0.08837850477220        0.03489302100892
C           52.56518387466785       -0.29028053969625        1.27670843527260
C           51.92508320740761       -0.46831476665103        2.53030493129937
C           52.89744632552868       -0.60981256897487        3.48229667003271
C           54.16103665249819       -0.53054626555657        2.83543490143340
N           53.90872483934823       -0.33307194979746        1.50384761422108
C           55.42288411629580       -0.60951455690563        3.43592137066391
C           55.44257791391676       -0.84724640260038        4.90165642507765
C           54.96013680432745       -1.97809725396344        5.43792198647466
C           55.01669066314100       -2.25798353192099        6.91681427226513
N           55.25985146084813       -1.02994480486671        7.67807194661824
C           55.89813312721815        0.03620124606010        7.10016978234424
C           55.99277602600403        0.18542983952804        5.76700635416607
C           56.64887393757188       -0.48357333017200        2.78112945753495
C           57.93197851109439       -0.62906919252527        3.44495191644062
C           58.87606710953688       -0.46171430883957        2.49555788566620
N           56.83488123948560       -0.24335081644712        1.45361750975016
C           58.16832182013719       -0.22007027866810        1.25406864134969
C           58.82837816194291       -0.00567057971164        0.02646177893542
C           58.19502774953217        0.19871554934328       -1.21556130349081
C           58.83464726343816        0.38150762117427       -2.46848510429766
C           57.86199225214372        0.52137593118892       -3.42070142009912
C           56.59862820786716        0.43640655957120       -2.77446946366897
N           56.85166602647720        0.23734477752859       -1.44282787118401
C           55.33686259708023        0.51168085570822       -3.37515878659224
C           55.31292494470405        0.75177903561772       -4.84030519093614
C           55.78944814732602        1.88530834087789       -5.37620937816150
C           55.71955535854894        2.17089795750915       -6.85342508990820
N           55.47188492869530        0.94578966501608       -7.61805076837712
C           54.84022399058845       -0.12369718395375       -7.03870492237678
C           54.75811043133361       -0.27874826490244       -5.70542996956261
C           54.11076075326457        0.38283830921232       -2.72021545659777
C           52.82721814977739        0.52741856369996       -3.38405637297268
C           51.88346985405348        0.36056572339564       -2.43450906128395
C           52.59158825511845        0.12058273269537       -1.19286293378344
N           53.92575479135633        0.14332315718544       -1.39335434182083
H           50.85701513118083       -0.47804438796280        2.67668966391114
H           52.75570529154664       -0.74778316840712        4.54173334859139
H           54.62222332864547       -0.22534679982432        0.79070686739244
H           54.57083402006093       -2.78080151592054        4.82244010410924
H           55.80445656534343       -3.00331104186392        7.13552615994724
H           54.06349725225773       -2.68512396937072        7.25685867654721
H           55.44920155153520       -1.18699687810225        8.65739253009832
H           56.24468132579309        0.79080104995475        7.79902576784154
H           56.43199960448747        1.07015919167757        5.32868176831867
H           58.06856640256883       -0.84327569022458        4.49277698408329
H           59.94893576190609       -0.49961718631697        2.59747944610357
H           59.90268561618224        0.39529687731799       -2.61472933367395
H           58.00338257869731        0.66194280622970       -4.47986084169506
H           56.13835616692730        0.12627554132545       -0.72998700800280
H           56.18047938822347        2.68720572321092       -4.76077616364256
H           54.92811130773504        2.91539873228444       -7.06152513546332
H           56.66854899108518        2.60168746808319       -7.20037768024423
H           55.27042057732879        1.10779983923796       -8.59420154434279
H           54.48817157443414       -0.87579440325493       -7.73751523963324
H           54.32393804484892       -1.16594039768787       -5.26701296130328
H           52.68991323404997        0.74121194719477       -4.43184843105112
H           50.81057489073231        0.39831757286450       -2.53608390026759
C           68.00585301630767        0.00155483920487       -0.01597647896925
C           68.64152032774493       -0.20792751050139        1.22397473945355
C           68.00420069622054       -0.39372445100061        2.47764813507586
C           68.97859078006107       -0.53724189035646        3.42753862849200
C           70.24072659106500       -0.45146936532147        2.77904920752966
N           69.98526706327887       -0.24899498119422        1.44837617663932
C           71.50367500782167       -0.52765514662951        3.37700452848579
C           71.53117831325180       -0.76708308480347        4.84219816235978
C           71.05707380584386       -1.90037711039512        5.38065961141584
C           71.13079049402413       -2.18406855984750        6.85809377541088
N           71.38094847475816       -0.95819708296651        7.62072418682220
C           72.00973972023583        0.11123673494257        7.03826518902722
C           72.08745792989679        0.26496762653392        5.70458937512321
C           72.72830125783936       -0.39813704650797        2.71946693543992
C           74.01321707694218       -0.54340693510102        3.38046078365373
C           74.95493528322035       -0.37547853679531        2.42912061172733
N           72.91044882125804       -0.15697117326592        1.39252133490441
C           74.24418762074467       -0.13376486651110        1.18928764161804
C           74.90009116478628        0.07798765229153       -0.03928716219281
C           74.26595567318766        0.28354480551260       -1.27932777623458
C           74.90373718711041        0.46471762163635       -2.53364918571872
C           73.92961597468540        0.60890451300633       -3.48346753272222
C           72.66719807974798        0.52831199035728       -2.83446549497506
N           72.92198121889777        0.32715533735158       -1.50389951363744
C           71.40411127671507        0.60968952488958       -3.43215829458809
C           71.38120928982065        0.85336999629160       -4.89683846783290
C           71.86522333430668        1.98544198822607       -5.42919687836969
C           71.80523294291342        2.27322723853008       -6.90640802200163
N           71.55088528963257        1.05107331265740       -7.67347921432711
C           70.91275158231102       -0.01642563411449       -7.09816620188384
C           70.82474283665348       -0.17321097071895       -5.76538937881800
C           70.17947445699059        0.48271368656806       -2.77491471781617
C           68.89490965670662        0.63168094443414       -3.43515586332840
C           67.95294296630404        0.46338020212020       -2.48383522242717
C           68.66337652244921        0.21757672606549       -1.24469845856055
N           69.99635798305468        0.23921180399380       -1.44757157456966
H           66.93643344713517       -0.40696195469408        2.62592781714129
H           68.83922308565350       -0.68088400199371        4.48655547044039
H           70.69735960941158       -0.13643470298427        0.73454827408012
H           70.66528231590446       -2.70346488228643        4.76726555362011
H           71.92250012821316       -2.92859767677461        7.06503591857387
H           70.18255473749119       -2.61412798874969        7.20807533267571
H           71.58581180047960       -1.11917408187286        8.59633052904859
H           72.36345529720303        0.86433783573880        7.73514752111226
H           72.51949692188154        1.15204193863826        5.26383309327246
H           74.15272263149363       -0.75836335068953        4.42772093148869
H           76.02802882182093       -0.41310872287489        2.52851749747007
H           75.97154531595612        0.47464947940305       -2.68194445153331
H           74.06945460158666        0.74947961245343       -4.54281720852617
H           72.20969767459280        0.21778929537960       -0.78978861231554
H           72.25848860775912        2.78408871105698       -4.81094290381103
H           71.02177768138867        3.02501399180004       -7.11828009794403
H           72.76005902747484        2.69588102932905       -7.24766030551913
H           71.35639416584064        1.21476281911484       -8.65068753122865
H           70.55994404828890       -0.76579172653865       -7.79952714794023
H           70.38534346316716       -1.05932857757954       -5.33006106992842
H           68.75587444582025        0.84873673355590       -4.48206589201655
H           66.87989137890875        0.50305932524013       -2.58307662836759
