152
 energy: -259.551214349722 gnorm: 0.000311247119 xtb: 6.5.1 (b24c23e)
C           24.14999996583596        0.02359737873952        0.00852956957031
C           24.75211036985429       -1.22441262431486       -0.08789007521986
C           24.11783311913117       -2.49633885361934       -0.18287412013425
C           25.09508377053157       -3.44772988408198       -0.26801662048659
C           26.35682021159227       -2.78728406463861       -0.22744604012763
N           26.09868013305930       -1.45179615247902       -0.11590461180184
C           27.61531780800131       -3.37253877857561       -0.29725067271298
C           28.84897578074251       -2.73846640897254       -0.26036114372356
C           30.10769813490550       -3.45487289511122       -0.35873865932780
C           31.08121020503969       -2.52444059982500       -0.28229372516511
N           29.07853797143294       -1.40336884671002       -0.12863176234043
C           30.41670216548031       -1.24331438598863       -0.13270548601765
C           31.10267636231020       -0.01652784376035       -0.00733784045323
C           30.47054486582953        1.23639280155257        0.11728819979946
C           31.09298723467167        2.50522781018505        0.25709093281787
C           30.11096176497150        3.45378464460222        0.33270339305109
C           28.85601678724143        2.79020494219944        0.24601408149154
N           29.12505578771109        1.45397695358943        0.11938569893007
C           27.59975187835978        3.38299991516095        0.28246256095264
C           26.36423405749835        2.75219948972470        0.21766828489456
C           25.09631582399819        3.46393846577473        0.26807831142813
C           24.12987586426077        2.52691583231383        0.19349873159194
C           24.80848505895374        1.24437781016148        0.09713457635085
N           26.15119623974136        1.41968266848107        0.11206982583199
H           23.06536500670254        0.03753212259268        0.01371390675659
H           23.05012253673140       -2.64799852558583       -0.18546544505562
H           24.96757363567405       -4.51533669739416       -0.35238386099794
H           26.80330539612126       -0.72376202727062       -0.06429193716561
H           27.62592933828454       -4.45354256183630       -0.39482927684465
H           30.20069894664605       -4.52346273165872       -0.47300490864004
H           32.14859454112946       -2.66442334927111       -0.32560598872199
H           32.15768974244478        2.66360153662939        0.29813579040028
H           30.23398182094612        4.51955182999495        0.44118500709016
H           28.42476060956641        0.72397746843985        0.03883679619454
H           27.59470181737555        4.46423843754297        0.37688804119488
H           24.99615609007665        4.53507491337788        0.35003450779106
H           23.05884070549178        2.65651004730724        0.20061449001679
C           64.22127151550764       -0.01019594443502        0.00542861591581
C           63.61780166594266        1.21004241947727       -0.27065195259767
C           64.25229932168703        2.45484517905396       -0.54865725665006
C           63.27541870076724        3.38335055796767       -0.77428541631764
C           62.01357904886100        2.73556384829657       -0.64070187817598
N           62.27135575806818        1.43076143965251       -0.33397848672559
C           60.75488462413084        3.30249204627446       -0.80054413897678
C           59.52328988209423        2.67634931233302       -0.67193957828711
C           58.26049335424852        3.36163093991298       -0.88051258249284
C           57.29186135499610        2.44816441885718       -0.66378602844801
N           59.30156622738372        1.37561069167841       -0.33897163492408
C           57.96460362998786        1.20914706084440       -0.31914730876436
C           57.28528981632026        0.01222313718070       -0.01092887430327
C           57.91615651034498       -1.20823362948829        0.29755315494988
C           57.29120475710302       -2.43947059989035        0.63136800264208
C           58.27239428043914       -3.36756289913968        0.84630818568170
C           59.52820187280140       -2.72764357952372        0.65493471710859
N           59.26101692704842       -1.42561894892948        0.32798827727215
C           60.78541160234622       -3.30725096190889        0.77454265497019
C           62.01823845169685       -2.68860162819312        0.61214404493908
C           63.28940434155261       -3.38017419428891        0.76188752296853
C           64.25141480164601       -2.45991563612087        0.54927983833628
C           63.56690088931183       -1.20766224304790        0.26954270547326
N           62.22507676604610       -1.38473539281353        0.31251748357390
H           65.30598563548189       -0.02072914362006        0.01264511644501
H           65.32002705424996        2.60482366797440       -0.57073154130067
H           63.40323796850971        4.42723375295076       -1.01330389433367
H           61.56567934279920        0.71878819323976       -0.17820374808031
H           60.74250379939775        4.35669001039448       -1.05856389531938
H           58.16182378522782        4.39942441103946       -1.15769541926063
H           56.22331104062054        2.57230309831733       -0.73085801630601
H           56.22588696566562       -2.58607350986370        0.70183561609914
H           58.14837883821371       -4.40400060129290        1.11679207634771
H           59.96303986349144       -0.71835625501030        0.13669730611154
H           60.79409843423640       -4.36226684069650        1.02892267451054
H           63.39457028453574       -4.42762369465409        0.99825629461508
H           65.32303726995046       -2.58267855576803        0.57219452149346
C           32.51062742478368       -0.02676764795767       -0.00563231675292
C           33.72914575995588       -0.02748271203782       -0.00174966622246
C           43.59286117297526       -0.00258514299802        0.00243446102984
C           44.81192249746924        0.00366403000746        0.00407709679244
C           54.65984686627272        0.02033828939097       -0.00173344381523
C           55.87763305896377        0.02050808857832       -0.00855399643244
C           35.13616957129339       -0.02316301320771        0.00084857280228
C           35.78071670141715        1.22849762076558       -0.06626826173394
C           35.17901286774034        2.51086989018316       -0.14969471607675
C           36.17795598366777        3.44536963244302       -0.18473538605307
C           37.42047424731196        2.75771795607462       -0.12804244258623
N           37.12970836748227        1.42297291627235       -0.05915623080904
C           38.68573544064608        3.33509765606910       -0.14306045313435
C           39.92109438496576        2.70811464551949       -0.10749012250423
C           41.17551197635139        3.43769477075037       -0.13792561112604
C           42.15476391987460        2.51058808008022       -0.10074241226547
N           40.15927195221403        1.36908529557397       -0.05022672852865
C           41.49803485211042        1.21897109155782       -0.04538797009271
C           42.18665199871540       -0.01259998810243        0.00196933641260
C           41.54241670145146       -1.26539747157328        0.05020071365452
C           42.14353564831841       -2.54964938145869        0.10474080641588
C           41.14411384030835       -3.48311899347749        0.14416394144095
C           39.90155844906365       -2.79335571368375        0.11637742716110
N           40.19317765834361       -1.45815360525326        0.05811824184331
C           38.63633391636068       -3.36940798834886        0.15224444308675
C           37.40056154409267       -2.74183586572074        0.13501813144514
C           36.14623022983820       -3.47024777537554        0.19580191229535
C           35.16648699482552       -2.54380209868655        0.15791026104636
C           35.82299993654809       -1.25365941308504        0.07019276064952
N           37.16231745774406       -1.40405840862000        0.06265441690270
H           34.11723871172389        2.68910795489079       -0.18284379111668
H           36.07308683214072        4.51679239830033       -0.24646379062900
H           37.81307111210119        0.67403063200877       -0.01085321334780
H           38.69649049666045        4.41965097821068       -0.19416238784374
H           41.26235172284922        4.51196946587344       -0.18324204289170
H           43.22165968258883        2.66008664664527       -0.11137111850402
H           43.20521867907816       -2.73002507215583        0.11464356850746
H           41.24854582957705       -4.55538205091772        0.18976287425684
H           39.51007913014407       -0.70805571597670        0.02786227798025
H           38.62567834102595       -4.45391008459443        0.20466159735254
H           36.06024508429029       -4.54356765513473        0.26079467168060
H           34.09992494002256       -2.69248638212370        0.19043185243570
C           46.21825000722129        0.01280123369626        0.00643362595251
C           46.86219428721748        1.26604699287774        0.04578062944836
C           46.25941429208690        2.55002471356342        0.09041423510481
C           47.25753043310771        3.48495210367730        0.12733823008100
C           48.50097676581208        2.79657141434374        0.10748605242311
N           48.21115934618045        1.46053370791959        0.05593834332191
C           49.76577870636627        3.37345136319385        0.14558499230020
C           51.00033365885743        2.74330512873537        0.13300793985415
C           52.25778540534374        3.46640375780139        0.19650601463386
C           53.23404992677229        2.53609584148930        0.15960686550488
N           51.23264956239535        1.40467785110556        0.06085736510976
C           52.57109451642074        1.24895116497099        0.06920708069618
C           53.25315485331586        0.01656619321644        0.00314078166420
C           52.61144682359240       -1.23593686719076       -0.05702248346798
C           53.21718831066494       -2.51670187909442       -0.14185670154073
C           52.22013289870495       -3.45366186529496       -0.17071714956658
C           50.97595938755353       -2.76909406671150       -0.10952406816550
N           51.26327627905539       -1.43357568050954       -0.04406733831221
C           49.71047438007172       -3.34594488797463       -0.11706529904905
C           48.47704412027869       -2.71500679417730       -0.08096102004081
C           47.22044514632483       -3.44097652394953       -0.10291829906416
C           46.24417953739421       -2.51057641990157       -0.07208034847946
C           46.90479763913206       -1.22039412273761       -0.02912175484648
N           48.24308416512167       -1.37462415057835       -0.03408750499130
H           45.19744552674678        2.72910302981781        0.09597531688388
H           47.15169236301183        4.55734570087824        0.16605860588618
H           48.89604499129058        0.71190266433453        0.03200880121924
H           49.77694918737941        4.45801350075002        0.19513103906566
H           52.34788507699251        4.53925117836445        0.26322372909574
H           54.30167730753711        2.67933054018397        0.19583221007227
H           54.27984092666114       -2.69114004996599       -0.18155755460203
H           52.32716464455689       -4.52488653139477       -0.23213345760102
H           50.57741226528451       -0.68710491373308        0.00445839886649
H           49.69731663518969       -4.43065639089678       -0.16295797991574
H           47.13023788821243       -4.51533132820898       -0.13863010714397
H           45.17686782414221       -2.65695423157774       -0.07924814217094
