      -----------------------------------------------------------      
     |                   =====================                   |     
     |                           x T B                           |     
     |                   =====================                   |     
     |                         S. Grimme                         |     
     |          Mulliken Center for Theoretical Chemistry        |     
     |                    University of Bonn                     |     
      -----------------------------------------------------------      

   * xtb version 6.5.1 (b24c23e) compiled by 'conda@728c89f4b128' on 2022-07-12

   xtb is free software: you can redistribute it and/or modify it under
   the terms of the GNU Lesser General Public License as published by
   the Free Software Foundation, either version 3 of the License, or
   (at your option) any later version.
   
   xtb is distributed in the hope that it will be useful,
   but WITHOUT ANY WARRANTY; without even the implied warranty of
   MERCHANTABILITY or FITNESS FOR A PARTICULAR PURPOSE.  See the
   GNU Lesser General Public License for more details.
   
   Cite this work as:
   * C. Bannwarth, E. Caldeweyher, S. Ehlert, A. Hansen, P. Pracht,
     J. Seibert, S. Spicher, S. Grimme, WIREs Comput. Mol. Sci., 2020, 11,
     e01493. DOI: 10.1002/wcms.1493
   
   for GFN2-xTB:
   * C. Bannwarth, S. Ehlert and S. Grimme., J. Chem. Theory Comput., 2019,
     15, 1652-1671. DOI: 10.1021/acs.jctc.8b01176
   for GFN1-xTB:
   * S. Grimme, C. Bannwarth, P. Shushkov, J. Chem. Theory Comput., 2017,
     13, 1989-2009. DOI: 10.1021/acs.jctc.7b00118
   for GFN0-xTB:
   * P. Pracht, E. Caldeweyher, S. Ehlert, S. Grimme, ChemRxiv, 2019, preprint.
     DOI: 10.26434/chemrxiv.8326202.v1
   for GFN-FF:
   * S. Spicher and S. Grimme, Angew. Chem. Int. Ed., 2020, 59, 15665-15673.
     DOI: 10.1002/anie.202004239
   
   for ALPB and GBSA implicit solvation:
   * S. Ehlert, M. Stahn, S. Spicher, S. Grimme, J. Chem. Theory Comput.,
     2021, 17, 4250-4261. DOI: 10.1021/acs.jctc.1c00471
   
   for DFT-D4:
   * E. Caldeweyher, C. Bannwarth and S. Grimme, J. Chem. Phys., 2017,
     147, 034112. DOI: 10.1063/1.4993215
   * E. Caldeweyher, S. Ehlert, A. Hansen, H. Neugebauer, S. Spicher,
     C. Bannwarth and S. Grimme, J. Chem. Phys., 2019, 150, 154122.
     DOI: 10.1063/1.5090222
   * E. Caldeweyher, J.-M. Mewes, S. Ehlert and S. Grimme, Phys. Chem. Chem. Phys.
     2020, 22, 8499-8512. DOI: 10.1039/D0CP00502A
   
   for sTDA-xTB:
   * S. Grimme and C. Bannwarth, J. Chem. Phys., 2016, 145, 054103.
     DOI: 10.1063/1.4959605
   
   in the mass-spec context:
   * V. Asgeirsson, C. Bauer and S. Grimme, Chem. Sci., 2017, 8, 4879.
     DOI: 10.1039/c7sc00601b
   * J. Koopman and S. Grimme, ACS Omega 2019, 4, 12, 15120-15133.
     DOI: 10.1021/acsomega.9b02011
   
   for metadynamics refer to:
   * S. Grimme, J. Chem. Theory Comput., 2019, 155, 2847-2862
     DOI: 10.1021/acs.jctc.9b00143
   
   for SPH calculations refer to:
   * S. Spicher and S. Grimme, J. Chem. Theory Comput., 2021, 17, 1701-1714
     DOI: 10.1021/acs.jctc.0c01306
   
   with help from (in alphabetical order)
   P. Atkinson, C. Bannwarth, F. Bohle, G. Brandenburg, E. Caldeweyher
   M. Checinski, S. Dohm, S. Ehlert, S. Ehrlich, I. Gerasimov, C. Hölzer
   A. Katbashev, J. Koopman, C. Lavigne, S. Lehtola, F. März, M. Müller,
   F. Musil, H. Neugebauer, J. Pisarek, C. Plett, P. Pracht, F. Pultar,
   J. Seibert, P. Shushkov, S. Spicher, M. Stahn, M. Steiner, T. Strunk,
   J. Stückrath, T. Rose, and J. Unsleber
   
 * started run on 2022/07/29 at 17:26:06.182     

           -------------------------------------------------
          |                Calculation Setup                |
           -------------------------------------------------

          program call               : xtb xtbopt.xyz --gfn 1 --vipea
          hostname                   : cx3-14-14.cx3.hpc.ic.ac.uk
          coordinate file            : xtbopt.xyz
          omp threads                :                     1

   ID    Z sym.   atoms
    1    6 C      1-5, 7-10, 12-28, 31-36, 58-62, 64-67, 69-85, 88-93,
                  115-135, 137-140, 142-158, 161-166, 187-191, 193-196,
                  198-214, 217-222, 243-247, 249-252, 254-270, 273-278
    2    7 N      6, 11, 29, 30, 63, 68, 86, 87, 136, 141, 159, 160, 192,
                  197, 215, 216, 248, 253, 271, 272
    3    1 H      37-57, 94-114, 167-186, 223-242, 279-298

           -------------------------------------------------
          |                 I P E A - x T B                 |
           -------------------------------------------------

        Reference                      10.1039/c7sc00601b
      * Hamiltonian:
        H0-scaling (s, p, d)           2.150000    2.300000    2.000000
        zeta-weighting                 0.000000
      * Dispersion:
        s8                             2.400000
        a1                             0.630000
        a2                             5.000000
        s9                             0.000000
      * Repulsion:
        kExp                           1.500000
        rExp                           1.000000
      * Coulomb:
        alpha                          1.000000
        third order                    atomic
        anisotropic                    false
      * Halogen bond correction:
        rad-scale                      1.300000
        damping                        0.440000


          ...................................................
          :                      SETUP                      :
          :.................................................:
          :  # basis functions                1184          :
          :  # atomic orbitals                1184          :
          :  # shells                          792          :
          :  # electrons                       906          :
          :  # halogen bonds                     0          :
          :  max. iterations                   250          :
          :  Hamiltonian                  GFN1-xTB          :
          :  restarted?                      false          :
          :  GBSA solvation                  false          :
          :  PC potential                    false          :
          :  electronic temp.          300.0000000     K    :
          :  accuracy                    1.0000000          :
          :  -> integral cutoff          0.2500000E+02      :
          :  -> integral neglect         0.1000000E-07      :
          :  -> SCF convergence          0.1000000E-05 Eh   :
          :  -> wf. convergence          0.2000000E-04 e    :
          :  Broyden damping             0.4000000          :
          ...................................................

 iter      E             dE          RMSdq      gap      omega  full diag
   1   -566.7679083 -0.566768E+03  0.102E+01    0.63       0.0  T
   2   -567.3398015 -0.571893E+00  0.633E+00    1.18       1.0  T
   3   -557.0931774  0.102466E+02  0.484E+00    0.21       1.0  T
   4   -568.8564207 -0.117632E+02  0.965E-01    1.10       1.0  T
   5   -569.4832020 -0.626781E+00  0.281E-01    0.96       1.0  T
   6   -569.5301107 -0.469087E-01  0.113E-01    0.99       1.0  T
   7   -569.5363023 -0.619161E-02  0.479E-02    0.98       1.0  T
   8   -569.5368281 -0.525816E-03  0.351E-02    0.98       1.0  T
   9   -569.5371811 -0.352995E-03  0.212E-02    0.98       1.0  T
  10   -569.5373739 -0.192777E-03  0.471E-03    0.98       1.2  T
  11   -569.5373820 -0.804865E-05  0.223E-03    0.98       2.6  T
  12   -569.5373846 -0.260214E-05  0.943E-04    0.98       6.1  T
  13   -569.5373849 -0.364851E-06  0.517E-04    0.98      11.2  T
  14   -569.5373850 -0.113843E-06  0.198E-04    0.98      29.2  T
  15   -569.5373850 -0.169955E-07  0.770E-05    0.98      75.2  T

   *** convergence criteria satisfied after 15 iterations ***

         #    Occupation            Energy/Eh            Energy/eV
      -------------------------------------------------------------
         1        2.0000           -1.0418472             -28.3501
       ...           ...                  ...                  ...
       447        2.0000           -0.3878260             -10.5533
       448        2.0000           -0.3878124             -10.5529
       449        2.0000           -0.3811569             -10.3718
       450        2.0000           -0.3746212             -10.1940
       451        2.0000           -0.3704874             -10.0815
       452        2.0000           -0.3657245              -9.9519
       453        2.0000           -0.3591552              -9.7731 (HOMO)
       454                         -0.3232066              -8.7949 (LUMO)
       455                         -0.3149172              -8.5693
       456                         -0.3083329              -8.3902
       457                         -0.3046934              -8.2911
       458                         -0.3032899              -8.2529
       ...                                ...                  ...
      1184                        574.7066507           15638.5640
      -------------------------------------------------------------
                  HL-Gap            0.0359486 Eh            0.9782 eV
             Fermi-level           -0.3411805 Eh           -9.2840 eV

 SCC (total)                   0 d,  0 h,  0 min, 12.854 sec
 SCC setup                      ...        0 min,  0.011 sec (  0.083%)
 Dispersion                     ...        0 min,  0.015 sec (  0.114%)
 classical contributions        ...        0 min,  0.004 sec (  0.034%)
 integral evaluation            ...        0 min,  0.983 sec (  7.650%)
 iterations                     ...        0 min,  9.780 sec ( 76.085%)
 molecular gradient             ...        0 min,  1.930 sec ( 15.013%)
 printout                       ...        0 min,  0.131 sec (  1.020%)

         :::::::::::::::::::::::::::::::::::::::::::::::::::::
         ::                     SUMMARY                     ::
         :::::::::::::::::::::::::::::::::::::::::::::::::::::
         :: total energy            -557.549217547359 Eh    ::
         :: gradient norm              0.086552177430 Eh/a0 ::
         :: HOMO-LUMO gap              0.978210374393 eV    ::
         ::.................................................::
         :: SCC energy              -569.537385048072 Eh    ::
         :: -> electrostatic           0.301448839676 Eh    ::
         :: repulsion energy          12.246150062945 Eh    ::
         :: dispersion energy         -0.257982562231 Eh    ::
         :: halogen bond corr.         0.000000000000 Eh    ::
         :: add. restraining           0.000000000000 Eh    ::
         :: total charge               0.000000000010 e     ::
         :::::::::::::::::::::::::::::::::::::::::::::::::::::

           ------------------------------------------------- 
          |        vertical delta SCC IP calculation        |
           ------------------------------------------------- 
   1   -569.1482838 -0.569148E+03  0.782E-02    0.98       0.0  T
   2   -569.1390099  0.927391E-02  0.111E-01    0.88       1.0  T
   3   -569.1541617 -0.151519E-01  0.464E-02    0.96       1.0  T
   4   -569.1535036  0.658131E-03  0.450E-02    0.96       1.0  T
   5   -569.1558183 -0.231474E-02  0.268E-02    0.96       1.0  T
   6   -569.1565117 -0.693339E-03  0.132E-02    0.96       1.0  T
   7   -569.1566271 -0.115429E-03  0.815E-03    0.96       1.0  T
   8   -569.1567143 -0.871368E-04  0.300E-03    0.96       1.9  T
   9   -569.1567219 -0.769766E-05  0.110E-03    0.96       5.3  T
  10   -569.1567224 -0.455642E-06  0.554E-04    0.96      10.5  T
  11   -569.1567226 -0.243616E-06  0.299E-04    0.96      19.4  T
  12   -569.1567227 -0.691701E-07  0.928E-05    0.96      62.4  T
  13   -569.1567227 -0.650380E-08  0.391E-05    0.96     148.3  T
     SCC iter.                  ...        0 min,  8.498 sec
     gradient                   ...        0 min,  1.950 sec
------------------------------------------------------------------------
empirical IP shift (eV):    4.8455
delta SCC IP (eV):    5.5128
------------------------------------------------------------------------
           ------------------------------------------------- 
          |        vertical delta SCC EA calculation        |
           ------------------------------------------------- 
   1   -569.8145058 -0.569815E+03  0.132E-01    0.27       0.0  T
   2   -569.8239828 -0.947699E-02  0.118E-01    0.07       1.0  T
   3   -569.8348356 -0.108529E-01  0.663E-02    0.17       1.0  T
   4   -569.8370441 -0.220843E-02  0.459E-02    0.11       1.0  T
   5   -569.8368958  0.148300E-03  0.300E-02    0.12       1.0  T
   6   -569.8334058  0.348994E-02  0.442E-02    0.13       1.0  T
   7   -569.8376215 -0.421570E-02  0.131E-02    0.13       1.0  T
   8   -569.8378467 -0.225189E-03  0.436E-03    0.12       1.3  T
   9   -569.8378554 -0.872045E-05  0.288E-03    0.12       2.0  T
  10   -569.8378619 -0.646136E-05  0.716E-04    0.12       8.1  T
  11   -569.8378621 -0.215747E-06  0.441E-04    0.12      13.1  T
  12   -569.8378622 -0.118758E-06  0.152E-04    0.12      38.1  T
  13   -569.8378622 -0.104417E-07  0.710E-05    0.12      81.6  T
     SCC iter.                  ...        0 min,  8.474 sec
     gradient                   ...        0 min,  1.952 sec
------------------------------------------------------------------------
empirical EA shift (eV):    4.8455
delta SCC EA (eV):    3.3309
------------------------------------------------------------------------
           -------------------------------------------------
          |                Property Printout                |
           -------------------------------------------------

    * Orbital Energies and Occupations

         #    Occupation            Energy/Eh            Energy/eV
      -------------------------------------------------------------
         1        2.0000           -1.0055929             -27.3636
       ...           ...                  ...                  ...
       442        2.0000           -0.3700423             -10.0694
       443        2.0000           -0.3655015              -9.9458
       444        2.0000           -0.3533706              -9.6157
       445        2.0000           -0.3528663              -9.6020
       446        2.0000           -0.3454940              -9.4014
       447        2.0000           -0.3452106              -9.3937
       448        2.0000           -0.3430902              -9.3360
       449        2.0000           -0.3388087              -9.2195
       450        2.0000           -0.3365463              -9.1579
       451        2.0000           -0.3318505              -9.0301
       452        2.0000           -0.3240667              -8.8183
       453        2.0000           -0.3146291              -8.5615
       454        0.9069           -0.2789223              -7.5899 (HOMO)
       455        0.0917           -0.2745817              -7.4717 (LUMO)
       456        0.0012           -0.2703909              -7.3577
       457        0.0001           -0.2680238              -7.2933
       458        0.0001           -0.2673692              -7.2755
       459        0.0000           -0.2640035              -7.1839
       460                         -0.2601063              -7.0779
       461                         -0.2595724              -7.0633
       462                         -0.2578748              -7.0171
       463                         -0.2540108              -6.9120
       464                         -0.2281685              -6.2088
       465                         -0.2244466              -6.1075
       ...                                ...                  ...
      1184                        574.7503749           15639.7538
      -------------------------------------------------------------
                  HL-Gap            0.0043406 Eh            0.1181 eV
             Fermi-level           -0.2867702 Eh           -7.8034 eV

  Mulliken/CM5 charges         n(s)   n(p)   n(d)
     1C    -0.02502 -0.06585   1.086  2.939  0.000
     2C     0.06121  0.12162   1.105  2.834  0.000
     3C    -0.03680 -0.08210   1.080  2.957  0.000
     4C    -0.03359 -0.07854   1.076  2.958  0.000
     5C     0.06178  0.12568   1.100  2.838  0.000
     6N    -0.16007 -0.51298   1.312  3.848  0.000
     7C     0.00826  0.01400   1.092  2.900  0.000
     8C     0.05867  0.12680   1.117  2.824  0.000
     9C    -0.03801 -0.08402   1.085  2.953  0.000
    10C    -0.03832 -0.08376   1.091  2.948  0.000
    11N    -0.28641 -0.47306   1.293  3.993  0.000
    12C     0.06388  0.13461   1.130  2.806  0.000
    13C     0.01592  0.02312   1.085  2.900  0.000
    14C     0.06586  0.13073   1.109  2.825  0.000
    15C    -0.03394 -0.07837   1.079  2.955  0.000
    16C    -0.03334 -0.07831   1.075  2.959  0.000
    17C     0.06137  0.12472   1.099  2.840  0.000
    18C     0.00737  0.01316   1.092  2.901  0.000
    19C     0.00614 -0.00253   1.085  2.909  0.000
    20C    -0.02254 -0.07599   1.078  2.944  0.000
    21C    -0.02794 -0.08373   1.087  2.941  0.000
    22C    -0.02987 -0.08570   1.088  2.942  0.000
    23C    -0.02789 -0.08369   1.087  2.941  0.000
    24C    -0.02314 -0.07653   1.076  2.947  0.000
    25C     0.05963  0.12898   1.120  2.820  0.000
    26C    -0.03850 -0.08449   1.087  2.952  0.000
    27C    -0.04129 -0.08767   1.091  2.950  0.000
    28C     0.05813  0.12386   1.125  2.817  0.000
    29N    -0.28922 -0.47630   1.292  3.997  0.000
    30N    -0.15775 -0.50990   1.314  3.844  0.000
    31C     0.00622 -0.00247   1.085  2.909  0.000
    32C    -0.02366 -0.07702   1.076  2.947  0.000
    33C    -0.02829 -0.08409   1.087  2.941  0.000
    34C    -0.02971 -0.08554   1.088  2.942  0.000
    35C    -0.02726 -0.08307   1.087  2.940  0.000
    36C    -0.02179 -0.07526   1.078  2.943  0.000
    37H     0.02571  0.08474   0.974  0.000  0.000
    38H     0.03642  0.09309   0.964  0.000  0.000
    39H     0.02751  0.08620   0.972  0.000  0.000
    40H     0.16317  0.37152   0.837  0.000  0.000
    41H     0.01918  0.07793   0.981  0.000  0.000
    42H     0.02333  0.08141   0.977  0.000  0.000
    43H     0.03297  0.09109   0.967  0.000  0.000
    44H     0.02848  0.08726   0.972  0.000  0.000
    45H     0.02225  0.08012   0.978  0.000  0.000
    46H     0.02825  0.08411   0.972  0.000  0.000
    47H     0.02813  0.08396   0.972  0.000  0.000
    48H     0.02886  0.08471   0.971  0.000  0.000
    49H     0.02340  0.08124   0.977  0.000  0.000
    50H     0.01797  0.07662   0.982  0.000  0.000
    51H     0.02653  0.08296   0.973  0.000  0.000
    52H     0.16167  0.36998   0.838  0.000  0.000
    53H     0.02251  0.08035   0.977  0.000  0.000
    54H     0.02805  0.08391   0.972  0.000  0.000
    55H     0.02831  0.08414   0.972  0.000  0.000
    56H     0.02943  0.08529   0.971  0.000  0.000
    57H     0.02347  0.08132   0.977  0.000  0.000
    58C    -0.02524 -0.06606   1.086  2.939  0.000
    59C     0.06116  0.12157   1.105  2.834  0.000
    60C    -0.03693 -0.08224   1.080  2.957  0.000
    61C    -0.03364 -0.07861   1.076  2.958  0.000
    62C     0.06165  0.12554   1.100  2.838  0.000
    63N    -0.16019 -0.51312   1.312  3.849  0.000
    64C     0.00820  0.01393   1.092  2.900  0.000
    65C     0.05846  0.12656   1.117  2.824  0.000
    66C    -0.03804 -0.08406   1.085  2.953  0.000
    67C    -0.03842 -0.08387   1.090  2.948  0.000
    68N    -0.28634 -0.47309   1.293  3.993  0.000
    69C     0.06382  0.13456   1.130  2.806  0.000
    70C     0.01590  0.02312   1.085  2.899  0.000
    71C     0.06567  0.13054   1.109  2.825  0.000
    72C    -0.03413 -0.07856   1.079  2.955  0.000
    73C    -0.03347 -0.07844   1.075  2.959  0.000
    74C     0.06121  0.12456   1.099  2.840  0.000
    75C     0.00721  0.01300   1.092  2.901  0.000
    76C     0.00610 -0.00257   1.085  2.909  0.000
    77C    -0.02260 -0.07607   1.078  2.944  0.000
    78C    -0.02803 -0.08384   1.087  2.941  0.000
    79C    -0.02992 -0.08575   1.088  2.942  0.000
    80C    -0.02789 -0.08368   1.087  2.941  0.000
    81C    -0.02306 -0.07643   1.076  2.947  0.000
    82C     0.05954  0.12889   1.120  2.820  0.000
    83C    -0.03852 -0.08453   1.087  2.952  0.000
    84C    -0.04136 -0.08773   1.091  2.950  0.000
    85C     0.05808  0.12381   1.125  2.817  0.000
    86N    -0.28938 -0.47644   1.292  3.997  0.000
    87N    -0.15772 -0.50994   1.314  3.844  0.000
    88C     0.00622 -0.00247   1.085  2.909  0.000
    89C    -0.02363 -0.07701   1.076  2.947  0.000
    90C    -0.02831 -0.08411   1.087  2.942  0.000
    91C    -0.02971 -0.08553   1.088  2.942  0.000
    92C    -0.02729 -0.08309   1.087  2.940  0.000
    93C    -0.02174 -0.07518   1.079  2.943  0.000
    94H     0.02556  0.08458   0.974  0.000  0.000
    95H     0.03626  0.09294   0.964  0.000  0.000
    96H     0.02734  0.08604   0.973  0.000  0.000
    97H     0.16306  0.37145   0.837  0.000  0.000
    98H     0.01911  0.07784   0.981  0.000  0.000
    99H     0.02352  0.08160   0.976  0.000  0.000
   100H     0.03298  0.09107   0.967  0.000  0.000
   101H     0.02832  0.08707   0.972  0.000  0.000
   102H     0.02201  0.07988   0.978  0.000  0.000
   103H     0.02808  0.08394   0.972  0.000  0.000
   104H     0.02803  0.08386   0.972  0.000  0.000
   105H     0.02893  0.08479   0.971  0.000  0.000
   106H     0.02357  0.08145   0.976  0.000  0.000
   107H     0.01787  0.07652   0.982  0.000  0.000
   108H     0.02642  0.08284   0.974  0.000  0.000
   109H     0.16154  0.36990   0.838  0.000  0.000
   110H     0.02250  0.08035   0.978  0.000  0.000
   111H     0.02800  0.08385   0.972  0.000  0.000
   112H     0.02825  0.08408   0.972  0.000  0.000
   113H     0.02940  0.08526   0.971  0.000  0.000
   114H     0.02330  0.08119   0.977  0.000  0.000
   115C    -0.02130 -0.02217   1.061  2.961  0.000
   116C    -0.02283 -0.02449   1.088  2.935  0.000
   117C    -0.02541 -0.02625   1.057  2.968  0.000
   118C    -0.01855 -0.02016   1.093  2.925  0.000
   119C    -0.02386 -0.02469   1.059  2.964  0.000
   120C    -0.02255 -0.02415   1.089  2.934  0.000
   121C    -0.02513 -0.02596   1.058  2.967  0.000
   122C    -0.02125 -0.02284   1.091  2.931  0.000
   123C    -0.02508 -0.02591   1.058  2.967  0.000
   124C    -0.02136 -0.02295   1.091  2.931  0.000
   125C    -0.02399 -0.02482   1.059  2.965  0.000
   126C    -0.02250 -0.02409   1.089  2.933  0.000
   127C    -0.02546 -0.02630   1.057  2.968  0.000
   128C    -0.01874 -0.02033   1.093  2.925  0.000
   129C    -0.02148 -0.02233   1.061  2.961  0.000
   130C    -0.02289 -0.02453   1.088  2.935  0.000
   131C     0.01098  0.01822   1.080  2.909  0.000
   132C     0.06492  0.12978   1.109  2.826  0.000
   133C    -0.03716 -0.08160   1.078  2.960  0.000
   134C    -0.03449 -0.07940   1.075  2.959  0.000
   135C     0.05919  0.12262   1.096  2.845  0.000
   136N    -0.15792 -0.51029   1.313  3.845  0.000
   137C     0.01032  0.01595   1.094  2.896  0.000
   138C     0.05668  0.12463   1.115  2.828  0.000
   139C    -0.03911 -0.08508   1.085  2.954  0.000
   140C    -0.04032 -0.08576   1.089  2.951  0.000
   141N    -0.28619 -0.47243   1.293  3.993  0.000
   142C     0.06313  0.13405   1.130  2.807  0.000
   143C     0.01383  0.02107   1.083  2.903  0.000
   144C     0.06520  0.13017   1.110  2.825  0.000
   145C    -0.03576 -0.08019   1.078  2.958  0.000
   146C    -0.03428 -0.07920   1.075  2.960  0.000
   147C     0.05950  0.12284   1.096  2.844  0.000
   148C     0.00992  0.01556   1.093  2.897  0.000
   149C     0.00698 -0.00180   1.085  2.908  0.000
   150C    -0.02278 -0.07615   1.076  2.947  0.000
   151C    -0.02794 -0.08374   1.087  2.941  0.000
   152C    -0.03000 -0.08583   1.087  2.943  0.000
   153C    -0.02772 -0.08353   1.087  2.941  0.000
   154C    -0.02185 -0.07532   1.078  2.944  0.000
   155C     0.05716  0.12529   1.116  2.827  0.000
   156C    -0.03884 -0.08483   1.086  2.953  0.000
   157C    -0.04074 -0.08619   1.090  2.951  0.000
   158C     0.06287  0.13355   1.130  2.807  0.000
   159N    -0.28743 -0.47361   1.292  3.995  0.000
   160N    -0.15703 -0.50942   1.314  3.843  0.000
   161C     0.00705 -0.00173   1.086  2.907  0.000
   162C    -0.02301 -0.07639   1.076  2.947  0.000
   163C    -0.02820 -0.08399   1.087  2.941  0.000
   164C    -0.03003 -0.08587   1.087  2.943  0.000
   165C    -0.02756 -0.08336   1.087  2.941  0.000
   166C    -0.02165 -0.07509   1.078  2.944  0.000
   167H     0.02939  0.08747   0.971  0.000  0.000
   168H     0.02602  0.08482   0.974  0.000  0.000
   169H     0.16158  0.36956   0.838  0.000  0.000
   170H     0.01710  0.07586   0.983  0.000  0.000
   171H     0.02110  0.07912   0.979  0.000  0.000
   172H     0.03170  0.08978   0.968  0.000  0.000
   173H     0.02684  0.08565   0.973  0.000  0.000
   174H     0.02318  0.08098   0.977  0.000  0.000
   175H     0.02801  0.08387   0.972  0.000  0.000
   176H     0.02723  0.08307   0.973  0.000  0.000
   177H     0.02785  0.08371   0.972  0.000  0.000
   178H     0.02253  0.08035   0.977  0.000  0.000
   179H     0.01689  0.07568   0.983  0.000  0.000
   180H     0.01992  0.07795   0.980  0.000  0.000
   181H     0.16133  0.36932   0.839  0.000  0.000
   182H     0.02274  0.08051   0.977  0.000  0.000
   183H     0.02753  0.08339   0.972  0.000  0.000
   184H     0.02725  0.08309   0.973  0.000  0.000
   185H     0.02828  0.08414   0.972  0.000  0.000
   186H     0.02299  0.08080   0.977  0.000  0.000
   187C     0.01224  0.01949   1.082  2.906  0.000
   188C     0.06505  0.13002   1.110  2.825  0.000
   189C    -0.03663 -0.08105   1.077  2.960  0.000
   190C    -0.03451 -0.07944   1.075  2.960  0.000
   191C     0.05886  0.12221   1.096  2.846  0.000
   192N    -0.15728 -0.50969   1.314  3.843  0.000
   193C     0.01049  0.01612   1.094  2.896  0.000
   194C     0.05638  0.12431   1.115  2.829  0.000
   195C    -0.03920 -0.08518   1.085  2.954  0.000
   196C    -0.04089 -0.08632   1.089  2.952  0.000
   197N    -0.28666 -0.47285   1.293  3.994  0.000
   198C     0.06293  0.13384   1.130  2.807  0.000
   199C     0.01234  0.01959   1.082  2.906  0.000
   200C     0.06505  0.13003   1.110  2.825  0.000
   201C    -0.03660 -0.08103   1.077  2.960  0.000
   202C    -0.03452 -0.07945   1.075  2.960  0.000
   203C     0.05886  0.12222   1.096  2.846  0.000
   204C     0.01049  0.01612   1.094  2.896  0.000
   205C     0.00713 -0.00165   1.086  2.907  0.000
   206C    -0.02272 -0.07610   1.076  2.947  0.000
   207C    -0.02804 -0.08384   1.087  2.941  0.000
   208C    -0.03006 -0.08590   1.087  2.943  0.000
   209C    -0.02771 -0.08352   1.087  2.941  0.000
   210C    -0.02171 -0.07516   1.078  2.944  0.000
   211C     0.05638  0.12430   1.115  2.829  0.000
   212C    -0.03919 -0.08518   1.085  2.954  0.000
   213C    -0.04090 -0.08634   1.089  2.952  0.000
   214C     0.06295  0.13387   1.130  2.807  0.000
   215N    -0.28669 -0.47289   1.293  3.994  0.000
   216N    -0.15725 -0.50968   1.314  3.843  0.000
   217C     0.00713 -0.00165   1.086  2.907  0.000
   218C    -0.02272 -0.07611   1.076  2.947  0.000
   219C    -0.02804 -0.08384   1.087  2.941  0.000
   220C    -0.03007 -0.08590   1.087  2.943  0.000
   221C    -0.02771 -0.08351   1.087  2.941  0.000
   222C    -0.02171 -0.07516   1.078  2.944  0.000
   223H     0.03071  0.08879   0.969  0.000  0.000
   224H     0.02618  0.08499   0.974  0.000  0.000
   225H     0.16124  0.36919   0.839  0.000  0.000
   226H     0.01661  0.07539   0.983  0.000  0.000
   227H     0.02024  0.07822   0.980  0.000  0.000
   228H     0.03072  0.08881   0.969  0.000  0.000
   229H     0.02618  0.08500   0.974  0.000  0.000
   230H     0.02306  0.08087   0.977  0.000  0.000
   231H     0.02770  0.08356   0.972  0.000  0.000
   232H     0.02700  0.08283   0.973  0.000  0.000
   233H     0.02782  0.08369   0.972  0.000  0.000
   234H     0.02259  0.08041   0.977  0.000  0.000
   235H     0.01661  0.07538   0.983  0.000  0.000
   236H     0.02020  0.07821   0.980  0.000  0.000
   237H     0.16124  0.36920   0.839  0.000  0.000
   238H     0.02304  0.08085   0.977  0.000  0.000
   239H     0.02769  0.08354   0.972  0.000  0.000
   240H     0.02700  0.08283   0.973  0.000  0.000
   241H     0.02783  0.08370   0.972  0.000  0.000
   242H     0.02260  0.08042   0.977  0.000  0.000
   243C     0.01365  0.02090   1.083  2.903  0.000
   244C     0.06519  0.13017   1.110  2.825  0.000
   245C    -0.03586 -0.08029   1.077  2.958  0.000
   246C    -0.03431 -0.07925   1.075  2.960  0.000
   247C     0.05940  0.12274   1.096  2.844  0.000
   248N    -0.15706 -0.50951   1.314  3.843  0.000
   249C     0.00990  0.01555   1.093  2.897  0.000
   250C     0.05703  0.12514   1.116  2.827  0.000
   251C    -0.03884 -0.08484   1.086  2.953  0.000
   252C    -0.04076 -0.08621   1.089  2.952  0.000
   253N    -0.28731 -0.47359   1.292  3.995  0.000
   254C     0.06286  0.13357   1.130  2.807  0.000
   255C     0.01106  0.01833   1.080  2.908  0.000
   256C     0.06477  0.12963   1.109  2.826  0.000
   257C    -0.03727 -0.08170   1.077  2.960  0.000
   258C    -0.03457 -0.07949   1.075  2.960  0.000
   259C     0.05907  0.12250   1.096  2.845  0.000
   260C     0.01026  0.01590   1.094  2.896  0.000
   261C     0.00698 -0.00178   1.086  2.907  0.000
   262C    -0.02291 -0.07628   1.076  2.947  0.000
   263C    -0.02819 -0.08398   1.087  2.941  0.000
   264C    -0.03003 -0.08586   1.087  2.943  0.000
   265C    -0.02762 -0.08342   1.087  2.941  0.000
   266C    -0.02165 -0.07512   1.078  2.943  0.000
   267C     0.05661  0.12454   1.115  2.828  0.000
   268C    -0.03908 -0.08507   1.085  2.954  0.000
   269C    -0.04036 -0.08579   1.089  2.951  0.000
   270C     0.06313  0.13407   1.130  2.807  0.000
   271N    -0.28625 -0.47249   1.293  3.994  0.000
   272N    -0.15785 -0.51027   1.313  3.845  0.000
   273C     0.00696 -0.00180   1.085  2.908  0.000
   274C    -0.02272 -0.07611   1.076  2.947  0.000
   275C    -0.02793 -0.08373   1.087  2.941  0.000
   276C    -0.02996 -0.08580   1.087  2.943  0.000
   277C    -0.02774 -0.08354   1.087  2.941  0.000
   278C    -0.02179 -0.07524   1.078  2.944  0.000
   279H     0.03158  0.08967   0.968  0.000  0.000
   280H     0.02671  0.08552   0.973  0.000  0.000
   281H     0.16127  0.36930   0.839  0.000  0.000
   282H     0.01691  0.07568   0.983  0.000  0.000
   283H     0.02023  0.07827   0.980  0.000  0.000
   284H     0.02951  0.08755   0.970  0.000  0.000
   285H     0.02594  0.08472   0.974  0.000  0.000
   286H     0.02292  0.08074   0.977  0.000  0.000
   287H     0.02765  0.08350   0.972  0.000  0.000
   288H     0.02722  0.08305   0.973  0.000  0.000
   289H     0.02821  0.08407   0.972  0.000  0.000
   290H     0.02277  0.08061   0.977  0.000  0.000
   291H     0.01706  0.07583   0.983  0.000  0.000
   292H     0.02106  0.07906   0.979  0.000  0.000
   293H     0.16147  0.36951   0.839  0.000  0.000
   294H     0.02325  0.08106   0.977  0.000  0.000
   295H     0.02803  0.08389   0.972  0.000  0.000
   296H     0.02722  0.08305   0.973  0.000  0.000
   297H     0.02785  0.08372   0.972  0.000  0.000
   298H     0.02237  0.08023   0.978  0.000  0.000

Wiberg/Mayer (AO) data.
largest (>0.10) Wiberg bond orders for each atom

 ---------------------------------------------------------------------------
     #   Z sym  total        # sym  WBO       # sym  WBO       # sym  WBO
 ---------------------------------------------------------------------------
     1   6 C    3.809 --    28 C    1.383     2 C    1.371    37 H    0.996
     2   6 C    3.924 --     1 C    1.371     3 C    1.240     6 N    1.230
     3   6 C    3.836 --     4 C    1.597     2 C    1.240    38 H    0.993
     4   6 C    3.824 --     3 C    1.597     5 C    1.252    39 H    0.999
     5   6 C    3.897 --     7 C    1.343     4 C    1.252     6 N    1.227
     6   7 N    3.246 --     2 C    1.230     5 C    1.227    40 H    0.961
     7   6 C    3.845 --     8 C    1.368     5 C    1.343    31 C    1.049
     8   6 C    3.926 --     7 C    1.368    11 N    1.355     9 C    1.161
     9   6 C    3.840 --    10 C    1.693     8 C    1.161    41 H    0.999
    10   6 C    3.850 --     9 C    1.693    12 C    1.165    42 H    0.999
    11   7 N    2.564 --    12 C    1.411     8 C    1.355
    12   6 C    3.946 --    11 N    1.411    13 C    1.292    10 C    1.165
    13   6 C    3.839 --    12 C    1.292    14 C    1.291   116 C    1.208
    14   6 C    3.905 --    13 C    1.291    15 C    1.266    30 N    1.248
    15   6 C    3.830 --    16 C    1.583    14 C    1.266    43 H    0.998
    16   6 C    3.817 --    15 C    1.583    17 C    1.259    44 H    0.998
    17   6 C    3.892 --    18 C    1.343    16 C    1.259    30 N    1.221
    18   6 C    3.831 --    25 C    1.359    17 C    1.343    19 C    1.051
    19   6 C    3.893 --    24 C    1.423    20 C    1.422    18 C    1.051
    20   6 C    3.866 --    21 C    1.448    19 C    1.422    45 H    0.989
    21   6 C    3.912 --    20 C    1.448    22 C    1.441    46 H    0.982
    22   6 C    3.905 --    23 C    1.441    21 C    1.441    47 H    0.984
    23   6 C    3.911 --    24 C    1.448    22 C    1.441    48 H    0.981
    24   6 C    3.862 --    23 C    1.448    19 C    1.423    49 H    0.988
    25   6 C    3.945 --    29 N    1.377    18 C    1.359    26 C    1.154
    26   6 C    3.844 --    27 C    1.706    25 C    1.154    50 H    1.000
    27   6 C    3.861 --    26 C    1.706    28 C    1.147    51 H    0.994
    28   6 C    3.968 --     1 C    1.383    29 N    1.375    27 C    1.147
    29   7 N    2.548 --    25 C    1.377    28 C    1.375
    30   7 N    3.258 --    14 C    1.248    17 C    1.221    52 H    0.960
    31   6 C    3.893 --    36 C    1.423    32 C    1.423     7 C    1.049
    32   6 C    3.862 --    33 C    1.447    31 C    1.423    53 H    0.988
    33   6 C    3.912 --    32 C    1.447    34 C    1.441    54 H    0.982
    34   6 C    3.905 --    33 C    1.441    35 C    1.441    55 H    0.984
    35   6 C    3.911 --    36 C    1.448    34 C    1.441    56 H    0.981
    36   6 C    3.867 --    35 C    1.448    31 C    1.423    57 H    0.988
    37   1 H    1.034 --     1 C    0.996
    38   1 H    1.017 --     3 C    0.993
    39   1 H    1.036 --     4 C    0.999
    40   1 H    1.083 --     6 N    0.961
    41   1 H    1.039 --     9 C    0.999
    42   1 H    1.032 --    10 C    0.999
    43   1 H    1.028 --    15 C    0.998
    44   1 H    1.035 --    16 C    0.998
    45   1 H    1.054 --    20 C    0.989
    46   1 H    1.035 --    21 C    0.982
    47   1 H    1.030 --    22 C    0.984
    48   1 H    1.035 --    23 C    0.981
    49   1 H    1.052 --    24 C    0.988
    50   1 H    1.039 --    26 C    1.000
    51   1 H    1.020 --    27 C    0.994
    52   1 H    1.087 --    30 N    0.960
    53   1 H    1.051 --    32 C    0.988
    54   1 H    1.035 --    33 C    0.982
    55   1 H    1.030 --    34 C    0.984
    56   1 H    1.035 --    35 C    0.981
    57   1 H    1.055 --    36 C    0.988
    58   6 C    3.808 --    85 C    1.383    59 C    1.371    94 H    0.996
    59   6 C    3.924 --    58 C    1.371    60 C    1.240    63 N    1.230
    60   6 C    3.836 --    61 C    1.596    59 C    1.240    95 H    0.993
    61   6 C    3.824 --    60 C    1.596    62 C    1.252    96 H    0.999
    62   6 C    3.897 --    64 C    1.342    61 C    1.252    63 N    1.227
    63   7 N    3.245 --    59 C    1.230    62 C    1.227    97 H    0.961
    64   6 C    3.845 --    65 C    1.368    62 C    1.342    88 C    1.050
    65   6 C    3.925 --    64 C    1.368    68 N    1.355    66 C    1.162
    66   6 C    3.840 --    67 C    1.692    65 C    1.162    98 H    0.999
    67   6 C    3.850 --    66 C    1.692    69 C    1.166    99 H    0.999
    68   7 N    2.563 --    69 C    1.411    65 C    1.355
    69   6 C    3.945 --    68 N    1.411    70 C    1.291    67 C    1.166
    70   6 C    3.839 --    69 C    1.291    71 C    1.290   130 C    1.212
    71   6 C    3.905 --    70 C    1.290    72 C    1.267    87 N    1.248
    72   6 C    3.830 --    73 C    1.582    71 C    1.267   100 H    0.998
    73   6 C    3.817 --    72 C    1.582    74 C    1.259   101 H    0.998
    74   6 C    3.892 --    75 C    1.342    73 C    1.259    87 N    1.222
    75   6 C    3.831 --    82 C    1.360    74 C    1.342    76 C    1.051
    76   6 C    3.893 --    77 C    1.422    81 C    1.422    75 C    1.051
    77   6 C    3.866 --    78 C    1.448    76 C    1.422   102 H    0.989
    78   6 C    3.912 --    77 C    1.448    79 C    1.441   103 H    0.982
    79   6 C    3.905 --    78 C    1.441    80 C    1.441   104 H    0.984
    80   6 C    3.911 --    81 C    1.448    79 C    1.441   105 H    0.981
    81   6 C    3.862 --    80 C    1.448    76 C    1.422   106 H    0.988
    82   6 C    3.945 --    86 N    1.377    75 C    1.360    83 C    1.154
    83   6 C    3.844 --    84 C    1.706    82 C    1.154   107 H    1.000
    84   6 C    3.861 --    83 C    1.706    85 C    1.147   108 H    0.994
    85   6 C    3.968 --    58 C    1.383    86 N    1.376    84 C    1.147
    86   7 N    2.547 --    82 C    1.377    85 C    1.376
    87   7 N    3.258 --    71 C    1.248    74 C    1.222   109 H    0.960
    88   6 C    3.893 --    89 C    1.423    93 C    1.423    64 C    1.050
    89   6 C    3.862 --    90 C    1.447    88 C    1.423   110 H    0.988
    90   6 C    3.911 --    89 C    1.447    91 C    1.442   111 H    0.982
    91   6 C    3.905 --    90 C    1.442    92 C    1.441   112 H    0.984
    92   6 C    3.912 --    93 C    1.448    91 C    1.441   113 H    0.981
    93   6 C    3.867 --    92 C    1.448    88 C    1.423   114 H    0.988
    94   1 H    1.034 --    58 C    0.996
    95   1 H    1.017 --    60 C    0.993
    96   1 H    1.036 --    61 C    0.999
    97   1 H    1.084 --    63 N    0.961
    98   1 H    1.039 --    66 C    0.999
    99   1 H    1.031 --    67 C    0.999
   100   1 H    1.028 --    72 C    0.998
   101   1 H    1.035 --    73 C    0.998
   102   1 H    1.055 --    77 C    0.989
   103   1 H    1.035 --    78 C    0.982
   104   1 H    1.030 --    79 C    0.984
   105   1 H    1.034 --    80 C    0.981
   106   1 H    1.051 --    81 C    0.988
   107   1 H    1.040 --    83 C    1.000
   108   1 H    1.020 --    84 C    0.994
   109   1 H    1.087 --    87 N    0.960
   110   1 H    1.051 --    89 C    0.988
   111   1 H    1.035 --    90 C    0.982
   112   1 H    1.030 --    91 C    0.984
   113   1 H    1.035 --    92 C    0.981
   114   1 H    1.055 --    93 C    0.988
   115   6 C    3.798 --   116 C    2.508   117 C    1.318
   116   6 C    3.793 --   115 C    2.508    13 C    1.208   118 C    0.178
   117   6 C    3.793 --   118 C    2.505   115 C    1.318
   118   6 C    3.797 --   117 C    2.505   131 C    1.212   116 C    0.178
   119   6 C    3.796 --   120 C    2.484   121 C    1.339
   120   6 C    3.798 --   119 C    2.484   143 C    1.233   122 C    0.178
   121   6 C    3.795 --   122 C    2.483   119 C    1.339
   122   6 C    3.799 --   121 C    2.483   187 C    1.233   120 C    0.178
   123   6 C    3.795 --   124 C    2.483   125 C    1.339
   124   6 C    3.799 --   123 C    2.483   199 C    1.234   126 C    0.178
   125   6 C    3.796 --   126 C    2.483   123 C    1.339
   126   6 C    3.798 --   125 C    2.483   243 C    1.233   124 C    0.178
   127   6 C    3.794 --   128 C    2.502   129 C    1.321
   128   6 C    3.797 --   127 C    2.502   255 C    1.215   130 C    0.178
   129   6 C    3.798 --   130 C    2.505   127 C    1.321
   130   6 C    3.794 --   129 C    2.505    70 C    1.212   128 C    0.178
   131   6 C    3.820 --   158 C    1.288   132 C    1.285   118 C    1.212
   132   6 C    3.907 --   131 C    1.285   133 C    1.270   136 N    1.250
   133   6 C    3.824 --   134 C    1.577   132 C    1.270   167 H    0.999
   134   6 C    3.821 --   133 C    1.577   135 C    1.264   168 H    0.999
   135   6 C    3.886 --   137 C    1.339   134 C    1.264   136 N    1.218
   136   7 N    3.247 --   132 C    1.250   135 C    1.218   169 H    0.961
   137   6 C    3.836 --   138 C    1.374   135 C    1.339   161 C    1.047
   138   6 C    3.923 --   137 C    1.374   141 N    1.348   139 C    1.164
   139   6 C    3.839 --   140 C    1.688   138 C    1.164   170 H    1.000
   140   6 C    3.847 --   139 C    1.688   142 C    1.169   171 H    1.000
   141   7 N    2.548 --   142 C    1.419   138 C    1.348
   142   6 C    3.943 --   141 N    1.419   143 C    1.280   140 C    1.169
   143   6 C    3.821 --   142 C    1.280   144 C    1.277   120 C    1.233
   144   6 C    3.903 --   143 C    1.277   145 C    1.274   160 N    1.252
   145   6 C    3.825 --   146 C    1.573   144 C    1.274   172 H    0.999
   146   6 C    3.818 --   145 C    1.573   147 C    1.267   173 H    0.999
   147   6 C    3.885 --   148 C    1.334   146 C    1.267   160 N    1.221
   148   6 C    3.833 --   155 C    1.377   147 C    1.334   149 C    1.047
   149   6 C    3.894 --   154 C    1.424   150 C    1.424   148 C    1.047
   150   6 C    3.862 --   151 C    1.447   149 C    1.424   174 H    0.988
   151   6 C    3.911 --   150 C    1.447   152 C    1.442   175 H    0.982
   152   6 C    3.905 --   151 C    1.442   153 C    1.442   176 H    0.984
   153   6 C    3.911 --   154 C    1.447   152 C    1.442   177 H    0.982
   154   6 C    3.866 --   153 C    1.447   149 C    1.424   178 H    0.989
   155   6 C    3.926 --   148 C    1.377   159 N    1.349   156 C    1.161
   156   6 C    3.841 --   157 C    1.692   155 C    1.161   179 H    1.000
   157   6 C    3.848 --   156 C    1.692   158 C    1.166   180 H    1.000
   158   6 C    3.947 --   159 N    1.414   131 C    1.288   157 C    1.166
   159   7 N    2.545 --   158 C    1.414   155 C    1.349
   160   7 N    3.251 --   144 C    1.252   147 C    1.221   181 H    0.962
   161   6 C    3.894 --   162 C    1.425   166 C    1.424   137 C    1.047
   162   6 C    3.862 --   163 C    1.447   161 C    1.425   182 H    0.988
   163   6 C    3.911 --   162 C    1.447   164 C    1.442   183 H    0.982
   164   6 C    3.906 --   163 C    1.442   165 C    1.441   184 H    0.984
   165   6 C    3.911 --   166 C    1.448   164 C    1.441   185 H    0.982
   166   6 C    3.866 --   165 C    1.448   161 C    1.424   186 H    0.989
   167   1 H    1.028 --   133 C    0.999
   168   1 H    1.036 --   134 C    0.999
   169   1 H    1.085 --   136 N    0.961
   170   1 H    1.041 --   139 C    1.000
   171   1 H    1.032 --   140 C    1.000
   172   1 H    1.027 --   145 C    0.999
   173   1 H    1.035 --   146 C    0.999
   174   1 H    1.051 --   150 C    0.988
   175   1 H    1.035 --   151 C    0.982
   176   1 H    1.030 --   152 C    0.984
   177   1 H    1.035 --   153 C    0.982
   178   1 H    1.055 --   154 C    0.989
   179   1 H    1.041 --   156 C    1.000
   180   1 H    1.033 --   157 C    1.000
   181   1 H    1.085 --   160 N    0.962
   182   1 H    1.052 --   162 C    0.988
   183   1 H    1.035 --   163 C    0.982
   184   1 H    1.030 --   164 C    0.984
   185   1 H    1.035 --   165 C    0.982
   186   1 H    1.055 --   166 C    0.989
   187   6 C    3.818 --   214 C    1.278   188 C    1.276   122 C    1.233
   188   6 C    3.904 --   187 C    1.276   189 C    1.275   192 N    1.253
   189   6 C    3.824 --   190 C    1.572   188 C    1.275   223 H    0.999
   190   6 C    3.818 --   189 C    1.572   191 C    1.268   224 H    0.999
   191   6 C    3.885 --   193 C    1.335   190 C    1.268   192 N    1.219
   192   7 N    3.248 --   188 C    1.253   191 C    1.219   225 H    0.962
   193   6 C    3.833 --   194 C    1.377   191 C    1.335   217 C    1.047
   194   6 C    3.924 --   193 C    1.377   197 N    1.346   195 C    1.164
   195   6 C    3.839 --   196 C    1.689   194 C    1.164   226 H    1.000
   196   6 C    3.846 --   195 C    1.689   198 C    1.169   227 H    1.000
   197   7 N    2.545 --   198 C    1.420   194 C    1.346
   198   6 C    3.944 --   197 N    1.420   199 C    1.278   196 C    1.169
   199   6 C    3.818 --   198 C    1.278   200 C    1.276   124 C    1.234
   200   6 C    3.904 --   199 C    1.276   201 C    1.275   216 N    1.253
   201   6 C    3.824 --   202 C    1.572   200 C    1.275   228 H    0.999
   202   6 C    3.818 --   201 C    1.572   203 C    1.268   229 H    0.999
   203   6 C    3.885 --   204 C    1.335   202 C    1.268   216 N    1.219
   204   6 C    3.833 --   211 C    1.378   203 C    1.335   205 C    1.047
   205   6 C    3.894 --   210 C    1.424   206 C    1.424   204 C    1.047
   206   6 C    3.862 --   207 C    1.447   205 C    1.424   230 H    0.988
   207   6 C    3.911 --   206 C    1.447   208 C    1.442   231 H    0.982
   208   6 C    3.905 --   207 C    1.442   209 C    1.441   232 H    0.984
   209   6 C    3.911 --   210 C    1.447   208 C    1.441   233 H    0.982
   210   6 C    3.866 --   209 C    1.447   205 C    1.424   234 H    0.989
   211   6 C    3.924 --   204 C    1.378   215 N    1.346   212 C    1.163
   212   6 C    3.839 --   213 C    1.689   211 C    1.163   235 H    1.000
   213   6 C    3.846 --   212 C    1.689   214 C    1.169   236 H    1.000
   214   6 C    3.944 --   215 N    1.421   187 C    1.278   213 C    1.169
   215   7 N    2.545 --   214 C    1.421   211 C    1.346
   216   7 N    3.248 --   200 C    1.253   203 C    1.219   237 H    0.962
   217   6 C    3.894 --   218 C    1.424   222 C    1.424   193 C    1.047
   218   6 C    3.862 --   219 C    1.447   217 C    1.424   238 H    0.988
   219   6 C    3.911 --   218 C    1.447   220 C    1.442   239 H    0.982
   220   6 C    3.905 --   219 C    1.442   221 C    1.441   240 H    0.984
   221   6 C    3.911 --   222 C    1.447   220 C    1.441   241 H    0.982
   222   6 C    3.866 --   221 C    1.447   217 C    1.424   242 H    0.989
   223   1 H    1.028 --   189 C    0.999
   224   1 H    1.036 --   190 C    0.999
   225   1 H    1.085 --   192 N    0.962
   226   1 H    1.041 --   195 C    1.000
   227   1 H    1.032 --   196 C    1.000
   228   1 H    1.028 --   201 C    0.999
   229   1 H    1.036 --   202 C    0.999
   230   1 H    1.052 --   206 C    0.988
   231   1 H    1.035 --   207 C    0.982
   232   1 H    1.030 --   208 C    0.984
   233   1 H    1.035 --   209 C    0.982
   234   1 H    1.055 --   210 C    0.989
   235   1 H    1.041 --   212 C    1.000
   236   1 H    1.032 --   213 C    1.000
   237   1 H    1.085 --   216 N    0.962
   238   1 H    1.052 --   218 C    0.988
   239   1 H    1.035 --   219 C    0.982
   240   1 H    1.030 --   220 C    0.984
   241   1 H    1.035 --   221 C    0.982
   242   1 H    1.055 --   222 C    0.989
   243   6 C    3.820 --   270 C    1.279   244 C    1.277   126 C    1.233
   244   6 C    3.904 --   243 C    1.277   245 C    1.274   248 N    1.252
   245   6 C    3.825 --   246 C    1.573   244 C    1.274   279 H    0.999
   246   6 C    3.818 --   245 C    1.573   247 C    1.267   280 H    0.999
   247   6 C    3.885 --   249 C    1.334   246 C    1.267   248 N    1.221
   248   7 N    3.250 --   244 C    1.252   247 C    1.221   281 H    0.962
   249   6 C    3.833 --   250 C    1.376   247 C    1.334   273 C    1.048
   250   6 C    3.925 --   249 C    1.376   253 N    1.349   251 C    1.162
   251   6 C    3.841 --   252 C    1.692   250 C    1.162   282 H    1.000
   252   6 C    3.847 --   251 C    1.692   254 C    1.167   283 H    1.000
   253   7 N    2.544 --   254 C    1.415   250 C    1.349
   254   6 C    3.946 --   253 N    1.415   255 C    1.286   252 C    1.167
   255   6 C    3.819 --   254 C    1.286   256 C    1.283   128 C    1.215
   256   6 C    3.907 --   255 C    1.283   257 C    1.271   272 N    1.250
   257   6 C    3.824 --   258 C    1.576   256 C    1.271   284 H    0.999
   258   6 C    3.821 --   257 C    1.576   259 C    1.265   285 H    0.999
   259   6 C    3.886 --   260 C    1.337   258 C    1.265   272 N    1.219
   260   6 C    3.835 --   267 C    1.375   259 C    1.337   261 C    1.048
   261   6 C    3.894 --   266 C    1.424   262 C    1.424   260 C    1.048
   262   6 C    3.862 --   263 C    1.447   261 C    1.424   286 H    0.988
   263   6 C    3.911 --   262 C    1.447   264 C    1.442   287 H    0.982
   264   6 C    3.905 --   263 C    1.442   265 C    1.441   288 H    0.984
   265   6 C    3.911 --   266 C    1.448   264 C    1.441   289 H    0.982
   266   6 C    3.866 --   265 C    1.448   261 C    1.424   290 H    0.989
   267   6 C    3.923 --   260 C    1.375   271 N    1.347   268 C    1.164
   268   6 C    3.839 --   269 C    1.688   267 C    1.164   291 H    1.000
   269   6 C    3.846 --   268 C    1.688   270 C    1.169   292 H    1.000
   270   6 C    3.943 --   271 N    1.420   243 C    1.279   269 C    1.169
   271   7 N    2.548 --   270 C    1.420   267 C    1.347
   272   7 N    3.247 --   256 C    1.250   259 C    1.219   293 H    0.961
   273   6 C    3.894 --   274 C    1.424   278 C    1.424   249 C    1.048
   274   6 C    3.862 --   275 C    1.447   273 C    1.424   294 H    0.988
   275   6 C    3.911 --   274 C    1.447   276 C    1.442   295 H    0.982
   276   6 C    3.905 --   275 C    1.442   277 C    1.441   296 H    0.984
   277   6 C    3.911 --   278 C    1.448   276 C    1.441   297 H    0.982
   278   6 C    3.866 --   277 C    1.448   273 C    1.424   298 H    0.989
   279   1 H    1.027 --   245 C    0.999
   280   1 H    1.036 --   246 C    0.999
   281   1 H    1.085 --   248 N    0.962
   282   1 H    1.041 --   251 C    1.000
   283   1 H    1.032 --   252 C    1.000
   284   1 H    1.028 --   257 C    0.999
   285   1 H    1.036 --   258 C    0.999
   286   1 H    1.051 --   262 C    0.988
   287   1 H    1.035 --   263 C    0.982
   288   1 H    1.030 --   264 C    0.984
   289   1 H    1.035 --   265 C    0.982
   290   1 H    1.055 --   266 C    0.989
   291   1 H    1.041 --   268 C    1.000
   292   1 H    1.032 --   269 C    1.000
   293   1 H    1.085 --   272 N    0.961
   294   1 H    1.051 --   274 C    0.988
   295   1 H    1.035 --   275 C    0.982
   296   1 H    1.030 --   276 C    0.984
   297   1 H    1.035 --   277 C    0.982
   298   1 H    1.055 --   278 C    0.989
 ---------------------------------------------------------------------------

Topologies differ in total number of bonds
Writing topology from bond orders to xtbtopo.mol

 dipole moment from electron density (au)
     X       Y       Z   
-159.2248   0.1292  -0.0627  total (Debye):  404.709


           -------------------------------------------------
          | TOTAL ENERGY             -557.849694729618 Eh   |
          | GRADIENT NORM               0.089323531484 Eh/α |
          | HOMO-LUMO GAP               0.118114283643 eV   |
           -------------------------------------------------
########################################################################
[WARNING] Runtime exception occurred
-1- restart_readRestart: Dimension missmatch in restart file.
########################################################################

------------------------------------------------------------------------
 * finished run on 2022/07/29 at 17:26:43.069     
------------------------------------------------------------------------
 total:
 * wall-time:     0 d,  0 h,  0 min, 36.887 sec
 *  cpu-time:     0 d,  0 h,  0 min, 36.664 sec
 * ratio c/w:     0.994 speedup
 SCF:
 * wall-time:     0 d,  0 h,  0 min, 36.025 sec
 *  cpu-time:     0 d,  0 h,  0 min, 35.821 sec
 * ratio c/w:     0.994 speedup

