      -----------------------------------------------------------      
     |                   =====================                   |     
     |                           x T B                           |     
     |                   =====================                   |     
     |                         S. Grimme                         |     
     |          Mulliken Center for Theoretical Chemistry        |     
     |                    University of Bonn                     |     
      -----------------------------------------------------------      

   * xtb version 6.5.1 (b24c23e) compiled by 'conda@728c89f4b128' on 2022-07-12

   xtb is free software: you can redistribute it and/or modify it under
   the terms of the GNU Lesser General Public License as published by
   the Free Software Foundation, either version 3 of the License, or
   (at your option) any later version.
   
   xtb is distributed in the hope that it will be useful,
   but WITHOUT ANY WARRANTY; without even the implied warranty of
   MERCHANTABILITY or FITNESS FOR A PARTICULAR PURPOSE.  See the
   GNU Lesser General Public License for more details.
   
   Cite this work as:
   * C. Bannwarth, E. Caldeweyher, S. Ehlert, A. Hansen, P. Pracht,
     J. Seibert, S. Spicher, S. Grimme, WIREs Comput. Mol. Sci., 2020, 11,
     e01493. DOI: 10.1002/wcms.1493
   
   for GFN2-xTB:
   * C. Bannwarth, S. Ehlert and S. Grimme., J. Chem. Theory Comput., 2019,
     15, 1652-1671. DOI: 10.1021/acs.jctc.8b01176
   for GFN1-xTB:
   * S. Grimme, C. Bannwarth, P. Shushkov, J. Chem. Theory Comput., 2017,
     13, 1989-2009. DOI: 10.1021/acs.jctc.7b00118
   for GFN0-xTB:
   * P. Pracht, E. Caldeweyher, S. Ehlert, S. Grimme, ChemRxiv, 2019, preprint.
     DOI: 10.26434/chemrxiv.8326202.v1
   for GFN-FF:
   * S. Spicher and S. Grimme, Angew. Chem. Int. Ed., 2020, 59, 15665-15673.
     DOI: 10.1002/anie.202004239
   
   for ALPB and GBSA implicit solvation:
   * S. Ehlert, M. Stahn, S. Spicher, S. Grimme, J. Chem. Theory Comput.,
     2021, 17, 4250-4261. DOI: 10.1021/acs.jctc.1c00471
   
   for DFT-D4:
   * E. Caldeweyher, C. Bannwarth and S. Grimme, J. Chem. Phys., 2017,
     147, 034112. DOI: 10.1063/1.4993215
   * E. Caldeweyher, S. Ehlert, A. Hansen, H. Neugebauer, S. Spicher,
     C. Bannwarth and S. Grimme, J. Chem. Phys., 2019, 150, 154122.
     DOI: 10.1063/1.5090222
   * E. Caldeweyher, J.-M. Mewes, S. Ehlert and S. Grimme, Phys. Chem. Chem. Phys.
     2020, 22, 8499-8512. DOI: 10.1039/D0CP00502A
   
   for sTDA-xTB:
   * S. Grimme and C. Bannwarth, J. Chem. Phys., 2016, 145, 054103.
     DOI: 10.1063/1.4959605
   
   in the mass-spec context:
   * V. Asgeirsson, C. Bauer and S. Grimme, Chem. Sci., 2017, 8, 4879.
     DOI: 10.1039/c7sc00601b
   * J. Koopman and S. Grimme, ACS Omega 2019, 4, 12, 15120-15133.
     DOI: 10.1021/acsomega.9b02011
   
   for metadynamics refer to:
   * S. Grimme, J. Chem. Theory Comput., 2019, 155, 2847-2862
     DOI: 10.1021/acs.jctc.9b00143
   
   for SPH calculations refer to:
   * S. Spicher and S. Grimme, J. Chem. Theory Comput., 2021, 17, 1701-1714
     DOI: 10.1021/acs.jctc.0c01306
   
   with help from (in alphabetical order)
   P. Atkinson, C. Bannwarth, F. Bohle, G. Brandenburg, E. Caldeweyher
   M. Checinski, S. Dohm, S. Ehlert, S. Ehrlich, I. Gerasimov, C. Hölzer
   A. Katbashev, J. Koopman, C. Lavigne, S. Lehtola, F. März, M. Müller,
   F. Musil, H. Neugebauer, J. Pisarek, C. Plett, P. Pracht, F. Pultar,
   J. Seibert, P. Shushkov, S. Spicher, M. Stahn, M. Steiner, T. Strunk,
   J. Stückrath, T. Rose, and J. Unsleber
   
 * started run on 2022/07/30 at 08:45:51.706     

           -------------------------------------------------
          |                Calculation Setup                |
           -------------------------------------------------

          program call               : xtb xtbopt.xyz --gfn 1 --vipea
          hostname                   : cx3-15-15.cx3.hpc.ic.ac.uk
          coordinate file            : xtbopt.xyz
          omp threads                :                     1

   ID    Z sym.   atoms
    1   29 Cu     1, 59
    2    6 C      2-6, 8-12, 14-18, 20-25, 27-31, 33-38, 60-64, 66-70, 72-76,
                  78-83, 85-89, 91-96, 117, 118
    3    7 N      7, 19, 26, 39, 65, 77, 84, 97
    4    8 O      13, 32, 71, 90
    5    1 H      40-58, 98-116

           -------------------------------------------------
          |                 I P E A - x T B                 |
           -------------------------------------------------

        Reference                      10.1039/c7sc00601b
      * Hamiltonian:
        H0-scaling (s, p, d)           2.150000    2.300000    2.000000
        zeta-weighting                 0.000000
      * Dispersion:
        s8                             2.400000
        a1                             0.630000
        a2                             5.000000
        s9                             0.000000
      * Repulsion:
        kExp                           1.500000
        rExp                           1.000000
      * Coulomb:
        alpha                          1.000000
        third order                    atomic
        anisotropic                    false
      * Halogen bond correction:
        rad-scale                      1.300000
        damping                        0.440000


          ...................................................
          :                      SETUP                      :
          :.................................................:
          :  # basis functions                 486          :
          :  # atomic orbitals                 484          :
          :  # shells                          316          :
          :  # electrons                       388          :
          :  # halogen bonds                     0          :
          :  max. iterations                   250          :
          :  Hamiltonian                  GFN1-xTB          :
          :  restarted?                      false          :
          :  GBSA solvation                  false          :
          :  PC potential                    false          :
          :  electronic temp.          300.0000000     K    :
          :  accuracy                    1.0000000          :
          :  -> integral cutoff          0.2500000E+02      :
          :  -> integral neglect         0.1000000E-07      :
          :  -> SCF convergence          0.1000000E-05 Eh   :
          :  -> wf. convergence          0.2000000E-04 e    :
          :  Broyden damping             0.4000000          :
          ...................................................

 iter      E             dE          RMSdq      gap      omega  full diag
   1   -242.4789681 -0.242479E+03  0.102E+01    0.00       0.0  T
   2   -242.8237073 -0.344739E+00  0.635E+00    0.02       1.0  T
   3   -239.2240327  0.359967E+01  0.454E+00    0.00       1.0  T
   4   -243.2764890 -0.405246E+01  0.105E+00    0.07       1.0  T
   5   -243.3572024 -0.807134E-01  0.945E-01    0.47       1.0  T
   6   -243.5371856 -0.179983E+00  0.385E-01    0.02       1.0  T
   7   -243.4710761  0.661094E-01  0.672E-01    0.12       1.0  T
   8   -243.4794639 -0.838779E-02  0.646E-01    0.11       1.0  T
   9   -243.5663000 -0.868360E-01  0.212E-01    0.01       1.0  T
  10   -243.5539430  0.123569E-01  0.296E-01    0.04       1.0  T
  11   -243.5712508 -0.173078E-01  0.842E-02    0.01       1.0  T
  12   -243.5721754 -0.924589E-03  0.360E-02    0.00       1.0  T
  13   -243.5719878  0.187592E-03  0.461E-02    0.01       1.0  T
  14   -243.5724963 -0.508491E-03  0.833E-03    0.00       1.1  T
  15   -243.5724733  0.230274E-04  0.120E-02    0.00       1.0  T
  16   -243.5724951 -0.218065E-04  0.704E-03    0.00       1.3  T
  17   -243.5725062 -0.111665E-04  0.712E-04    0.00      12.9  T
  18   -243.5725063 -0.331523E-07  0.526E-04    0.00      17.5  T
  19   -243.5725063  0.244186E-07  0.600E-04    0.00      15.3  T
  20   -243.5725063 -0.808357E-07  0.168E-04    0.00      54.9  T
  21   -243.5725063 -0.620716E-08  0.425E-05    0.00     216.7  T

   *** convergence criteria satisfied after 21 iterations ***

         #    Occupation            Energy/Eh            Energy/eV
      -------------------------------------------------------------
         1        2.0000           -1.0208661             -27.7792
       ...           ...                  ...                  ...
       188        2.0000           -0.4003564             -10.8943
       189        2.0000           -0.4002583             -10.8916
       190        2.0000           -0.3826092             -10.4113
       191        2.0000           -0.3825923             -10.4109
       192        2.0000           -0.3814960             -10.3810
       193        2.0000           -0.3645060              -9.9187
       194        0.8315           -0.3104788              -8.4486 (HOMO)
       195        0.8154           -0.3104471              -8.4477 (LUMO)
       196        0.3531           -0.3093389              -8.4175
       197        0.0000           -0.2963471              -8.0640
       198        0.0000           -0.2963398              -8.0638
       199                         -0.2877953              -7.8313
       ...                                ...                  ...
       484                        547.0181957           14885.1228
      -------------------------------------------------------------
                  HL-Gap            0.0000316 Eh            0.0009 eV
             Fermi-level           -0.3108020 Eh           -8.4574 eV

 SCC (total)                   0 d,  0 h,  0 min,  2.068 sec
 SCC setup                      ...        0 min,  0.002 sec (  0.099%)
 Dispersion                     ...        0 min,  0.003 sec (  0.150%)
 classical contributions        ...        0 min,  0.001 sec (  0.061%)
 integral evaluation            ...        0 min,  0.267 sec ( 12.909%)
 iterations                     ...        0 min,  1.163 sec ( 56.243%)
 molecular gradient             ...        0 min,  0.619 sec ( 29.918%)
 printout                       ...        0 min,  0.013 sec (  0.619%)

         :::::::::::::::::::::::::::::::::::::::::::::::::::::
         ::                     SUMMARY                     ::
         :::::::::::::::::::::::::::::::::::::::::::::::::::::
         :: total energy            -239.209712101911 Eh    ::
         :: gradient norm              0.066954931323 Eh/a0 ::
         :: HOMO-LUMO gap              0.000861016556 eV    ::
         ::.................................................::
         :: SCC energy              -243.572506345385 Eh    ::
         :: -> electrostatic           0.166823249118 Eh    ::
         :: repulsion energy           4.470084597350 Eh    ::
         :: dispersion energy         -0.107290353877 Eh    ::
         :: halogen bond corr.         0.000000000000 Eh    ::
         :: add. restraining           0.000000000000 Eh    ::
         :: total charge              -0.000000000068 e     ::
         :::::::::::::::::::::::::::::::::::::::::::::::::::::

           ------------------------------------------------- 
          |        vertical delta SCC IP calculation        |
           ------------------------------------------------- 
   1   -243.2089693 -0.243209E+03  0.311E-01    0.00       0.0  T
   2   -243.2197280 -0.107587E-01  0.127E-01    0.00       1.0  T
   3   -243.2208891 -0.116112E-02  0.852E-02    0.00       1.0  T
   4   -243.2216545 -0.765404E-03  0.521E-02    0.00       1.0  T
   5   -243.2209989  0.655596E-03  0.584E-02    0.01       1.0  T
   6   -243.2103994  0.105995E-01  0.207E-01    0.06       1.0  T
   7   -243.2218878 -0.114883E-01  0.119E-02    0.00       1.0  T
   8   -243.2219202 -0.324789E-04  0.349E-03    0.00       2.6  T
   9   -243.2219223 -0.207529E-05  0.201E-03    0.00       4.6  T
  10   -243.2219236 -0.131032E-05  0.507E-04    0.00      18.2  T
  11   -243.2219236 -0.252531E-07  0.271E-04    0.00      34.0  T
  12   -243.2219237 -0.102199E-07  0.174E-04    0.00      52.8  T
  13   -243.2219237 -0.733195E-08  0.677E-05    0.00     135.9  T
     SCC iter.                  ...        0 min,  0.720 sec
     gradient                   ...        0 min,  0.615 sec
------------------------------------------------------------------------
empirical IP shift (eV):    4.8455
delta SCC IP (eV):    4.6943
------------------------------------------------------------------------
           ------------------------------------------------- 
          |        vertical delta SCC EA calculation        |
           ------------------------------------------------- 
   1   -243.7855602 -0.243786E+03  0.721E-01    0.18       0.0  T
   2   -243.6759309  0.109629E+00  0.868E-01    0.00       1.0  T
   3   -243.8080900 -0.132159E+00  0.583E-01    0.18       1.0  T
   4   -243.8361814 -0.280914E-01  0.299E-01    0.05       1.0  T
   5   -243.8405007 -0.431935E-02  0.187E-01    0.02       1.0  T
   6   -243.7295455  0.110955E+00  0.665E-01    0.09       1.0  T
   7   -243.8421384 -0.112593E+00  0.122E-01    0.01       1.0  T
   8   -243.8441745 -0.203619E-02  0.598E-02    0.00       1.0  T
   9   -243.8448689 -0.694376E-03  0.267E-02    0.00       1.0  T
  10   -243.8449901 -0.121165E-03  0.172E-02    0.00       1.0  T
  11   -243.8450118 -0.216708E-04  0.133E-02    0.00       1.0  T
  12   -243.8450529 -0.411881E-04  0.495E-03    0.00       1.9  T
  13   -243.8450461  0.688438E-05  0.697E-03    0.00       1.3  T
  14   -243.8450580 -0.119626E-04  0.148E-03    0.00       6.2  T
  15   -243.8450574  0.606452E-06  0.208E-03    0.00       4.4  T
  16   -243.8450584 -0.103016E-05  0.493E-04    0.00      18.7  T
  17   -243.8450585 -0.576746E-07  0.187E-04    0.00      49.3  T
  18   -243.8450585 -0.828896E-08  0.236E-05    0.00     390.1  T
     SCC iter.                  ...        0 min,  0.994 sec
     gradient                   ...        0 min,  0.616 sec
------------------------------------------------------------------------
empirical EA shift (eV):    4.8455
delta SCC EA (eV):    2.5710
------------------------------------------------------------------------
           -------------------------------------------------
          |                Property Printout                |
           -------------------------------------------------

    * Orbital Energies and Occupations

         #    Occupation            Energy/Eh            Energy/eV
      -------------------------------------------------------------
         1        2.0000           -0.9687248             -26.3603
       ...           ...                  ...                  ...
       183        2.0000           -0.3439266              -9.3587
       184        2.0000           -0.3427440              -9.3265
       185        2.0000           -0.3424335              -9.3181
       186        2.0000           -0.3380287              -9.1982
       187        2.0000           -0.3377643              -9.1910
       188        2.0000           -0.3377549              -9.1908
       189        2.0000           -0.3369263              -9.1682
       190        2.0000           -0.3104090              -8.4467
       191        2.0000           -0.3094769              -8.4213
       192        2.0000           -0.3094599              -8.4208
       193        2.0000           -0.2915675              -7.9340
       194        1.0245           -0.2351288              -6.3982
       195        1.0101           -0.2350980              -6.3973 (HOMO)
       196        0.9653           -0.2350022              -6.3947 (LUMO)
       197        0.0001           -0.2248876              -6.1195
       198        0.0001           -0.2248777              -6.1192
       199                         -0.2138517              -5.8192
       200                         -0.1891368              -5.1467
       201                         -0.1884476              -5.1279
       202                         -0.1856690              -5.0523
       203                         -0.1854495              -5.0463
       204                         -0.1826639              -4.9705
       205                         -0.1706408              -4.6434
       206                         -0.1574518              -4.2845
       ...                                ...                  ...
       484                        547.0919702           14887.1303
      -------------------------------------------------------------
                  HL-Gap            0.0000958 Eh            0.0026 eV
             Fermi-level           -0.2350764 Eh           -6.3968 eV

  Mulliken/CM5 charges         n(s)   n(p)   n(d)
     1Cu    0.24898  0.60415   0.537  0.894  9.320
     2C    -0.03684 -0.07808   1.077  2.960  0.000
     3C     0.05457  0.11608   1.116  2.829  0.000
     4C    -0.04696 -0.09309   1.085  2.962  0.000
     5C    -0.04182 -0.08750   1.081  2.961  0.000
     6C     0.05250  0.11763   1.106  2.842  0.000
     7N    -0.21893 -0.46929   1.326  3.893  0.000
     8C     0.00481  0.01004   1.089  2.907  0.000
     9C    -0.00094 -0.00975   1.078  2.923  0.000
    10C    -0.02448 -0.07766   1.079  2.946  0.000
    11C    -0.04444 -0.09645   1.066  2.978  0.000
    12C     0.08329  0.09526   1.122  2.795  0.000
    13O    -0.30298 -0.50254   1.631  4.672  0.000
    14C    -0.03677 -0.08747   1.081  2.956  0.000
    15C    -0.02230 -0.07546   1.080  2.943  0.000
    16C     0.05179  0.11598   1.104  2.845  0.000
    17C    -0.04128 -0.08706   1.074  2.967  0.000
    18C    -0.04044 -0.08629   1.077  2.964  0.000
    19N    -0.21449 -0.46397   1.330  3.885  0.000
    20C     0.05991  0.12574   1.120  2.820  0.000
    21C     0.00684  0.01353   1.078  2.915  0.000
    22C     0.05973  0.12551   1.120  2.820  0.000
    23C    -0.04051 -0.08636   1.077  2.964  0.000
    24C    -0.04133 -0.08715   1.074  2.967  0.000
    25C     0.05177  0.11593   1.104  2.845  0.000
    26N    -0.21423 -0.46401   1.330  3.884  0.000
    27C     0.00484  0.01006   1.089  2.906  0.000
    28C    -0.00107 -0.00985   1.078  2.923  0.000
    29C    -0.02205 -0.07519   1.080  2.942  0.000
    30C    -0.03663 -0.08732   1.081  2.956  0.000
    31C     0.08343  0.09542   1.122  2.794  0.000
    32O    -0.30275 -0.50233   1.631  4.672  0.000
    33C    -0.04454 -0.09656   1.066  2.978  0.000
    34C    -0.02443 -0.07766   1.079  2.946  0.000
    35C     0.05249  0.11757   1.106  2.842  0.000
    36C    -0.04183 -0.08757   1.081  2.961  0.000
    37C    -0.04696 -0.09309   1.084  2.963  0.000
    38C     0.05455  0.11606   1.116  2.830  0.000
    39N    -0.21899 -0.46915   1.326  3.893  0.000
    40H     0.01085  0.06976   0.989  0.000  0.000
    41H     0.01753  0.07405   0.982  0.000  0.000
    42H     0.01226  0.07106   0.988  0.000  0.000
    43H     0.01919  0.07699   0.981  0.000  0.000
    44H     0.02950  0.08774   0.971  0.000  0.000
    45H     0.22096  0.39327   0.779  0.000  0.000
    46H     0.03204  0.09106   0.968  0.000  0.000
    47H     0.02114  0.07897   0.979  0.000  0.000
    48H     0.01490  0.07381   0.985  0.000  0.000
    49H     0.01459  0.07339   0.985  0.000  0.000
    50H     0.01429  0.07308   0.986  0.000  0.000
    51H     0.01449  0.07341   0.986  0.000  0.000
    52H     0.02145  0.07940   0.979  0.000  0.000
    53H     0.03233  0.09136   0.968  0.000  0.000
    54H     0.22100  0.39332   0.779  0.000  0.000
    55H     0.02946  0.08771   0.971  0.000  0.000
    56H     0.01917  0.07704   0.981  0.000  0.000
    57H     0.01206  0.07086   0.988  0.000  0.000
    58H     0.01755  0.07408   0.982  0.000  0.000
    59Cu    0.24901  0.60418   0.537  0.894  9.320
    60C    -0.03684 -0.07808   1.077  2.960  0.000
    61C     0.05457  0.11608   1.116  2.829  0.000
    62C    -0.04696 -0.09309   1.085  2.962  0.000
    63C    -0.04182 -0.08750   1.081  2.961  0.000
    64C     0.05250  0.11763   1.106  2.842  0.000
    65N    -0.21893 -0.46929   1.326  3.893  0.000
    66C     0.00481  0.01004   1.089  2.907  0.000
    67C    -0.00094 -0.00974   1.078  2.923  0.000
    68C    -0.02448 -0.07766   1.079  2.946  0.000
    69C    -0.04444 -0.09645   1.066  2.978  0.000
    70C     0.08329  0.09526   1.122  2.795  0.000
    71O    -0.30298 -0.50254   1.631  4.672  0.000
    72C    -0.03677 -0.08747   1.081  2.956  0.000
    73C    -0.02230 -0.07546   1.080  2.943  0.000
    74C     0.05179  0.11598   1.104  2.845  0.000
    75C    -0.04128 -0.08706   1.074  2.967  0.000
    76C    -0.04044 -0.08629   1.077  2.964  0.000
    77N    -0.21448 -0.46397   1.330  3.885  0.000
    78C     0.05991  0.12574   1.120  2.820  0.000
    79C     0.00684  0.01353   1.078  2.915  0.000
    80C     0.05973  0.12551   1.120  2.820  0.000
    81C    -0.04051 -0.08636   1.077  2.964  0.000
    82C    -0.04133 -0.08715   1.074  2.967  0.000
    83C     0.05177  0.11594   1.104  2.845  0.000
    84N    -0.21423 -0.46400   1.330  3.884  0.000
    85C     0.00484  0.01006   1.089  2.906  0.000
    86C    -0.00107 -0.00985   1.078  2.923  0.000
    87C    -0.02205 -0.07519   1.080  2.942  0.000
    88C    -0.03663 -0.08732   1.081  2.956  0.000
    89C     0.08343  0.09542   1.122  2.794  0.000
    90O    -0.30275 -0.50233   1.631  4.672  0.000
    91C    -0.04454 -0.09656   1.066  2.978  0.000
    92C    -0.02443 -0.07766   1.079  2.946  0.000
    93C     0.05249  0.11757   1.106  2.842  0.000
    94C    -0.04183 -0.08757   1.081  2.961  0.000
    95C    -0.04696 -0.09308   1.084  2.963  0.000
    96C     0.05455  0.11606   1.116  2.830  0.000
    97N    -0.21898 -0.46914   1.326  3.893  0.000
    98H     0.01085  0.06976   0.989  0.000  0.000
    99H     0.01753  0.07405   0.982  0.000  0.000
   100H     0.01226  0.07106   0.988  0.000  0.000
   101H     0.01919  0.07699   0.981  0.000  0.000
   102H     0.02950  0.08775   0.971  0.000  0.000
   103H     0.22096  0.39327   0.779  0.000  0.000
   104H     0.03204  0.09107   0.968  0.000  0.000
   105H     0.02114  0.07897   0.979  0.000  0.000
   106H     0.01490  0.07381   0.985  0.000  0.000
   107H     0.01459  0.07339   0.985  0.000  0.000
   108H     0.01429  0.07308   0.986  0.000  0.000
   109H     0.01449  0.07341   0.986  0.000  0.000
   110H     0.02145  0.07940   0.979  0.000  0.000
   111H     0.03233  0.09136   0.968  0.000  0.000
   112H     0.22100  0.39332   0.779  0.000  0.000
   113H     0.02946  0.08771   0.971  0.000  0.000
   114H     0.01917  0.07704   0.981  0.000  0.000
   115H     0.01206  0.07086   0.988  0.000  0.000
   116H     0.01755  0.07408   0.982  0.000  0.000
   117C    -0.03629 -0.03855   1.069  2.967  0.000
   118C    -0.03629 -0.03855   1.069  2.967  0.000

Wiberg/Mayer (AO) data.
largest (>0.10) Wiberg bond orders for each atom

 ---------------------------------------------------------------------------
     #   Z sym  total        # sym  WBO       # sym  WBO       # sym  WBO
 ---------------------------------------------------------------------------
     1  29 Cu   2.626 --     7 N    0.598    39 N    0.597    26 N    0.597
                            19 N    0.596
     2   6 C    3.772 --     3 C    1.380    38 C    1.379    40 H    0.999
     3   6 C    3.945 --     2 C    1.380     7 N    1.276     4 C    1.200
     4   6 C    3.829 --     5 C    1.635     3 C    1.200    41 H    0.996
     5   6 C    3.824 --     4 C    1.635     6 C    1.208    42 H    1.002
     6   6 C    3.910 --     8 C    1.369     7 N    1.259     5 C    1.208
     7   7 N    2.937 --     3 C    1.276     6 C    1.259     1 Cu   0.598
     8   6 C    3.828 --     6 C    1.369    16 C    1.358     9 C    1.045
     9   6 C    3.883 --    10 C    1.424    15 C    1.416     8 C    1.045
    10   6 C    3.873 --    11 C    1.443     9 C    1.424    43 H    0.991
    11   6 C    3.873 --    10 C    1.443    12 C    1.398    44 H    0.983
    12   6 C    3.966 --    11 C    1.398    14 C    1.388    13 O    1.117
    13   8 O    2.162 --    12 C    1.117    45 H    0.968
    14   6 C    3.905 --    15 C    1.453    12 C    1.388    46 H    0.984
    15   6 C    3.874 --    14 C    1.453     9 C    1.416    47 H    0.991
    16   6 C    3.896 --     8 C    1.358    19 N    1.253    17 C    1.224
    17   6 C    3.803 --    18 C    1.609    16 C    1.224    48 H    1.001
    18   6 C    3.799 --    17 C    1.609    20 C    1.235    49 H    0.997
    19   7 N    2.955 --    20 C    1.304    16 C    1.253     1 Cu   0.596
    20   6 C    3.913 --    19 N    1.304    21 C    1.279    18 C    1.235
    21   6 C    3.792 --    20 C    1.279    22 C    1.278   117 C    1.232
    22   6 C    3.913 --    26 N    1.303    21 C    1.278    23 C    1.236
    23   6 C    3.798 --    24 C    1.608    22 C    1.236    50 H    0.997
    24   6 C    3.803 --    23 C    1.608    25 C    1.224    51 H    1.001
    25   6 C    3.896 --    27 C    1.356    26 N    1.254    24 C    1.224
    26   7 N    2.956 --    22 C    1.303    25 C    1.254     1 Cu   0.597
    27   6 C    3.830 --    35 C    1.369    25 C    1.356    28 C    1.049
    28   6 C    3.882 --    34 C    1.423    29 C    1.414    27 C    1.049
    29   6 C    3.874 --    30 C    1.455    28 C    1.414    52 H    0.991
    30   6 C    3.905 --    29 C    1.455    31 C    1.387    53 H    0.984
    31   6 C    3.966 --    33 C    1.397    30 C    1.387    32 O    1.117
    32   8 O    2.163 --    31 C    1.117    54 H    0.968
    33   6 C    3.872 --    34 C    1.443    31 C    1.397    55 H    0.983
    34   6 C    3.871 --    33 C    1.443    28 C    1.423    56 H    0.991
    35   6 C    3.910 --    27 C    1.369    39 N    1.259    36 C    1.209
    36   6 C    3.824 --    37 C    1.635    35 C    1.209    57 H    1.002
    37   6 C    3.829 --    36 C    1.635    38 C    1.200    58 H    0.996
    38   6 C    3.946 --     2 C    1.379    39 N    1.277    37 C    1.200
    39   7 N    2.937 --    38 C    1.277    35 C    1.259     1 Cu   0.597
    40   1 H    1.039 --     2 C    0.999
    41   1 H    1.028 --     4 C    0.996
    42   1 H    1.040 --     5 C    1.002
    43   1 H    1.055 --    10 C    0.991
    44   1 H    1.017 --    11 C    0.983
    45   1 H    1.011 --    13 O    0.968
    46   1 H    1.027 --    14 C    0.984
    47   1 H    1.056 --    15 C    0.991
    48   1 H    1.038 --    17 C    1.001
    49   1 H    1.045 --    18 C    0.997
    50   1 H    1.045 --    23 C    0.997
    51   1 H    1.039 --    24 C    1.001
    52   1 H    1.056 --    29 C    0.991
    53   1 H    1.027 --    30 C    0.984
    54   1 H    1.011 --    32 O    0.968
    55   1 H    1.016 --    33 C    0.983
    56   1 H    1.055 --    34 C    0.991
    57   1 H    1.041 --    36 C    1.002
    58   1 H    1.028 --    37 C    0.996
    59  29 Cu   2.626 --    65 N    0.598    97 N    0.597    84 N    0.597
                            77 N    0.596
    60   6 C    3.772 --    61 C    1.380    96 C    1.379    98 H    0.999
    61   6 C    3.945 --    60 C    1.380    65 N    1.276    62 C    1.200
    62   6 C    3.829 --    63 C    1.635    61 C    1.200    99 H    0.996
    63   6 C    3.824 --    62 C    1.635    64 C    1.208   100 H    1.002
    64   6 C    3.910 --    66 C    1.369    65 N    1.259    63 C    1.208
    65   7 N    2.937 --    61 C    1.276    64 C    1.259    59 Cu   0.598
    66   6 C    3.828 --    64 C    1.369    74 C    1.358    67 C    1.045
    67   6 C    3.883 --    68 C    1.424    73 C    1.416    66 C    1.045
    68   6 C    3.873 --    69 C    1.443    67 C    1.424   101 H    0.991
    69   6 C    3.873 --    68 C    1.443    70 C    1.398   102 H    0.983
    70   6 C    3.966 --    69 C    1.398    72 C    1.388    71 O    1.117
    71   8 O    2.162 --    70 C    1.117   103 H    0.968
    72   6 C    3.905 --    73 C    1.453    70 C    1.388   104 H    0.984
    73   6 C    3.874 --    72 C    1.453    67 C    1.416   105 H    0.991
    74   6 C    3.896 --    66 C    1.358    77 N    1.253    75 C    1.224
    75   6 C    3.803 --    76 C    1.609    74 C    1.224   106 H    1.001
    76   6 C    3.799 --    75 C    1.609    78 C    1.235   107 H    0.997
    77   7 N    2.955 --    78 C    1.304    74 C    1.253    59 Cu   0.596
    78   6 C    3.913 --    77 N    1.304    79 C    1.279    76 C    1.235
    79   6 C    3.792 --    78 C    1.279    80 C    1.278   118 C    1.232
    80   6 C    3.913 --    84 N    1.303    79 C    1.278    81 C    1.236
    81   6 C    3.798 --    82 C    1.608    80 C    1.236   108 H    0.997
    82   6 C    3.803 --    81 C    1.608    83 C    1.224   109 H    1.001
    83   6 C    3.896 --    85 C    1.356    84 N    1.254    82 C    1.224
    84   7 N    2.956 --    80 C    1.303    83 C    1.254    59 Cu   0.597
    85   6 C    3.830 --    93 C    1.369    83 C    1.356    86 C    1.049
    86   6 C    3.882 --    92 C    1.423    87 C    1.414    85 C    1.049
    87   6 C    3.874 --    88 C    1.455    86 C    1.414   110 H    0.991
    88   6 C    3.905 --    87 C    1.455    89 C    1.387   111 H    0.984
    89   6 C    3.966 --    91 C    1.397    88 C    1.387    90 O    1.117
    90   8 O    2.163 --    89 C    1.117   112 H    0.968
    91   6 C    3.872 --    92 C    1.443    89 C    1.397   113 H    0.983
    92   6 C    3.871 --    91 C    1.443    86 C    1.423   114 H    0.991
    93   6 C    3.910 --    85 C    1.369    97 N    1.259    94 C    1.209
    94   6 C    3.824 --    95 C    1.635    93 C    1.209   115 H    1.002
    95   6 C    3.829 --    94 C    1.635    96 C    1.200   116 H    0.996
    96   6 C    3.946 --    60 C    1.379    97 N    1.277    95 C    1.200
    97   7 N    2.937 --    96 C    1.277    93 C    1.259    59 Cu   0.597
    98   1 H    1.039 --    60 C    0.999
    99   1 H    1.028 --    62 C    0.996
   100   1 H    1.040 --    63 C    1.002
   101   1 H    1.055 --    68 C    0.991
   102   1 H    1.017 --    69 C    0.983
   103   1 H    1.011 --    71 O    0.968
   104   1 H    1.027 --    72 C    0.984
   105   1 H    1.056 --    73 C    0.991
   106   1 H    1.038 --    75 C    1.001
   107   1 H    1.045 --    76 C    0.997
   108   1 H    1.045 --    81 C    0.997
   109   1 H    1.039 --    82 C    1.001
   110   1 H    1.056 --    87 C    0.991
   111   1 H    1.027 --    88 C    0.984
   112   1 H    1.011 --    90 O    0.968
   113   1 H    1.016 --    91 C    0.983
   114   1 H    1.055 --    92 C    0.991
   115   1 H    1.041 --    94 C    1.002
   116   1 H    1.028 --    95 C    0.996
   117   6 C    3.757 --   118 C    2.591    21 C    1.232
   118   6 C    3.757 --   117 C    2.591    79 C    1.232
 ---------------------------------------------------------------------------

Topologies differ in total number of bonds
Writing topology from bond orders to xtbtopo.mol

 dipole moment from electron density (au)
     X       Y       Z   
 -42.1287  -0.1644  -2.2806  total (Debye):  107.238


           -------------------------------------------------
          | TOTAL ENERGY             -239.482264266239 Eh   |
          | GRADIENT NORM               0.084076120118 Eh/α |
          | HOMO-LUMO GAP               0.002607818850 eV   |
           -------------------------------------------------
########################################################################
[WARNING] Runtime exception occurred
-1- restart_readRestart: Dimension missmatch in restart file.
########################################################################

------------------------------------------------------------------------
 * finished run on 2022/07/30 at 08:45:57.576     
------------------------------------------------------------------------
 total:
 * wall-time:     0 d,  0 h,  0 min,  5.869 sec
 *  cpu-time:     0 d,  0 h,  0 min,  5.844 sec
 * ratio c/w:     0.996 speedup
 SCF:
 * wall-time:     0 d,  0 h,  0 min,  5.590 sec
 *  cpu-time:     0 d,  0 h,  0 min,  5.567 sec
 * ratio c/w:     0.996 speedup

