      -----------------------------------------------------------      
     |                   =====================                   |     
     |                           x T B                           |     
     |                   =====================                   |     
     |                         S. Grimme                         |     
     |          Mulliken Center for Theoretical Chemistry        |     
     |                    University of Bonn                     |     
      -----------------------------------------------------------      

   * xtb version 6.5.1 (b24c23e) compiled by 'conda@728c89f4b128' on 2022-07-12

   xtb is free software: you can redistribute it and/or modify it under
   the terms of the GNU Lesser General Public License as published by
   the Free Software Foundation, either version 3 of the License, or
   (at your option) any later version.
   
   xtb is distributed in the hope that it will be useful,
   but WITHOUT ANY WARRANTY; without even the implied warranty of
   MERCHANTABILITY or FITNESS FOR A PARTICULAR PURPOSE.  See the
   GNU Lesser General Public License for more details.
   
   Cite this work as:
   * C. Bannwarth, E. Caldeweyher, S. Ehlert, A. Hansen, P. Pracht,
     J. Seibert, S. Spicher, S. Grimme, WIREs Comput. Mol. Sci., 2020, 11,
     e01493. DOI: 10.1002/wcms.1493
   
   for GFN2-xTB:
   * C. Bannwarth, S. Ehlert and S. Grimme., J. Chem. Theory Comput., 2019,
     15, 1652-1671. DOI: 10.1021/acs.jctc.8b01176
   for GFN1-xTB:
   * S. Grimme, C. Bannwarth, P. Shushkov, J. Chem. Theory Comput., 2017,
     13, 1989-2009. DOI: 10.1021/acs.jctc.7b00118
   for GFN0-xTB:
   * P. Pracht, E. Caldeweyher, S. Ehlert, S. Grimme, ChemRxiv, 2019, preprint.
     DOI: 10.26434/chemrxiv.8326202.v1
   for GFN-FF:
   * S. Spicher and S. Grimme, Angew. Chem. Int. Ed., 2020, 59, 15665-15673.
     DOI: 10.1002/anie.202004239
   
   for ALPB and GBSA implicit solvation:
   * S. Ehlert, M. Stahn, S. Spicher, S. Grimme, J. Chem. Theory Comput.,
     2021, 17, 4250-4261. DOI: 10.1021/acs.jctc.1c00471
   
   for DFT-D4:
   * E. Caldeweyher, C. Bannwarth and S. Grimme, J. Chem. Phys., 2017,
     147, 034112. DOI: 10.1063/1.4993215
   * E. Caldeweyher, S. Ehlert, A. Hansen, H. Neugebauer, S. Spicher,
     C. Bannwarth and S. Grimme, J. Chem. Phys., 2019, 150, 154122.
     DOI: 10.1063/1.5090222
   * E. Caldeweyher, J.-M. Mewes, S. Ehlert and S. Grimme, Phys. Chem. Chem. Phys.
     2020, 22, 8499-8512. DOI: 10.1039/D0CP00502A
   
   for sTDA-xTB:
   * S. Grimme and C. Bannwarth, J. Chem. Phys., 2016, 145, 054103.
     DOI: 10.1063/1.4959605
   
   in the mass-spec context:
   * V. Asgeirsson, C. Bauer and S. Grimme, Chem. Sci., 2017, 8, 4879.
     DOI: 10.1039/c7sc00601b
   * J. Koopman and S. Grimme, ACS Omega 2019, 4, 12, 15120-15133.
     DOI: 10.1021/acsomega.9b02011
   
   for metadynamics refer to:
   * S. Grimme, J. Chem. Theory Comput., 2019, 155, 2847-2862
     DOI: 10.1021/acs.jctc.9b00143
   
   for SPH calculations refer to:
   * S. Spicher and S. Grimme, J. Chem. Theory Comput., 2021, 17, 1701-1714
     DOI: 10.1021/acs.jctc.0c01306
   
   with help from (in alphabetical order)
   P. Atkinson, C. Bannwarth, F. Bohle, G. Brandenburg, E. Caldeweyher
   M. Checinski, S. Dohm, S. Ehlert, S. Ehrlich, I. Gerasimov, C. Hölzer
   A. Katbashev, J. Koopman, C. Lavigne, S. Lehtola, F. März, M. Müller,
   F. Musil, H. Neugebauer, J. Pisarek, C. Plett, P. Pracht, F. Pultar,
   J. Seibert, P. Shushkov, S. Spicher, M. Stahn, M. Steiner, T. Strunk,
   J. Stückrath, T. Rose, and J. Unsleber
   
 * started run on 2022/07/30 at 07:04:15.793     

           -------------------------------------------------
          |                Calculation Setup                |
           -------------------------------------------------

          program call               : xtb Zn_H_C8_3.xyz --gfn 1 --opt -T 48
          hostname                   : cx3-14-19.cx3.hpc.ic.ac.uk
          coordinate file            : Zn_H_C8_3.xyz
          omp threads                :                     1

   ID    Z sym.   atoms
    1   30 Zn     1, 37, 89
    2    6 C      2-6, 8-11, 13-18, 20-24, 38-42, 44-47, 49-54, 56-60, 73-88,
                  90-94, 96-99, 101-106, 108-112
    3    7 N      7, 12, 19, 25, 43, 48, 55, 61, 95, 100, 107, 113
    4    1 H      26-36, 62-72, 114-123

molecular fragmentation (1/2 indicates fragments):
111111111111111111111111111111111111222222222222222222222222222222222222
222222222222222222222222222222222222222222222222222
# atoms in fragment 1/2:    36    87
 fragment masses (1/2) :      372.71      936.58
CMA distance (Bohr)    :  51.664
constraining FC (au)   :  0.0500
########################################################################
[WARNING] Please study the warnings concerning your input carefully
-1- prog_main_parseArguments: Unknown option '-T' provided
########################################################################

           -------------------------------------------------
          |                 G F N 1 - x T B                 |
           -------------------------------------------------

        Reference                      10.1021/acs.jctc.7b00118
      * Hamiltonian:
        H0-scaling (s, p, d)           1.850000    2.250000    2.000000
        zeta-weighting                 0.000000
      * Dispersion:
        s8                             2.400000
        a1                             0.630000
        a2                             5.000000
        s9                             0.000000
      * Repulsion:
        kExp                           1.500000
        rExp                           1.000000
      * Coulomb:
        alpha                          2.000000
        third order                    atomic
        anisotropic                    false
      * Halogen bond correction:
        rad-scale                      1.300000
        damping                        0.440000


          ...................................................
          :                      SETUP                      :
          :.................................................:
          :  # basis functions                 428          :
          :  # atomic orbitals                 428          :
          :  # shells                          246          :
          :  # electrons                       402          :
          :  # halogen bonds                     0          :
          :  max. iterations                   250          :
          :  Hamiltonian                  GFN1-xTB          :
          :  restarted?                      false          :
          :  GBSA solvation                  false          :
          :  PC potential                    false          :
          :  electronic temp.          300.0000000     K    :
          :  accuracy                    1.0000000          :
          :  -> integral cutoff          0.2500000E+02      :
          :  -> integral neglect         0.1000000E-07      :
          :  -> SCF convergence          0.1000000E-05 Eh   :
          :  -> wf. convergence          0.2000000E-04 e    :
          :  Broyden damping             0.4000000          :
          ...................................................

 iter      E             dE          RMSdq      gap      omega  full diag
   1   -220.2303447 -0.220230E+03  0.107E+01    0.36       0.0  T
   2   -203.8703679  0.163600E+02  0.794E+00    0.29       1.0  T
   3    414.3221316  0.618192E+03  0.166E+01    0.03       1.0  T
   4    774.2588067  0.359937E+03  0.186E+01    0.00       1.0  T
   5    -88.0739102 -0.862333E+03  0.102E+01    0.03       1.0  T
   6   -131.5569929 -0.434831E+02  0.718E+00    0.02       1.0  T
   7   -204.7271395 -0.731701E+02  0.471E+00    0.07       1.0  T
   8   -214.8042248 -0.100771E+02  0.320E+00    0.02       1.0  T
   9   -217.8478086 -0.304358E+01  0.203E+00    0.20       1.0  T
  10   -219.6022379 -0.175443E+01  0.186E+00    0.01       1.0  T
  11   -219.2505380  0.351700E+00  0.176E+00    0.01       1.0  T
  12   -220.1009695 -0.850431E+00  0.167E+00    0.07       1.0  T
  13   -217.9028036  0.219817E+01  0.208E+00    0.01       1.0  T
  14   -220.8905728 -0.298777E+01  0.113E+00    0.03       1.0  T
  15   -220.5106014  0.379971E+00  0.145E+00    0.14       1.0  T
  16   -220.8788154 -0.368214E+00  0.116E+00    0.07       1.0  T
  17   -221.3995124 -0.520697E+00  0.721E-01    0.02       1.0  T
  18   -221.1977310  0.201781E+00  0.826E-01    0.02       1.0  T
  19   -221.2944389 -0.967079E-01  0.798E-01    0.01       1.0  T
  20   -221.3730291 -0.785902E-01  0.673E-01    0.10       1.0  T
  21   -221.4518182 -0.787891E-01  0.517E-01    0.01       1.0  T
  22   -221.4975837 -0.457656E-01  0.273E-01    0.01       1.0  T
  23   -221.4729058  0.246779E-01  0.315E-01    0.06       1.0  T
  24   -221.5155669 -0.426611E-01  0.217E-01    0.03       1.0  T
  25   -221.5245606 -0.899370E-02  0.183E-01    0.03       1.0  T
  26   -221.5377233 -0.131626E-01  0.150E-01    0.02       1.0  T
  27   -221.5441679 -0.644468E-02  0.143E-01    0.01       1.0  T
  28   -221.5454513 -0.128335E-02  0.134E-01    0.00       1.0  T
  29   -221.5453139  0.137378E-03  0.113E-01    0.02       1.0  T
  30   -221.5447450  0.568892E-03  0.127E-01    0.02       1.0  T
  31   -221.5551840 -0.104390E-01  0.610E-02    0.00       1.0  T
  32   -221.5548017  0.382323E-03  0.614E-02    0.00       1.0  T
  33   -221.5561523 -0.135057E-02  0.607E-02    0.00       1.0  T
  34   -221.5559415  0.210764E-03  0.440E-02    0.00       1.0  T
  35   -221.5565278 -0.586356E-03  0.495E-02    0.00       1.0  T
  36   -221.5568067 -0.278879E-03  0.375E-02    0.00       1.0  T
  37   -221.5570778 -0.271025E-03  0.238E-02    0.00       1.0  T
  38   -221.5571522 -0.744393E-04  0.142E-02    0.00       1.0  T
  39   -221.5572519 -0.996608E-04  0.981E-03    0.00       1.0  T
  40   -221.5572173  0.345977E-04  0.144E-02    0.00       1.0  T
  41   -221.5572816 -0.643166E-04  0.667E-03    0.00       1.4  T
  42   -221.5572891 -0.757348E-05  0.374E-03    0.00       2.4  T
  43   -221.5572906 -0.148569E-05  0.200E-03    0.00       4.5  T
  44   -221.5572893  0.133892E-05  0.365E-03    0.00       2.5  T
  45   -221.5572917 -0.240388E-05  0.264E-03    0.00       3.4  T
  46   -221.5572944 -0.266507E-05  0.445E-04    0.00      20.3  T
  47   -221.5572944  0.159190E-08  0.487E-04    0.00      18.5  T
  48   -221.5572945 -0.962288E-07  0.131E-04    0.00      69.0  T
  49   -221.5572945 -0.253274E-08  0.107E-04    0.00      84.1  T

   *** convergence criteria satisfied after 49 iterations ***

         #    Occupation            Energy/Eh            Energy/eV
      -------------------------------------------------------------
         1        2.0000           -0.7928508             -21.5746
       ...           ...                  ...                  ...
       195        2.0000           -0.3881463             -10.5620
       196        2.0000           -0.3857614             -10.4971
       197        2.0000           -0.3790553             -10.3146
       198        2.0000           -0.3767737             -10.2525
       199        1.9986           -0.3707754             -10.0893
       200        1.9703           -0.3678483             -10.0097
       201        0.8652           -0.3636057              -9.8942 (HOMO)
       202        0.8133           -0.3635043              -9.8915 (LUMO)
       203        0.3522           -0.3623974              -9.8613
       204        0.0004           -0.3558421              -9.6830
       205        0.0000           -0.3487998              -9.4913
       206                         -0.3316647              -9.0251
       ...                                ...                  ...
       428                         16.5612502             450.6546
      -------------------------------------------------------------
                  HL-Gap            0.0001014 Eh            0.0028 eV
             Fermi-level           -0.3638634 Eh           -9.9012 eV

 SCC (total)                   0 d,  0 h,  0 min,  3.996 sec
 SCC setup                      ...        0 min,  0.006 sec (  0.154%)
 Dispersion                     ...        0 min,  0.005 sec (  0.129%)
 classical contributions        ...        0 min,  0.002 sec (  0.040%)
 integral evaluation            ...        0 min,  0.173 sec (  4.321%)
 iterations                     ...        0 min,  3.415 sec ( 85.478%)
 molecular gradient             ...        0 min,  0.370 sec (  9.270%)
 printout                       ...        0 min,  0.024 sec (  0.609%)

         :::::::::::::::::::::::::::::::::::::::::::::::::::::
         ::                     SUMMARY                     ::
         :::::::::::::::::::::::::::::::::::::::::::::::::::::
         :: total energy            -215.211605048379 Eh    ::
         :: gradient norm              7.008406018367 Eh/a0 ::
         :: HOMO-LUMO gap              0.002758540179 eV    ::
         ::.................................................::
         :: SCC energy              -221.557294457753 Eh    ::
         :: -> electrostatic           0.219194361610 Eh    ::
         :: repulsion energy           6.446091446237 Eh    ::
         :: dispersion energy         -0.100402036863 Eh    ::
         :: halogen bond corr.         0.000000000000 Eh    ::
         :: add. restraining           0.000000000000 Eh    ::
         :: total charge              -0.000000000012 e     ::
         :::::::::::::::::::::::::::::::::::::::::::::::::::::

      ----------------------------------------------------------- 
     |                   =====================                   |
     |                        A N C O P T                        |
     |                   =====================                   |
     |               Approximate Normal Coordinate               |
     |                Rational Function Optimizer                |
      ----------------------------------------------------------- 

          ...................................................
          :                      SETUP                      :
          :.................................................:
          :   optimization level            normal          :
          :   max. optcycles                   369          :
          :   ANC micro-cycles                  20          :
          :   degrees of freedom               363          :
          :.................................................:
          :   RF solver                   davidson          :
          :   write xtbopt.log                true          :
          :   linear?                        false          :
          :   energy convergence         0.5000000E-05 Eh   :
          :   grad. convergence          0.1000000E-02 Eh/α :
          :   maximium RF displ.         1.0000000          :
          :   Hlow (freq-cutoff)         0.1000000E-01      :
          :   Hmax (freq-cutoff)         5.0000000          :
          :   S6 in model hess.         20.0000000          :
          ...................................................

generating ANC from model Hessian ...
Using Lindh-Hessian (1995)
 Shifting diagonal of input Hessian by    1.0114878455912362E-002
 Lowest  eigenvalues of input Hessian
    0.010000    0.010008    0.010081    0.010085    0.010088    0.010090
    0.010094    0.010099    0.010100    0.000000    0.000000    0.000000
    0.000000    0.000000    0.000000    0.010118    0.010124    0.010127
 Highest eigenvalues
    3.167973    3.239429    3.920164    4.869666    5.044271    5.277761


........................................................................
.............................. CYCLE    1 ..............................
........................................................................
   1   -221.5572945 -0.221557E+03  0.137E-04    0.00       0.0  T
   2   -221.5572787  0.157297E-04  0.519E-03    0.00       1.7  T
   3   -221.5572941 -0.153991E-04  0.804E-04    0.00      11.2  T
   4   -221.5572942 -0.113900E-06  0.589E-04    0.00      15.3  T
   5   -221.5572945 -0.221912E-06  0.110E-04    0.00      82.3  T
   6   -221.5572945 -0.576705E-09  0.660E-05    0.00     136.7  T
     SCC iter.                  ...        0 min,  0.438 sec
     gradient                   ...        0 min,  0.373 sec
 * total energy  :  -215.2116050 Eh     change       -0.3086313E-09 Eh
   gradient norm :     7.0084095 Eh/α   predicted     0.0000000E+00 (-100.00%)
   displ. norm   :     0.7252207 α      lambda       -0.5049202E+01
   maximum displ.:     0.6050240 α      in ANC's #362, #363, #356, ...

........................................................................
.............................. CYCLE    2 ..............................
........................................................................
   1   -221.4293041 -0.221429E+03  0.872E-01    0.32       0.0  T
   2   -219.9424308  0.148687E+01  0.208E+00    0.39       1.0  T
   3   -220.6235428 -0.681112E+00  0.122E+00    0.12       1.0  T
   4   -221.4492224 -0.825680E+00  0.650E-01    0.20       1.0  T
   5   -221.3823476  0.668748E-01  0.754E-01    0.19       1.0  T
   6   -221.5112591 -0.128911E+00  0.529E-01    0.08       1.0  T
   7   -221.6063506 -0.950915E-01  0.300E-01    0.03       1.0  T
   8   -221.6164605 -0.101099E-01  0.212E-01    0.06       1.0  T
   9   -221.5725687  0.438918E-01  0.368E-01    0.05       1.0  T
  10   -221.5689343  0.363434E-02  0.309E-01    0.02       1.0  T
  11   -221.5315516  0.373827E-01  0.462E-01    0.06       1.0  T
  12   -221.6224803 -0.909287E-01  0.146E-01    0.04       1.0  T
  13   -221.6311717 -0.869130E-02  0.715E-02    0.03       1.0  T
  14   -221.6332144 -0.204271E-02  0.323E-02    0.02       1.0  T
  15   -221.6334317 -0.217378E-03  0.234E-02    0.02       1.0  T
  16   -221.6335912 -0.159484E-03  0.145E-02    0.02       1.0  T
  17   -221.6337098 -0.118579E-03  0.161E-03    0.02       5.6  T
  18   -221.6337066  0.315808E-05  0.249E-03    0.02       3.6  T
  19   -221.6337075 -0.889499E-06  0.260E-03    0.02       3.5  T
  20   -221.6337107 -0.316949E-05  0.430E-04    0.02      21.0  T
  21   -221.6337108 -0.585368E-07  0.318E-04    0.02      28.3  T
  22   -221.6337108 -0.334842E-07  0.138E-04    0.02      65.5  T
  23   -221.6337108 -0.449657E-08  0.953E-05    0.02      94.6  T
     SCC iter.                  ...        0 min,  1.644 sec
     gradient                   ...        0 min,  0.364 sec
 * total energy  :  -217.1537169 Eh     change       -0.1942112E+01 Eh
   gradient norm :     1.1166168 Eh/α   predicted    -0.3852478E+01 (  98.37%)
   displ. norm   :     0.5236942 α      lambda       -0.5010438E+00
   maximum displ.:     0.1827252 α      in ANC's #356, #357, #205, ...

........................................................................
.............................. CYCLE    3 ..............................
........................................................................
   1   -221.5874273 -0.221587E+03  0.468E-01    0.14       0.0  T
   2   -220.4795916  0.110784E+01  0.166E+00    0.36       1.0  T
   3   -221.0835475 -0.603956E+00  0.103E+00    0.09       1.0  T
   4   -221.5572548 -0.473707E+00  0.441E-01    0.19       1.0  T
   5   -221.3320001  0.225255E+00  0.771E-01    0.20       1.0  T
   6   -221.3976333 -0.656332E-01  0.675E-01    0.11       1.0  T
   7   -221.6341466 -0.236513E+00  0.248E-01    0.04       1.0  T
   8   -221.6238662  0.102805E-01  0.221E-01    0.02       1.0  T
   9   -221.5470107  0.768555E-01  0.426E-01    0.05       1.0  T
  10   -221.5489532 -0.194255E-02  0.398E-01    0.00       1.0  T
  11   -221.6305895 -0.816363E-01  0.188E-01    0.05       1.0  T
  12   -221.6424384 -0.118489E-01  0.106E-01    0.05       1.0  T
  13   -221.6446758 -0.223741E-02  0.851E-02    0.03       1.0  T
  14   -221.6428076  0.186825E-02  0.992E-02    0.04       1.0  T
  15   -221.6461835 -0.337588E-02  0.677E-02    0.04       1.0  T
  16   -221.6469563 -0.772840E-03  0.557E-02    0.04       1.0  T
  17   -221.6483616 -0.140533E-02  0.299E-02    0.04       1.0  T
  18   -221.6486056 -0.243990E-03  0.222E-02    0.04       1.0  T
  19   -221.6488621 -0.256487E-03  0.891E-03    0.04       1.0  T
  20   -221.6489039 -0.417514E-04  0.357E-03    0.04       2.5  T
  21   -221.6489080 -0.408274E-05  0.192E-03    0.04       4.7  T
  22   -221.6489093 -0.137864E-05  0.128E-03    0.04       7.0  T
  23   -221.6489096 -0.270973E-06  0.112E-03    0.04       8.1  T
  24   -221.6489104 -0.757580E-06  0.344E-04    0.04      26.2  T
  25   -221.6489104 -0.640029E-07  0.127E-04    0.04      71.2  T
  26   -221.6489104 -0.783248E-08  0.678E-05    0.04     132.9  T
     SCC iter.                  ...        0 min,  1.824 sec
     gradient                   ...        0 min,  0.365 sec
 * total energy  :  -217.4747885 Eh     change       -0.3210716E+00 Eh
   gradient norm :     0.5299844 Eh/α   predicted    -0.3192341E+00 (  -0.57%)
   displ. norm   :     0.5619196 α      lambda       -0.1901900E+00
   maximum displ.:     0.2205604 α      in ANC's #86, #205, #103, ...

........................................................................
.............................. CYCLE    4 ..............................
........................................................................
   1   -221.6932494 -0.221693E+03  0.330E-01    0.29       0.0  T
   2   -220.5465839  0.114667E+01  0.152E+00    0.12       1.0  T
   3   -221.5385724 -0.991988E+00  0.631E-01    0.02       1.0  T
   4   -221.7032224 -0.164650E+00  0.238E-01    0.10       1.0  T
   5   -221.6815390  0.216834E-01  0.319E-01    0.03       1.0  T
   6   -221.7069227 -0.253837E-01  0.258E-01    0.15       1.0  T
   7   -221.7175711 -0.106484E-01  0.162E-01    0.17       1.0  T
   8   -221.6726491  0.449220E-01  0.302E-01    0.01       1.0  T
   9   -221.7160751 -0.434260E-01  0.138E-01    0.06       1.0  T
  10   -221.7278276 -0.117525E-01  0.485E-02    0.09       1.0  T
  11   -221.7285320 -0.704438E-03  0.249E-02    0.08       1.0  T
  12   -221.7288290 -0.296974E-03  0.986E-03    0.09       1.0  T
  13   -221.7288689 -0.399272E-04  0.483E-03    0.09       1.9  T
  14   -221.7288624  0.657526E-05  0.536E-03    0.09       1.7  T
  15   -221.7288721 -0.969571E-05  0.430E-03    0.09       2.1  T
  16   -221.7288777 -0.561305E-05  0.273E-03    0.09       3.3  T
  17   -221.7288778 -0.962376E-07  0.260E-03    0.09       3.5  T
  18   -221.7288798 -0.203483E-05  0.178E-03    0.09       5.1  T
  19   -221.7288815 -0.172053E-05  0.624E-04    0.09      14.5  T
  20   -221.7288817 -0.127697E-06  0.348E-04    0.09      25.9  T
  21   -221.7288817 -0.622655E-07  0.108E-04    0.09      83.3  T
  22   -221.7288817 -0.230222E-08  0.909E-05    0.09      99.2  T
     SCC iter.                  ...        0 min,  1.564 sec
     gradient                   ...        0 min,  0.370 sec
 * total energy  :  -217.6082683 Eh     change       -0.1334798E+00 Eh
   gradient norm :     0.2960570 Eh/α   predicted    -0.1251218E+00 (  -6.26%)
   displ. norm   :     0.6954413 α      lambda       -0.1026561E+00
   maximum displ.:     0.3401482 α      in ANC's #86, #42, #103, ...

........................................................................
.............................. CYCLE    5 ..............................
........................................................................
   1   -221.6866218 -0.221687E+03  0.199E-01    0.33       0.0  T
   2   -221.1881131  0.498509E+00  0.102E+00    0.14       1.0  T
   3   -221.2123610 -0.242479E-01  0.926E-01    0.09       1.0  T
   4   -221.6884348 -0.476074E+00  0.200E-01    0.24       1.0  T
   5   -221.7024233 -0.139885E-01  0.862E-02    0.14       1.0  T
   6   -221.7026626 -0.239324E-03  0.728E-02    0.10       1.0  T
   7   -221.7019737  0.688898E-03  0.738E-02    0.09       1.0  T
   8   -221.7027771 -0.803385E-03  0.599E-02    0.10       1.0  T
   9   -221.7033804 -0.603328E-03  0.465E-02    0.13       1.0  T
  10   -221.7039073 -0.526840E-03  0.261E-02    0.13       1.0  T
  11   -221.7042287 -0.321390E-03  0.942E-03    0.12       1.0  T
  12   -221.7042442 -0.155963E-04  0.849E-03    0.12       1.1  T
  13   -221.7042684 -0.241982E-04  0.478E-03    0.12       1.9  T
  14   -221.7042729 -0.446885E-05  0.303E-03    0.12       3.0  T
  15   -221.7042740 -0.112835E-05  0.251E-03    0.12       3.6  T
  16   -221.7042768 -0.275221E-05  0.141E-03    0.12       6.4  T
  17   -221.7042776 -0.807183E-06  0.620E-04    0.12      14.6  T
  18   -221.7042778 -0.182681E-06  0.241E-04    0.12      37.5  T
  19   -221.7042778 -0.592883E-08  0.225E-04    0.12      40.0  T
  20   -221.7042778 -0.196300E-07  0.137E-04    0.12      65.8  T
  21   -221.7042778 -0.917692E-08  0.345E-05    0.12     261.1  T
     SCC iter.                  ...        0 min,  1.494 sec
     gradient                   ...        0 min,  0.376 sec
 * total energy  :  -217.6865354 Eh     change       -0.7826705E-01 Eh
   gradient norm :     0.1894105 Eh/α   predicted    -0.7615301E-01 (  -2.70%)
   displ. norm   :     0.7857084 α      lambda       -0.6945408E-01
   maximum displ.:     0.4306372 α      in ANC's #42, #86, #81, ...

........................................................................
.............................. CYCLE    6 ..............................
........................................................................
   1   -221.6575999 -0.221658E+03  0.104E-01    0.42       0.0  T
   2   -221.3057565  0.351843E+00  0.775E-01    0.06       1.0  T
   3   -221.6579833 -0.352227E+00  0.141E-01    0.26       1.0  T
   4   -221.6610909 -0.310769E-02  0.593E-02    0.32       1.0  T
   5   -221.6607360  0.354905E-03  0.828E-02    0.25       1.0  T
   6   -221.6620242 -0.128814E-02  0.428E-02    0.19       1.0  T
   7   -221.6578476  0.417659E-02  0.857E-02    0.11       1.0  T
   8   -221.6576403  0.207272E-03  0.867E-02    0.11       1.0  T
   9   -221.6618013 -0.416095E-02  0.275E-02    0.15       1.0  T
  10   -221.6622197 -0.418390E-03  0.782E-03    0.17       1.2  T
  11   -221.6622430 -0.232940E-04  0.418E-03    0.18       2.2  T
  12   -221.6622479 -0.494105E-05  0.299E-03    0.18       3.0  T
  13   -221.6622509 -0.295930E-05  0.211E-03    0.18       4.3  T
  14   -221.6622526 -0.170031E-05  0.123E-03    0.18       7.3  T
  15   -221.6622531 -0.529868E-06  0.747E-04    0.18      12.1  T
  16   -221.6622533 -0.206698E-06  0.420E-04    0.18      21.5  T
  17   -221.6622534 -0.844469E-07  0.171E-04    0.18      52.8  T
  18   -221.6622534 -0.151331E-07  0.558E-05    0.18     161.4  T
     SCC iter.                  ...        0 min,  1.305 sec
     gradient                   ...        0 min,  0.365 sec
 * total energy  :  -217.7458327 Eh     change       -0.5929730E-01 Eh
   gradient norm :     0.1632222 Eh/α   predicted    -0.5616544E-01 (  -5.28%)
   displ. norm   :     0.8692872 α      lambda       -0.6346239E-01
   maximum displ.:     0.5460176 α      in ANC's #42, #86, #81, ...

........................................................................
.............................. CYCLE    7 ..............................
........................................................................
   1   -221.5986672 -0.221599E+03  0.946E-02    0.63       0.0  T
   2   -221.5969550  0.171229E-02  0.159E-01    0.42       1.0  T
   3   -221.6009358 -0.398087E-02  0.415E-02    0.47       1.0  T
   4   -221.6007696  0.166254E-03  0.384E-02    0.50       1.0  T
   5   -221.6010249 -0.255293E-03  0.154E-02    0.47       1.0  T
   6   -221.6010578 -0.329081E-04  0.740E-03    0.47       1.2  T
   7   -221.6010690 -0.112423E-04  0.226E-03    0.48       4.0  T
   8   -221.6010707 -0.163933E-05  0.771E-04    0.47      11.7  T
   9   -221.6010707 -0.858743E-07  0.289E-04    0.48      31.1  T
  10   -221.6010708 -0.576637E-08  0.189E-04    0.48      47.6  T
  11   -221.6010708 -0.939929E-08  0.511E-05    0.48     176.5  T
     SCC iter.                  ...        0 min,  0.778 sec
     gradient                   ...        0 min,  0.369 sec
 * total energy  :  -217.8061431 Eh     change       -0.6031043E-01 Eh
   gradient norm :     0.1283712 Eh/α   predicted    -0.5570921E-01 (  -7.63%)
   displ. norm   :     0.9429497 α      lambda       -0.6858246E-01
   maximum displ.:     0.6211059 α      in ANC's #42, #86, #81, ...

........................................................................
.............................. CYCLE    8 ..............................
........................................................................
   1   -221.5350511 -0.221535E+03  0.113E-01    1.14       0.0  T
   2   -221.5352097 -0.158564E-03  0.137E-01    1.16       1.0  T
   3   -221.5378233 -0.261359E-02  0.362E-02    1.16       1.0  T
   4   -221.5377588  0.644551E-04  0.224E-02    1.16       1.0  T
   5   -221.5378389 -0.801154E-04  0.122E-02    1.16       1.0  T
   6   -221.5378680 -0.291037E-04  0.421E-03    1.16       2.1  T
   7   -221.5378727 -0.468159E-05  0.112E-03    1.16       8.1  T
   8   -221.5378730 -0.293444E-06  0.536E-04    1.16      16.8  T
   9   -221.5378730 -0.224363E-07  0.233E-04    1.16      38.7  T
  10   -221.5378730 -0.104839E-07  0.125E-04    1.16      72.4  T
  11   -221.5378730 -0.521683E-08  0.402E-05    1.16     224.5  T
     SCC iter.                  ...        0 min,  0.796 sec
     gradient                   ...        0 min,  0.369 sec
 * total energy  :  -217.8749788 Eh     change       -0.6883573E-01 Eh
   gradient norm :     0.1129645 Eh/α   predicted    -0.6478143E-01 (  -5.89%)
   displ. norm   :     0.9492317 α      lambda       -0.6994995E-01
   maximum displ.:     0.6574358 α      in ANC's #42, #86, #81, ...

........................................................................
.............................. CYCLE    9 ..............................
........................................................................
   1   -221.4979071 -0.221498E+03  0.978E-02    1.19       0.0  T
   2   -221.4987196 -0.812455E-03  0.960E-02    1.19       1.0  T
   3   -221.4994104 -0.690811E-03  0.369E-02    1.19       1.0  T
   4   -221.4993788  0.315817E-04  0.182E-02    1.19       1.0  T
   5   -221.4993918 -0.129725E-04  0.838E-03    1.18       1.1  T
   6   -221.4994211 -0.293024E-04  0.324E-03    1.19       2.8  T
   7   -221.4994244 -0.332191E-05  0.746E-04    1.19      12.1  T
   8   -221.4994245 -0.660521E-07  0.393E-04    1.19      22.9  T
   9   -221.4994245 -0.152661E-07  0.148E-04    1.19      60.8  T
  10   -221.4994245 -0.298584E-08  0.580E-05    1.19     155.4  T
     SCC iter.                  ...        0 min,  0.721 sec
     gradient                   ...        0 min,  0.365 sec
 * total energy  :  -217.9445527 Eh     change       -0.6957384E-01 Eh
   gradient norm :     0.1145091 Eh/α   predicted    -0.6648885E-01 (  -4.43%)
   displ. norm   :     0.9286180 α      lambda       -0.7718283E-01
   maximum displ.:     0.6540230 α      in ANC's #42, #11, #81, ...

........................................................................
.............................. CYCLE   10 ..............................
........................................................................
   1   -221.4643787 -0.221464E+03  0.117E-01    1.15       0.0  T
   2   -221.4654182 -0.103952E-02  0.112E-01    1.16       1.0  T
   3   -221.4662157 -0.797526E-03  0.513E-02    1.15       1.0  T
   4   -221.4659073  0.308395E-03  0.363E-02    1.15       1.0  T
   5   -221.4661935 -0.286156E-03  0.108E-02    1.15       1.0  T
   6   -221.4662352 -0.417582E-04  0.313E-03    1.15       2.9  T
   7   -221.4662382 -0.293774E-05  0.105E-03    1.15       8.6  T
   8   -221.4662385 -0.351066E-06  0.491E-04    1.15      18.4  T
   9   -221.4662386 -0.620051E-07  0.162E-04    1.15      55.6  T
  10   -221.4662386 -0.515777E-08  0.597E-05    1.15     150.9  T
     SCC iter.                  ...        0 min,  0.706 sec
     gradient                   ...        0 min,  0.370 sec
 * total energy  :  -218.0056579 Eh     change       -0.6110528E-01 Eh
   gradient norm :     0.0890373 Eh/α   predicted    -0.7187012E-01 (  17.62%)
   displ. norm   :     0.8418913 α      lambda       -0.4740028E-01
   maximum displ.:     0.6425483 α      in ANC's #42, #4, #11, ...

........................................................................
.............................. CYCLE   11 ..............................
........................................................................
   1   -221.4996157 -0.221500E+03  0.665E-02    1.12       0.0  T
   2   -221.4995807  0.349938E-04  0.710E-02    1.13       1.0  T
   3   -221.5001666 -0.585875E-03  0.295E-02    1.13       1.0  T
   4   -221.4999080  0.258666E-03  0.290E-02    1.13       1.0  T
   5   -221.5001737 -0.265709E-03  0.509E-03    1.13       1.8  T
   6   -221.5001798 -0.611262E-05  0.704E-04    1.13      12.8  T
   7   -221.5001799 -0.119235E-06  0.370E-04    1.13      24.4  T
   8   -221.5001799 -0.461552E-07  0.143E-04    1.13      63.1  T
   9   -221.5001799 -0.543909E-08  0.576E-05    1.13     156.5  T
     SCC iter.                  ...        0 min,  0.660 sec
     gradient                   ...        0 min,  0.370 sec
 * total energy  :  -218.0427038 Eh     change       -0.3704583E-01 Eh
   gradient norm :     0.0899525 Eh/α   predicted    -0.4049838E-01 (   9.32%)
   displ. norm   :     0.7048379 α      lambda       -0.4064582E-01
   maximum displ.:     0.5164292 α      in ANC's #42, #11, #4, ...

........................................................................
.............................. CYCLE   12 ..............................
........................................................................
   1   -221.5738318 -0.221574E+03  0.608E-02    1.13       0.0  T
   2   -221.5740379 -0.206191E-03  0.442E-02    1.13       1.0  T
   3   -221.5742850 -0.247061E-03  0.195E-02    1.13       1.0  T
   4   -221.5742419  0.431281E-04  0.174E-02    1.13       1.0  T
   5   -221.5743220 -0.801593E-04  0.616E-03    1.13       1.5  T
   6   -221.5743301 -0.806916E-05  0.179E-03    1.13       5.0  T
   7   -221.5743316 -0.153525E-05  0.320E-04    1.13      28.2  T
   8   -221.5743317 -0.251495E-07  0.143E-04    1.13      62.9  T
   9   -221.5743317 -0.291402E-08  0.618E-05    1.13     145.9  T
     SCC iter.                  ...        0 min,  0.644 sec
     gradient                   ...        0 min,  0.368 sec
 * total energy  :  -218.0697122 Eh     change       -0.2700849E-01 Eh
   gradient norm :     0.0817566 Eh/α   predicted    -0.3041926E-01 (  12.63%)
   displ. norm   :     0.7687235 α      lambda       -0.2874363E-01
   maximum displ.:     0.5609466 α      in ANC's #42, #11, #4, ...

........................................................................
.............................. CYCLE   13 ..............................
........................................................................
   1   -221.6336208 -0.221634E+03  0.452E-02    1.14       0.0  T
   2   -221.6336530 -0.322107E-04  0.432E-02    1.14       1.0  T
   3   -221.6339767 -0.323709E-03  0.173E-02    1.14       1.0  T
   4   -221.6339088  0.678830E-04  0.172E-02    1.14       1.0  T
   5   -221.6339908 -0.819407E-04  0.374E-03    1.14       2.4  T
   6   -221.6339929 -0.214861E-05  0.902E-04    1.14      10.0  T
   7   -221.6339932 -0.279871E-06  0.327E-04    1.14      27.6  T
   8   -221.6339932 -0.334035E-07  0.160E-04    1.14      56.5  T
   9   -221.6339932 -0.552558E-08  0.626E-05    1.14     144.1  T
     SCC iter.                  ...        0 min,  0.663 sec
     gradient                   ...        0 min,  0.380 sec
 * total energy  :  -218.0897179 Eh     change       -0.2000561E-01 Eh
   gradient norm :     0.0783532 Eh/α   predicted    -0.2286465E-01 (  14.29%)
   displ. norm   :     0.7225036 α      lambda       -0.2352228E-01
   maximum displ.:     0.5097621 α      in ANC's #42, #4, #11, ...

........................................................................
.............................. CYCLE   14 ..............................
........................................................................
   1   -221.6662510 -0.221666E+03  0.539E-02    1.10       0.0  T
   2   -221.6664452 -0.194223E-03  0.397E-02    1.10       1.0  T
   3   -221.6666382 -0.192997E-03  0.144E-02    1.10       1.0  T
   4   -221.6666066  0.316906E-04  0.145E-02    1.10       1.0  T
   5   -221.6666536 -0.470420E-04  0.487E-03    1.10       1.9  T
   6   -221.6666617 -0.806256E-05  0.119E-03    1.10       7.6  T
   7   -221.6666622 -0.492017E-06  0.404E-04    1.10      22.3  T
   8   -221.6666622 -0.597078E-07  0.171E-04    1.10      52.8  T
   9   -221.6666622 -0.704730E-08  0.746E-05    1.10     120.9  T
     SCC iter.                  ...        0 min,  0.648 sec
     gradient                   ...        0 min,  0.365 sec
 * total energy  :  -218.1032488 Eh     change       -0.1353093E-01 Eh
   gradient norm :     0.0759915 Eh/α   predicted    -0.1790059E-01 (  32.29%)
   displ. norm   :     0.6067315 α      lambda       -0.1530722E-01
   maximum displ.:     0.2852760 α      in ANC's #42, #11, #4, ...

........................................................................
.............................. CYCLE   15 ..............................
........................................................................
   1   -221.7064587 -0.221706E+03  0.238E-02    1.11       0.0  T
   2   -221.7065025 -0.437693E-04  0.229E-02    1.11       1.0  T
   3   -221.7065521 -0.496655E-04  0.100E-02    1.11       1.0  T
   4   -221.7065376  0.144846E-04  0.695E-03    1.11       1.3  T
   5   -221.7065514 -0.137129E-04  0.244E-03    1.11       3.7  T
   6   -221.7065530 -0.167350E-05  0.526E-04    1.11      17.1  T
   7   -221.7065531 -0.752861E-07  0.181E-04    1.11      49.8  T
   8   -221.7065531 -0.102515E-07  0.846E-05    1.11     106.5  T
     SCC iter.                  ...        0 min,  0.588 sec
     gradient                   ...        0 min,  0.367 sec
 * total energy  :  -218.1140426 Eh     change       -0.1079377E-01 Eh
   gradient norm :     0.0496468 Eh/α   predicted    -0.1047112E-01 (  -2.99%)
   displ. norm   :     0.7300478 α      lambda       -0.1167672E-01
   maximum displ.:     0.3878136 α      in ANC's #11, #4, #42, ...

........................................................................
.............................. CYCLE   16 ..............................
........................................................................
   1   -221.7354836 -0.221735E+03  0.260E-02    1.11       0.0  T
   2   -221.7355261 -0.424592E-04  0.205E-02    1.11       1.0  T
   3   -221.7355826 -0.564701E-04  0.750E-03    1.11       1.2  T
   4   -221.7355724  0.101288E-04  0.705E-03    1.11       1.3  T
   5   -221.7355851 -0.126673E-04  0.274E-03    1.11       3.3  T
   6   -221.7355874 -0.234660E-05  0.666E-04    1.11      13.5  T
   7   -221.7355876 -0.168554E-06  0.219E-04    1.11      41.1  T
   8   -221.7355876 -0.149787E-07  0.950E-05    1.11      94.9  T
   9   -221.7355876 -0.214405E-08  0.408E-05    1.11     221.1  T
     SCC iter.                  ...        0 min,  0.654 sec
     gradient                   ...        0 min,  0.359 sec
 * total energy  :  -218.1192894 Eh     change       -0.5246860E-02 Eh
   gradient norm :     0.0532830 Eh/α   predicted    -0.8950035E-02 (  70.58%)
   displ. norm   :     0.6595944 α      lambda       -0.1356231E-01
   maximum displ.:     0.3406859 α      in ANC's #4, #11, #12, ...

........................................................................
.............................. CYCLE   17 ..............................
........................................................................
   1   -221.7632940 -0.221763E+03  0.263E-02    1.08       0.0  T
   2   -221.7633342 -0.402510E-04  0.194E-02    1.09       1.0  T
   3   -221.7633575 -0.232361E-04  0.974E-03    1.09       1.0  T
   4   -221.7633436  0.139326E-04  0.735E-03    1.09       1.2  T
   5   -221.7633590 -0.154715E-04  0.204E-03    1.09       4.4  T
   6   -221.7633610 -0.194317E-05  0.566E-04    1.09      15.9  T
   7   -221.7633611 -0.104771E-06  0.185E-04    1.09      48.8  T
   8   -221.7633611 -0.123219E-07  0.837E-05    1.09     107.8  T
     SCC iter.                  ...        0 min,  0.576 sec
     gradient                   ...        0 min,  0.373 sec
 * total energy  :  -218.1262145 Eh     change       -0.6925107E-02 Eh
   gradient norm :     0.0495983 Eh/α   predicted    -0.9731408E-02 (  40.52%)
   displ. norm   :     0.5775079 α      lambda       -0.6858435E-02
   maximum displ.:     0.3781924 α      in ANC's #4, #11, #12, ...

........................................................................
.............................. CYCLE   18 ..............................
........................................................................
   1   -221.7774509 -0.221777E+03  0.160E-02    1.07       0.0  T
   2   -221.7774612 -0.103077E-04  0.154E-02    1.07       1.0  T
   3   -221.7774914 -0.301944E-04  0.517E-03    1.07       1.7  T
   4   -221.7774847  0.669501E-05  0.538E-03    1.07       1.7  T
   5   -221.7774921 -0.741370E-05  0.165E-03    1.07       5.5  T
   6   -221.7774925 -0.346211E-06  0.416E-04    1.07      21.7  T
   7   -221.7774925 -0.550860E-07  0.154E-04    1.07      58.7  T
   8   -221.7774926 -0.124299E-07  0.472E-05    1.07     190.9  T
     SCC iter.                  ...        0 min,  0.575 sec
     gradient                   ...        0 min,  0.372 sec
 * total energy  :  -218.1310308 Eh     change       -0.4816287E-02 Eh
   gradient norm :     0.0341591 Eh/α   predicted    -0.4572926E-02 (  -5.05%)
   displ. norm   :     0.7645126 α      lambda       -0.7203782E-02
   maximum displ.:     0.4646512 α      in ANC's #11, #4, #12, ...

........................................................................
.............................. CYCLE   19 ..............................
........................................................................
   1   -221.7930013 -0.221793E+03  0.114E-02    1.06       0.0  T
   2   -221.7930121 -0.107235E-04  0.947E-03    1.06       1.0  T
   3   -221.7930250 -0.128981E-04  0.373E-03    1.06       2.4  T
   4   -221.7930234  0.150702E-05  0.310E-03    1.06       2.9  T
   5   -221.7930248 -0.135341E-05  0.147E-03    1.06       6.1  T
   6   -221.7930257 -0.855678E-06  0.355E-04    1.06      25.4  T
   7   -221.7930257 -0.499931E-07  0.102E-04    1.06      88.2  T
   8   -221.7930257 -0.320759E-08  0.434E-05    1.06     208.0  T
     SCC iter.                  ...        0 min,  0.565 sec
     gradient                   ...        0 min,  0.364 sec
 * total energy  :  -218.1346743 Eh     change       -0.3643533E-02 Eh
   gradient norm :     0.0517728 Eh/α   predicted    -0.5707126E-02 (  56.64%)
   displ. norm   :     0.6601417 α      lambda       -0.8047732E-02
   maximum displ.:     0.4080589 α      in ANC's #11, #4, #12, ...

........................................................................
.............................. CYCLE   20 ..............................
........................................................................
   1   -221.8108941 -0.221811E+03  0.162E-02    1.06       0.0  T
   2   -221.8108977 -0.360021E-05  0.144E-02    1.06       1.0  T
   3   -221.8109302 -0.324914E-04  0.490E-03    1.06       1.8  T
   4   -221.8109251  0.508954E-05  0.527E-03    1.06       1.7  T
   5   -221.8109325 -0.735949E-05  0.183E-03    1.06       4.9  T
   6   -221.8109330 -0.504923E-06  0.420E-04    1.06      21.4  T
   7   -221.8109330 -0.785133E-07  0.142E-04    1.06      63.4  T
   8   -221.8109331 -0.889105E-08  0.432E-05    1.06     208.8  T
     SCC iter.                  ...        0 min,  0.570 sec
     gradient                   ...        0 min,  0.366 sec
 * total energy  :  -218.1401341 Eh     change       -0.5459781E-02 Eh
   gradient norm :     0.0350655 Eh/α   predicted    -0.5777419E-02 (   5.82%)
   displ. norm   :     0.7286971 α      lambda       -0.6516265E-02
   maximum displ.:     0.4500589 α      in ANC's #4, #11, #12, ...
 * RMSD in coord.:     0.8689184 α      energy gain  -0.2928529E+01 Eh

generating ANC from model Hessian ...
Using Lindh-Hessian (1995)
 Shifting diagonal of input Hessian by    1.0030809783149649E-002
 Lowest  eigenvalues of input Hessian
    0.010000    0.010002    0.010016    0.010018    0.010023    0.010024
    0.000000    0.000000    0.000000    0.000000    0.000000    0.000000
    0.010043    0.010047    0.010051    0.010131    0.010248    0.010314
 Highest eigenvalues
    2.369924    2.371829    2.683312    2.683434    2.883954    2.898581


........................................................................
.............................. CYCLE   21 ..............................
........................................................................
   1   -221.8257006 -0.221826E+03  0.133E-02    1.05       0.0  T
   2   -221.8257054 -0.477814E-05  0.121E-02    1.05       1.0  T
   3   -221.8257235 -0.180508E-04  0.480E-03    1.05       1.9  T
   4   -221.8257187  0.474874E-05  0.457E-03    1.05       2.0  T
   5   -221.8257238 -0.509393E-05  0.154E-03    1.05       5.9  T
   6   -221.8257246 -0.787853E-06  0.415E-04    1.05      21.7  T
   7   -221.8257247 -0.745443E-07  0.126E-04    1.05      71.3  T
   8   -221.8257247 -0.696988E-08  0.376E-05    1.05     240.0  T
     SCC iter.                  ...        0 min,  0.558 sec
     gradient                   ...        0 min,  0.377 sec
 * total energy  :  -218.1444082 Eh     change       -0.4274025E-02 Eh
   gradient norm :     0.0343538 Eh/α   predicted     0.0000000E+00 (-100.00%)
   displ. norm   :     0.4247574 α      lambda       -0.3632922E-02
   maximum displ.:     0.4113058 α      in ANC's #18, #41, #28, ...

........................................................................
.............................. CYCLE   22 ..............................
........................................................................
   1   -221.8373545 -0.221837E+03  0.735E-03    1.05       0.0  T
   2   -221.8373579 -0.334111E-05  0.540E-03    1.05       1.7  T
   3   -221.8373598 -0.196543E-05  0.251E-03    1.05       3.6  T
   4   -221.8373588  0.102142E-05  0.203E-03    1.05       4.5  T
   5   -221.8373599 -0.107687E-05  0.701E-04    1.05      12.9  T
   6   -221.8373600 -0.133636E-06  0.183E-04    1.05      49.3  T
   7   -221.8373600 -0.115561E-07  0.468E-05    1.05     192.7  T
     SCC iter.                  ...        0 min,  0.513 sec
     gradient                   ...        0 min,  0.369 sec
 * total energy  :  -218.1474825 Eh     change       -0.3074343E-02 Eh
   gradient norm :     0.0145060 Eh/α   predicted    -0.2145641E-02 ( -30.21%)
   displ. norm   :     0.6195936 α      lambda       -0.4627172E-02
   maximum displ.:     0.5357949 α      in ANC's #18, #17, #15, ...

........................................................................
.............................. CYCLE   23 ..............................
........................................................................
   1   -221.8482199 -0.221848E+03  0.120E-02    1.05       0.0  T
   2   -221.8482293 -0.937934E-05  0.928E-03    1.05       1.0  T
   3   -221.8482363 -0.699094E-05  0.379E-03    1.05       2.4  T
   4   -221.8482342  0.214733E-05  0.302E-03    1.05       3.0  T
   5   -221.8482362 -0.203332E-05  0.117E-03    1.05       7.7  T
   6   -221.8482366 -0.396255E-06  0.273E-04    1.05      33.1  T
   7   -221.8482366 -0.262406E-07  0.733E-05    1.05     123.0  T
   8   -221.8482366 -0.208487E-08  0.256E-05    1.05     351.7  T
     SCC iter.                  ...        0 min,  0.565 sec
     gradient                   ...        0 min,  0.379 sec
 * total energy  :  -218.1490998 Eh     change       -0.1617330E-02 Eh
   gradient norm :     0.0373262 Eh/α   predicted    -0.3201763E-02 (  97.97%)
   displ. norm   :     0.4581302 α      lambda       -0.5382058E-02
   maximum displ.:     0.4177923 α      in ANC's #18, #28, #32, ...

........................................................................
.............................. CYCLE   24 ..............................
........................................................................
   1   -221.8630816 -0.221863E+03  0.726E-03    1.04       0.0  T
   2   -221.8630832 -0.156810E-05  0.472E-03    1.04       1.9  T
   3   -221.8630837 -0.454435E-06  0.280E-03    1.04       3.2  T
   4   -221.8630829  0.804769E-06  0.208E-03    1.04       4.3  T
   5   -221.8630843 -0.144345E-05  0.482E-04    1.04      18.7  T
   6   -221.8630844 -0.106511E-06  0.110E-04    1.04      81.9  T
   7   -221.8630844 -0.456282E-08  0.327E-05    1.04     276.1  T
     SCC iter.                  ...        0 min,  0.520 sec
     gradient                   ...        0 min,  0.365 sec
 * total energy  :  -218.1528253 Eh     change       -0.3725487E-02 Eh
   gradient norm :     0.0248445 Eh/α   predicted    -0.3255834E-02 ( -12.61%)
   displ. norm   :     0.4784887 α      lambda       -0.2994361E-02
   maximum displ.:     0.4517314 α      in ANC's #18, #39, #16, ...

........................................................................
.............................. CYCLE   25 ..............................
........................................................................
   1   -221.8726725 -0.221873E+03  0.453E-03    1.04       0.0  T
   2   -221.8726738 -0.128303E-05  0.390E-03    1.04       2.3  T
   3   -221.8726759 -0.212480E-05  0.152E-03    1.04       5.9  T
   4   -221.8726756  0.321098E-06  0.136E-03    1.04       6.6  T
   5   -221.8726759 -0.394632E-06  0.391E-04    1.04      23.0  T
   6   -221.8726760 -0.435905E-07  0.105E-04    1.04      85.5  T
   7   -221.8726760 -0.359091E-08  0.250E-05    1.04     361.2  T
     SCC iter.                  ...        0 min,  0.485 sec
     gradient                   ...        0 min,  0.378 sec
 * total energy  :  -218.1547100 Eh     change       -0.1884672E-02 Eh
   gradient norm :     0.0172442 Eh/α   predicted    -0.1839973E-02 (  -2.37%)
   displ. norm   :     0.4812462 α      lambda       -0.3565189E-02
   maximum displ.:     0.4297129 α      in ANC's #18, #17, #22, ...

........................................................................
.............................. CYCLE   26 ..............................
........................................................................
   1   -221.8821190 -0.221882E+03  0.671E-03    1.03       0.0  T
   2   -221.8821208 -0.182644E-05  0.641E-03    1.03       1.4  T
   3   -221.8821260 -0.515634E-05  0.250E-03    1.03       3.6  T
   4   -221.8821246  0.135046E-05  0.238E-03    1.03       3.8  T
   5   -221.8821260 -0.141047E-05  0.787E-04    1.03      11.5  T
   6   -221.8821262 -0.115231E-06  0.192E-04    1.03      46.8  T
   7   -221.8821262 -0.124442E-07  0.495E-05    1.03     182.1  T
     SCC iter.                  ...        0 min,  0.521 sec
     gradient                   ...        0 min,  0.366 sec
 * total energy  :  -218.1566177 Eh     change       -0.1907684E-02 Eh
   gradient norm :     0.0188980 Eh/α   predicted    -0.2195443E-02 (  15.08%)
   displ. norm   :     0.4520112 α      lambda       -0.2897711E-02
   maximum displ.:     0.4028289 α      in ANC's #18, #16, #17, ...

........................................................................
.............................. CYCLE   27 ..............................
........................................................................
   1   -221.8926140 -0.221893E+03  0.399E-03    1.03       0.0  T
   2   -221.8926148 -0.785293E-06  0.288E-03    1.03       3.1  T
   3   -221.8926153 -0.483883E-06  0.147E-03    1.03       6.1  T
   4   -221.8926152  0.126447E-06  0.932E-04    1.03       9.7  T
   5   -221.8926154 -0.187077E-06  0.321E-04    1.03      28.1  T
   6   -221.8926154 -0.447429E-07  0.625E-05    1.03     144.3  T
   7   -221.8926154 -0.109370E-08  0.164E-05    1.03     550.0  T
     SCC iter.                  ...        0 min,  0.479 sec
     gradient                   ...        0 min,  0.367 sec
 * total energy  :  -218.1586678 Eh     change       -0.2050102E-02 Eh
   gradient norm :     0.0137393 Eh/α   predicted    -0.1744879E-02 ( -14.89%)
   displ. norm   :     0.5355890 α      lambda       -0.3108850E-02
   maximum displ.:     0.4674361 α      in ANC's #18, #13, #24, ...

........................................................................
.............................. CYCLE   28 ..............................
........................................................................
   1   -221.8980175 -0.221898E+03  0.625E-03    1.03       0.0  T
   2   -221.8980188 -0.134986E-05  0.520E-03    1.03       1.7  T
   3   -221.8980207 -0.191189E-05  0.248E-03    1.03       3.6  T
   4   -221.8980198  0.975552E-06  0.176E-03    1.03       5.1  T
   5   -221.8980208 -0.106826E-05  0.520E-04    1.03      17.3  T
   6   -221.8980209 -0.115457E-06  0.118E-04    1.03      76.5  T
   7   -221.8980210 -0.368044E-08  0.378E-05    1.03     238.3  T
     SCC iter.                  ...        0 min,  0.508 sec
     gradient                   ...        0 min,  0.366 sec
 * total energy  :  -218.1594837 Eh     change       -0.8159580E-03 Eh
   gradient norm :     0.0183808 Eh/α   predicted    -0.2000326E-02 ( 145.15%)
   displ. norm   :     0.4217597 α      lambda       -0.3892133E-02
   maximum displ.:     0.3372183 α      in ANC's #18, #13, #24, ...

........................................................................
.............................. CYCLE   29 ..............................
........................................................................
   1   -221.9085963 -0.221909E+03  0.725E-03    1.03       0.0  T
   2   -221.9085966 -0.284296E-06  0.601E-03    1.03       1.5  T
   3   -221.9086002 -0.365266E-05  0.275E-03    1.03       3.3  T
   4   -221.9085989  0.133377E-05  0.207E-03    1.03       4.3  T
   5   -221.9086006 -0.169682E-05  0.513E-04    1.03      17.6  T
   6   -221.9086007 -0.851113E-07  0.127E-04    1.03      71.1  T
   7   -221.9086007 -0.531807E-08  0.371E-05    1.03     242.8  T
     SCC iter.                  ...        0 min,  0.479 sec
     gradient                   ...        0 min,  0.388 sec
 * total energy  :  -218.1610375 Eh     change       -0.1553748E-02 Eh
   gradient norm :     0.0173355 Eh/α   predicted    -0.2292233E-02 (  47.53%)
   displ. norm   :     0.4651040 α      lambda       -0.3928646E-02
   maximum displ.:     0.3047015 α      in ANC's #18, #24, #14, ...

........................................................................
.............................. CYCLE   30 ..............................
........................................................................
   1   -221.9145794 -0.221915E+03  0.472E-03    1.03       0.0  T
   2   -221.9145807 -0.121316E-05  0.374E-03    1.03       2.4  T
   3   -221.9145817 -0.100290E-05  0.169E-03    1.03       5.3  T
   4   -221.9145813  0.343133E-06  0.122E-03    1.03       7.4  T
   5   -221.9145817 -0.341222E-06  0.417E-04    1.03      21.6  T
   6   -221.9145817 -0.607026E-07  0.858E-05    1.03     105.1  T
   7   -221.9145817 -0.202894E-08  0.311E-05    1.03     289.7  T
     SCC iter.                  ...        0 min,  0.526 sec
     gradient                   ...        0 min,  0.379 sec
 * total energy  :  -218.1615156 Eh     change       -0.4781530E-03 Eh
   gradient norm :     0.0171327 Eh/α   predicted    -0.2389253E-02 ( 399.68%)
   displ. norm   :     0.3016161 α      lambda       -0.3234684E-02
   maximum displ.:     0.2044992 α      in ANC's #18, #24, #17, ...

........................................................................
.............................. CYCLE   31 ..............................
........................................................................
   1   -221.9241695 -0.221924E+03  0.541E-03    1.03       0.0  T
   2   -221.9241702 -0.702602E-06  0.468E-03    1.03       1.9  T
   3   -221.9241716 -0.138285E-05  0.236E-03    1.03       3.8  T
   4   -221.9241712  0.379846E-06  0.115E-03    1.03       7.8  T
   5   -221.9241716 -0.418014E-06  0.290E-04    1.03      31.1  T
   6   -221.9241717 -0.327901E-07  0.781E-05    1.03     115.4  T
   7   -221.9241717 -0.196997E-08  0.255E-05    1.03     354.3  T
     SCC iter.                  ...        0 min,  0.482 sec
     gradient                   ...        0 min,  0.377 sec
 * total energy  :  -218.1634116 Eh     change       -0.1895925E-02 Eh
   gradient norm :     0.0095062 Eh/α   predicted    -0.1764479E-02 (  -6.93%)
   displ. norm   :     0.3499800 α      lambda       -0.1551327E-02
   maximum displ.:     0.3063978 α      in ANC's #18, #32, #24, ...

........................................................................
.............................. CYCLE   32 ..............................
........................................................................
   1   -221.9303810 -0.221930E+03  0.284E-03    1.02       0.0  T
   2   -221.9303815 -0.462423E-06  0.191E-03    1.02       4.7  T
   3   -221.9303819 -0.482556E-06  0.872E-04    1.02      10.3  T
   4   -221.9303819  0.609590E-07  0.737E-04    1.02      12.2  T
   5   -221.9303820 -0.158885E-06  0.140E-04    1.02      64.4  T
   6   -221.9303820 -0.358864E-08  0.584E-05    1.02     154.4  T
     SCC iter.                  ...        0 min,  0.457 sec
     gradient                   ...        0 min,  0.374 sec
 * total energy  :  -218.1643247 Eh     change       -0.9131564E-03 Eh
   gradient norm :     0.0083046 Eh/α   predicted    -0.8706678E-03 (  -4.65%)
   displ. norm   :     0.2719876 α      lambda       -0.8786380E-03
   maximum displ.:     0.2588120 α      in ANC's #18, #17, #16, ...

........................................................................
.............................. CYCLE   33 ..............................
........................................................................
   1   -221.9358534 -0.221936E+03  0.223E-03    1.02       0.0  T
   2   -221.9358537 -0.222858E-06  0.164E-03    1.02       5.5  T
   3   -221.9358540 -0.366952E-06  0.721E-04    1.02      12.5  T
   4   -221.9358540  0.693780E-07  0.623E-04    1.02      14.5  T
   5   -221.9358541 -0.120619E-06  0.979E-05    1.02      92.1  T
   6   -221.9358541 -0.211449E-08  0.421E-05    1.02     214.3  T
     SCC iter.                  ...        0 min,  0.434 sec
     gradient                   ...        0 min,  0.376 sec
 * total energy  :  -218.1651148 Eh     change       -0.7900963E-03 Eh
   gradient norm :     0.0069864 Eh/α   predicted    -0.4718191E-03 ( -40.28%)
   displ. norm   :     0.2893152 α      lambda       -0.9116151E-03
   maximum displ.:     0.2774734 α      in ANC's #18, #17, #16, ...

........................................................................
.............................. CYCLE   34 ..............................
........................................................................
   1   -221.9424598 -0.221942E+03  0.218E-03    1.02       0.0  T
   2   -221.9424600 -0.200407E-06  0.140E-03    1.02       6.4  T
   3   -221.9424602 -0.227512E-06  0.757E-04    1.02      11.9  T
   4   -221.9424602  0.234975E-07  0.572E-04    1.02      15.8  T
   5   -221.9424603 -0.982337E-07  0.115E-04    1.02      78.4  T
   6   -221.9424603 -0.487668E-08  0.393E-05    1.02     229.4  T
     SCC iter.                  ...        0 min,  0.430 sec
     gradient                   ...        0 min,  0.381 sec
 * total energy  :  -218.1658925 Eh     change       -0.7776464E-03 Eh
   gradient norm :     0.0052003 Eh/α   predicted    -0.4939690E-03 ( -36.48%)
   displ. norm   :     0.2882664 α      lambda       -0.7419909E-03
   maximum displ.:     0.2810761 α      in ANC's #18, #17, #24, ...

........................................................................
.............................. CYCLE   35 ..............................
........................................................................
   1   -221.9487828 -0.221949E+03  0.209E-03    1.02       0.0  T
   2   -221.9487830 -0.164807E-06  0.123E-03    1.02       7.4  T
   3   -221.9487831 -0.134833E-06  0.780E-04    1.02      11.6  T
   4   -221.9487831 -0.195036E-07  0.521E-04    1.02      17.3  T
   5   -221.9487832 -0.795721E-07  0.858E-05    1.02     105.1  T
   6   -221.9487832 -0.231694E-08  0.255E-05    1.02     353.8  T
     SCC iter.                  ...        0 min,  0.454 sec
     gradient                   ...        0 min,  0.376 sec
 * total energy  :  -218.1665620 Eh     change       -0.6695317E-03 Eh
   gradient norm :     0.0045902 Eh/α   predicted    -0.4018271E-03 ( -39.98%)
   displ. norm   :     0.2747322 α      lambda       -0.6424209E-03
   maximum displ.:     0.2687968 α      in ANC's #18, #17, #16, ...

........................................................................
.............................. CYCLE   36 ..............................
........................................................................
   1   -221.9545815 -0.221955E+03  0.202E-03    1.02       0.0  T
   2   -221.9545817 -0.145399E-06  0.117E-03    1.02       7.7  T
   3   -221.9545818 -0.118271E-06  0.772E-04    1.02      11.7  T
   4   -221.9545819 -0.419610E-07  0.488E-04    1.02      18.5  T
   5   -221.9545819 -0.619312E-07  0.790E-05    1.02     114.2  T
   6   -221.9545819 -0.217381E-08  0.194E-05    1.02     463.9  T
     SCC iter.                  ...        0 min,  0.434 sec
     gradient                   ...        0 min,  0.375 sec
 * total energy  :  -218.1671582 Eh     change       -0.5961770E-03 Eh
   gradient norm :     0.0034632 Eh/α   predicted    -0.3454590E-03 ( -42.05%)
   displ. norm   :     0.2665027 α      lambda       -0.5641746E-03
   maximum displ.:     0.2615272 α      in ANC's #18, #17, #40, ...

........................................................................
.............................. CYCLE   37 ..............................
........................................................................
   1   -221.9600599 -0.221960E+03  0.191E-03    1.02       0.0  T
   2   -221.9600601 -0.130303E-06  0.113E-03    1.02       8.0  T
   3   -221.9600602 -0.129017E-06  0.704E-04    1.02      12.8  T
   4   -221.9600602 -0.259095E-07  0.452E-04    1.02      19.9  T
   5   -221.9600603 -0.519594E-07  0.793E-05    1.02     113.6  T
   6   -221.9600603 -0.242383E-08  0.217E-05    1.02     416.1  T
     SCC iter.                  ...        0 min,  0.457 sec
     gradient                   ...        0 min,  0.381 sec
 * total energy  :  -218.1676750 Eh     change       -0.5167981E-03 Eh
   gradient norm :     0.0024469 Eh/α   predicted    -0.3021264E-03 ( -41.54%)
   displ. norm   :     0.2479735 α      lambda       -0.4414639E-03
   maximum displ.:     0.2427910 α      in ANC's #18, #17, #14, ...

........................................................................
.............................. CYCLE   38 ..............................
........................................................................
   1   -221.9652033 -0.221965E+03  0.172E-03    1.01       0.0  T
   2   -221.9652034 -0.114036E-06  0.976E-04    1.01       9.2  T
   3   -221.9652035 -0.824548E-07  0.627E-04    1.01      14.4  T
   4   -221.9652035 -0.137953E-07  0.395E-04    1.01      22.8  T
   5   -221.9652035 -0.422892E-07  0.691E-05    1.01     130.4  T
   6   -221.9652035 -0.188686E-08  0.166E-05    1.01     542.1  T
     SCC iter.                  ...        0 min,  0.440 sec
     gradient                   ...        0 min,  0.381 sec
 * total energy  :  -218.1680813 Eh     change       -0.4063640E-03 Eh
   gradient norm :     0.0020006 Eh/α   predicted    -0.2343077E-03 ( -42.34%)
   displ. norm   :     0.2123460 α      lambda       -0.3234180E-03
   maximum displ.:     0.2083876 α      in ANC's #18, #17, #14, ...

........................................................................
.............................. CYCLE   39 ..............................
........................................................................
   1   -221.9695357 -0.221970E+03  0.146E-03    1.01       0.0  T
   2   -221.9695358 -0.910676E-07  0.851E-04    1.01      10.6  T
   3   -221.9695358 -0.739238E-07  0.507E-04    1.01      17.8  T
   4   -221.9695358 -0.250381E-08  0.339E-04    1.01      26.6  T
   5   -221.9695359 -0.311024E-07  0.616E-05    1.01     146.3  T
   6   -221.9695359 -0.146179E-08  0.185E-05    1.01     487.0  T
     SCC iter.                  ...        0 min,  0.438 sec
     gradient                   ...        0 min,  0.389 sec
 * total energy  :  -218.1683834 Eh     change       -0.3020312E-03 Eh
   gradient norm :     0.0020541 Eh/α   predicted    -0.1690014E-03 ( -44.05%)
   displ. norm   :     0.1781431 α      lambda       -0.2412770E-03
   maximum displ.:     0.1745179 α      in ANC's #18, #17, #14, ...

........................................................................
.............................. CYCLE   40 ..............................
........................................................................
   1   -221.9732052 -0.221973E+03  0.123E-03    1.01       0.0  T
   2   -221.9732053 -0.694672E-07  0.707E-04    1.01      12.8  T
   3   -221.9732054 -0.529178E-07  0.417E-04    1.01      21.6  T
   4   -221.9732054  0.370250E-09  0.280E-04    1.01      32.2  T
   5   -221.9732054 -0.223883E-07  0.524E-05    1.01     172.0  T
   6   -221.9732054 -0.976939E-09  0.169E-05    1.01     534.9  T
     SCC iter.                  ...        0 min,  0.444 sec
     gradient                   ...        0 min,  0.374 sec
 * total energy  :  -218.1686111 Eh     change       -0.2276998E-03 Eh
   gradient norm :     0.0020608 Eh/α   predicted    -0.1244679E-03 ( -45.34%)
   displ. norm   :     0.1521473 α      lambda       -0.1886190E-03
   maximum displ.:     0.1490153 α      in ANC's #18, #17, #14, ...

........................................................................
.............................. CYCLE   41 ..............................
........................................................................
   1   -221.9763026 -0.221976E+03  0.107E-03    1.01       0.0  T
   2   -221.9763026 -0.559837E-07  0.613E-04    1.01      14.7  T
   3   -221.9763027 -0.428672E-07  0.352E-04    1.01      25.6  T
   4   -221.9763027  0.137780E-08  0.241E-04    1.01      37.5  T
   5   -221.9763027 -0.165878E-07  0.466E-05    1.01     193.6  T
   6   -221.9763027 -0.744279E-09  0.154E-05    1.01     585.9  T
     SCC iter.                  ...        0 min,  0.422 sec
     gradient                   ...        0 min,  0.379 sec
 * total energy  :  -218.1687901 Eh     change       -0.1790849E-03 Eh
   gradient norm :     0.0019870 Eh/α   predicted    -0.9649698E-04 ( -46.12%)
   displ. norm   :     0.2029789 α      lambda       -0.1556207E-03
   maximum displ.:     0.1985647 α      in ANC's #18, #17, #14, ...

........................................................................
.............................. CYCLE   42 ..............................
........................................................................
   1   -221.9804081 -0.221980E+03  0.143E-03    1.01       0.0  T
   2   -221.9804082 -0.102881E-06  0.815E-04    1.01      11.1  T
   3   -221.9804083 -0.765861E-07  0.468E-04    1.01      19.3  T
   4   -221.9804083  0.306662E-08  0.317E-04    1.01      28.4  T
   5   -221.9804083 -0.291276E-07  0.620E-05    1.01     145.4  T
   6   -221.9804083 -0.132002E-08  0.198E-05    1.01     455.9  T
     SCC iter.                  ...        0 min,  0.425 sec
     gradient                   ...        0 min,  0.377 sec
 * total energy  :  -218.1690066 Eh     change       -0.2164848E-03 Eh
   gradient norm :     0.0017666 Eh/α   predicted    -0.7923744E-04 ( -63.40%)
   displ. norm   :     0.1768098 α      lambda       -0.1198356E-03
   maximum displ.:     0.1730519 α      in ANC's #18, #17, #14, ...
 * RMSD in coord.:     0.6181684 α      energy gain  -0.2887250E-01 Eh

generating ANC from model Hessian ...
Using Lindh-Hessian (1995)
 Shifting diagonal of input Hessian by    1.0037272574688966E-002
 Lowest  eigenvalues of input Hessian
    0.010000    0.010007    0.010019    0.010022    0.010025    0.010026
    0.000000    0.000000    0.000000    0.000000    0.000000    0.000000
    0.010051    0.010053    0.010062    0.010070    0.010253    0.010312
 Highest eigenvalues
    2.468964    2.469392    2.790545    2.791153    3.013166    3.013929


........................................................................
.............................. CYCLE   43 ..............................
........................................................................
   1   -221.9839293 -0.221984E+03  0.122E-03    1.01       0.0  T
   2   -221.9839294 -0.713878E-07  0.693E-04    1.01      13.0  T
   3   -221.9839295 -0.527654E-07  0.412E-04    1.01      21.9  T
   4   -221.9839295  0.177985E-08  0.276E-04    1.01      32.6  T
   5   -221.9839295 -0.224801E-07  0.492E-05    1.01     183.2  T
   6   -221.9839295 -0.835769E-09  0.150E-05    1.01     602.5  T
     SCC iter.                  ...        0 min,  0.409 sec
     gradient                   ...        0 min,  0.380 sec
 * total energy  :  -218.1691733 Eh     change       -0.1666993E-03 Eh
   gradient norm :     0.0014864 Eh/α   predicted     0.0000000E+00 (-100.00%)
   displ. norm   :     0.1180972 α      lambda       -0.7069541E-04
   maximum displ.:     0.0916388 α      in ANC's #16, #15, #22, ...

........................................................................
.............................. CYCLE   44 ..............................
........................................................................
   1   -221.9867307 -0.221987E+03  0.814E-04    1.01       0.0  T
   2   -221.9867307 -0.213489E-07  0.496E-04    1.01      18.2  T
   3   -221.9867307 -0.265418E-07  0.299E-04    1.01      30.1  T
   4   -221.9867307 -0.156444E-08  0.211E-04    1.01      42.8  T
   5   -221.9867307 -0.133985E-07  0.221E-05    1.01     408.0  T
   6   -221.9867307 -0.118064E-09  0.672E-06    1.01    1341.6  T
     SCC iter.                  ...        0 min,  0.426 sec
     gradient                   ...        0 min,  0.372 sec
 * total energy  :  -218.1692625 Eh     change       -0.8918493E-04 Eh
   gradient norm :     0.0018821 Eh/α   predicted    -0.3561619E-04 ( -60.06%)
   displ. norm   :     0.2634343 α      lambda       -0.1600936E-03
   maximum displ.:     0.1899290 α      in ANC's #16, #15, #20, ...

........................................................................
.............................. CYCLE   45 ..............................
........................................................................
   1   -221.9925107 -0.221993E+03  0.179E-03    1.01       0.0  T
   2   -221.9925108 -0.109150E-06  0.108E-03    1.01       8.3  T
   3   -221.9925109 -0.133512E-06  0.650E-04    1.01      13.9  T
   4   -221.9925109 -0.128736E-07  0.456E-04    1.01      19.8  T
   5   -221.9925110 -0.599337E-07  0.537E-05    1.01     168.0  T
   6   -221.9925110 -0.749651E-09  0.172E-05    1.01     525.7  T
     SCC iter.                  ...        0 min,  0.420 sec
     gradient                   ...        0 min,  0.372 sec
 * total energy  :  -218.1694298 Eh     change       -0.1672893E-03 Eh
   gradient norm :     0.0026783 Eh/α   predicted    -0.8251706E-04 ( -50.67%)
   displ. norm   :     0.2114125 α      lambda       -0.1624852E-03
   maximum displ.:     0.1510793 α      in ANC's #16, #15, #21, ...

........................................................................
.............................. CYCLE   46 ..............................
........................................................................
   1   -221.9955871 -0.221996E+03  0.148E-03    1.01       0.0  T
   2   -221.9955872 -0.128634E-06  0.941E-04    1.01       9.6  T
   3   -221.9955873 -0.143979E-06  0.433E-04    1.01      20.8  T
   4   -221.9955873  0.259803E-08  0.333E-04    1.01      27.0  T
   5   -221.9955874 -0.291188E-07  0.676E-05    1.01     133.4  T
   6   -221.9955874 -0.107150E-08  0.275E-05    1.01     327.5  T
     SCC iter.                  ...        0 min,  0.435 sec
     gradient                   ...        0 min,  0.362 sec
 * total energy  :  -218.1694859 Eh     change       -0.5614680E-04 Eh
   gradient norm :     0.0032413 Eh/α   predicted    -0.8487381E-04 (  51.16%)
   displ. norm   :     0.2378442 α      lambda       -0.2138148E-03
   maximum displ.:     0.1619160 α      in ANC's #16, #15, #20, ...

........................................................................
.............................. CYCLE   47 ..............................
........................................................................
   1   -221.9984664 -0.221998E+03  0.173E-03    1.00       0.0  T
   2   -221.9984666 -0.180621E-06  0.109E-03    1.00       8.3  T
   3   -221.9984668 -0.181624E-06  0.524E-04    1.00      17.2  T
   4   -221.9984668 -0.802711E-08  0.377E-04    1.00      23.9  T
   5   -221.9984668 -0.288363E-07  0.103E-04    1.00      87.2  T
   6   -221.9984668 -0.358264E-08  0.377E-05    1.00     239.4  T
     SCC iter.                  ...        0 min,  0.426 sec
     gradient                   ...        0 min,  0.371 sec
 * total energy  :  -218.1695987 Eh     change       -0.1127595E-03 Eh
   gradient norm :     0.0028679 Eh/α   predicted    -0.1129552E-03 (   0.17%)
   displ. norm   :     0.2095132 α      lambda       -0.1307989E-03
   maximum displ.:     0.1601836 α      in ANC's #16, #15, #20, ...

........................................................................
.............................. CYCLE   48 ..............................
........................................................................
   1   -222.0019710 -0.222002E+03  0.133E-03    1.00       0.0  T
   2   -222.0019711 -0.854926E-07  0.716E-04    1.00      12.6  T
   3   -222.0019712 -0.539867E-07  0.450E-04    1.00      20.1  T
   4   -222.0019712 -0.848345E-08  0.282E-04    1.00      32.0  T
   5   -222.0019712 -0.175628E-07  0.673E-05    1.00     134.0  T
   6   -222.0019712 -0.190002E-08  0.158E-05    1.00     570.9  T
     SCC iter.                  ...        0 min,  0.408 sec
     gradient                   ...        0 min,  0.375 sec
 * total energy  :  -218.1696131 Eh     change       -0.1437796E-04 Eh
   gradient norm :     0.0034670 Eh/α   predicted    -0.6827438E-04 ( 374.85%)
   displ. norm   :     0.0748355 α      lambda       -0.9095885E-04
   maximum displ.:     0.0442251 α      in ANC's #15, #16, #30, ...

........................................................................
.............................. CYCLE   49 ..............................
........................................................................
   1   -222.0044144 -0.222004E+03  0.639E-04    1.00       0.0  T
   2   -222.0044144 -0.120871E-07  0.487E-04    1.00      18.5  T
   3   -222.0044144 -0.125143E-07  0.264E-04    1.00      34.2  T
   4   -222.0044144  0.125519E-08  0.111E-04    1.00      81.4  T
   5   -222.0044144 -0.323459E-08  0.514E-05    1.00     175.3  T
     SCC iter.                  ...        0 min,  0.360 sec
     gradient                   ...        0 min,  0.373 sec
 * total energy  :  -218.1696545 Eh     change       -0.4145229E-04 Eh
   gradient norm :     0.0012577 Eh/α   predicted    -0.4573648E-04 (  10.34%)
   displ. norm   :     0.0535726 α      lambda       -0.1906249E-04
   maximum displ.:     0.0278566 α      in ANC's #16, #13, #39, ...

........................................................................
.............................. CYCLE   50 ..............................
........................................................................
   1   -222.0055495 -0.222006E+03  0.345E-04    1.00       0.0  T
   2   -222.0055495 -0.770299E-08  0.194E-04    1.00      46.4  T
   3   -222.0055495 -0.290220E-08  0.105E-04    1.00      85.8  T
     SCC iter.                  ...        0 min,  0.216 sec
     gradient                   ...        0 min,  0.366 sec
 * total energy  :  -218.1696457 Eh     change        0.8885140E-05 Eh
   gradient norm :     0.0015850 Eh/α   predicted    -0.9545457E-05 (-207.43%)
   displ. norm   :     0.0372202 α      lambda       -0.2368147E-04
   maximum displ.:     0.0161916 α      in ANC's #16, #39, #15, ...

........................................................................
.............................. CYCLE   51 ..............................
........................................................................
   1   -222.0058365 -0.222006E+03  0.252E-04    1.00       0.0  T
   2   -222.0058365 -0.366148E-08  0.171E-04    1.00      52.6  T
   3   -222.0058365 -0.373512E-08  0.778E-05    1.00     115.9  T
     SCC iter.                  ...        0 min,  0.208 sec
     gradient                   ...        0 min,  0.379 sec
 * total energy  :  -218.1696625 Eh     change       -0.1680248E-04 Eh
   gradient norm :     0.0006520 Eh/α   predicted    -0.1185151E-04 ( -29.47%)
   displ. norm   :     0.0216174 α      lambda       -0.4378517E-05
   maximum displ.:     0.0108002 α      in ANC's #15, #61, #21, ...

........................................................................
.............................. CYCLE   52 ..............................
........................................................................
   1   -222.0055835 -0.222006E+03  0.168E-04    1.00       0.0  T
   2   -222.0055835 -0.224554E-08  0.101E-04    1.00      89.6  T
   3   -222.0055835 -0.182939E-08  0.481E-05    1.00     187.6  T
     SCC iter.                  ...        0 min,  0.217 sec
     gradient                   ...        0 min,  0.372 sec
 * total energy  :  -218.1696630 Eh     change       -0.5761221E-06 Eh
   gradient norm :     0.0006750 Eh/α   predicted    -0.2191016E-05 ( 280.30%)
   displ. norm   :     0.0158852 α      lambda       -0.3327698E-05
   maximum displ.:     0.0072681 α      in ANC's #27, #28, #13, ...

   *** GEOMETRY OPTIMIZATION CONVERGED AFTER 52 ITERATIONS ***

------------------------------------------------------------------------
 total energy gain   :        -2.9580580 Eh    -1856.2094 kcal/mol
 total RMSD          :         1.3574492 a0        0.7183 Å
 total power (kW/mol):      -149.3534647 (step) -125.3492 (real)
------------------------------------------------------------------------

 ANCopt (total)                0 d,  0 h,  1 min,  1.958 sec
 optimizer setup                ...        0 min,  0.000 sec (  0.001%)
 model hessian                  ...        0 min,  0.136 sec (  0.220%)
 ANC generation                 ...        0 min,  0.099 sec (  0.160%)
 coordinate transformation      ...        0 min,  0.011 sec (  0.018%)
 single point calculation       ...        1 min,  1.611 sec ( 99.440%)
 optimization log               ...        0 min,  0.039 sec (  0.062%)
 hessian update                 ...        0 min,  0.009 sec (  0.015%)
 rational function              ...        0 min,  0.046 sec (  0.074%)

================
 final structure:
================
123
 xtb: 6.5.1 (b24c23e)
Zn          10.99629746376189       -0.01639658908288       -0.01579230591704
C            7.56904364711297       -0.04417445109321       -0.04651851638879
C            8.20778466091723       -0.91616123797182       -0.92148305674888
C            7.55045422565153       -1.81916352271926       -1.82832646043785
C            8.52209857462660       -2.48748705296530       -2.49900125125461
C            9.78400115403925       -2.00063349357904       -2.00950767701728
[...]
 ---------------------------------------------------------------------------
     1  30 Zn   1.997 --    25 N    0.461     7 N    0.460    12 N    0.456
                            19 N    0.456
     2   6 C    3.932 --    24 C    1.358     3 C    1.358    26 H    0.972
     3   6 C    3.922 --     2 C    1.358     7 N    1.238     4 C    1.166
     4   6 C    3.960 --     5 C    1.665     3 C    1.166    27 H    0.976
     5   6 C    3.963 --     4 C    1.665     6 C    1.167    28 H    0.976
     6   6 C    3.919 --     8 C    1.353     7 N    1.239     5 C    1.167
     7   7 N    3.297 --     6 C    1.239     3 C    1.238     1 Zn   0.460
     8   6 C    3.939 --     9 C    1.366     6 C    1.353    29 H    0.971
     9   6 C    3.913 --     8 C    1.366    12 N    1.219    10 C    1.172
    10   6 C    3.959 --    11 C    1.653     9 C    1.172    30 H    0.976
    11   6 C    3.962 --    10 C    1.653    13 C    1.180    31 H    0.974
    12   7 N    3.300 --    13 C    1.270     9 C    1.219     1 Zn   0.456
    13   6 C    3.901 --    12 N    1.270    14 C    1.252    11 C    1.180
    14   6 C    3.943 --    15 C    1.253    13 C    1.252    73 C    1.195
    15   6 C    3.901 --    19 N    1.270    14 C    1.253    16 C    1.180
    16   6 C    3.962 --    17 C    1.653    15 C    1.180    32 H    0.974
    17   6 C    3.959 --    16 C    1.653    18 C    1.172    33 H    0.976
    18   6 C    3.913 --    20 C    1.366    19 N    1.219    17 C    1.172
    19   7 N    3.300 --    15 C    1.270    18 C    1.219     1 Zn   0.456
    20   6 C    3.939 --    18 C    1.366    21 C    1.354    34 H    0.971
    21   6 C    3.919 --    20 C    1.354    25 N    1.239    22 C    1.167
    22   6 C    3.963 --    23 C    1.665    21 C    1.167    35 H    0.976
    23   6 C    3.960 --    22 C    1.665    24 C    1.166    36 H    0.976
    24   6 C    3.922 --     2 C    1.358    25 N    1.238    23 C    1.166
    25   7 N    3.297 --    21 C    1.239    24 C    1.238     1 Zn   0.461
    26   1 H    1.001 --     2 C    0.972
    27   1 H    0.998 --     4 C    0.976
    28   1 H    0.998 --     5 C    0.976
    29   1 H    1.002 --     8 C    0.971
    30   1 H    0.998 --    10 C    0.976
    31   1 H    1.002 --    11 C    0.974
    32   1 H    1.002 --    16 C    0.974
    33   1 H    0.998 --    17 C    0.976
    34   1 H    1.002 --    20 C    0.971
    35   1 H    0.998 --    22 C    0.976
    36   1 H    0.998 --    23 C    0.976
    37  30 Zn   1.997 --    61 N    0.461    43 N    0.460    48 N    0.456
                            55 N    0.456
    38   6 C    3.932 --    60 C    1.358    39 C    1.358    62 H    0.972
    39   6 C    3.922 --    38 C    1.358    43 N    1.238    40 C    1.166
    40   6 C    3.960 --    41 C    1.665    39 C    1.166    63 H    0.976
    41   6 C    3.963 --    40 C    1.665    42 C    1.167    64 H    0.976
    42   6 C    3.919 --    44 C    1.354    43 N    1.239    41 C    1.167
    43   7 N    3.297 --    42 C    1.239    39 C    1.238    37 Zn   0.460
    44   6 C    3.939 --    45 C    1.366    42 C    1.354    65 H    0.971
    45   6 C    3.914 --    44 C    1.366    48 N    1.219    46 C    1.172
    46   6 C    3.959 --    47 C    1.654    45 C    1.172    66 H    0.976
    47   6 C    3.962 --    46 C    1.654    49 C    1.180    67 H    0.974
    48   7 N    3.300 --    49 C    1.269    45 C    1.219    37 Zn   0.456
    49   6 C    3.902 --    48 N    1.269    50 C    1.254    47 C    1.180
    50   6 C    3.944 --    51 C    1.254    49 C    1.254    88 C    1.192
    51   6 C    3.902 --    55 N    1.269    50 C    1.254    52 C    1.180
    52   6 C    3.962 --    53 C    1.654    51 C    1.180    68 H    0.974
    53   6 C    3.959 --    52 C    1.654    54 C    1.172    69 H    0.976
    54   6 C    3.914 --    56 C    1.366    55 N    1.219    53 C    1.172
    55   7 N    3.300 --    51 C    1.269    54 C    1.219    37 Zn   0.456
    56   6 C    3.939 --    54 C    1.366    57 C    1.354    70 H    0.971
    57   6 C    3.919 --    56 C    1.354    61 N    1.239    58 C    1.167
    58   6 C    3.963 --    59 C    1.665    57 C    1.167    71 H    0.976
    59   6 C    3.960 --    58 C    1.665    60 C    1.166    72 H    0.976
    60   6 C    3.922 --    38 C    1.358    61 N    1.238    59 C    1.166
    61   7 N    3.298 --    57 C    1.239    60 C    1.238    37 Zn   0.461
    62   1 H    1.001 --    38 C    0.972
    63   1 H    0.998 --    40 C    0.976
    64   1 H    0.998 --    41 C    0.976
    65   1 H    1.002 --    44 C    0.971
    66   1 H    0.998 --    46 C    0.976
    67   1 H    1.002 --    47 C    0.974
    68   1 H    1.002 --    52 C    0.974
    69   1 H    0.998 --    53 C    0.976
    70   1 H    1.002 --    56 C    0.971
    71   1 H    0.998 --    58 C    0.976
    72   1 H    0.998 --    59 C    0.976
    73   6 C    3.876 --    74 C    2.436    14 C    1.195    76 C    0.186
    74   6 C    3.935 --    73 C    2.436    75 C    1.346
    75   6 C    3.892 --    76 C    2.334    74 C    1.346    78 C    0.182
    76   6 C    3.925 --    75 C    2.334    77 C    1.371    73 C    0.186
    77   6 C    3.924 --    78 C    2.333    76 C    1.371    80 C    0.186
    78   6 C    3.893 --    77 C    2.333    79 C    1.347    75 C    0.182
    79   6 C    3.932 --    80 C    2.434    78 C    1.347
    80   6 C    3.877 --    79 C    2.434    90 C    1.197    77 C    0.186
    81   6 C    3.877 --    82 C    2.437   102 C    1.195    84 C    0.186
    82   6 C    3.932 --    81 C    2.437    83 C    1.344
    83   6 C    3.892 --    84 C    2.336    82 C    1.344    86 C    0.182
    84   6 C    3.923 --    83 C    2.336    85 C    1.368    81 C    0.186
    85   6 C    3.925 --    86 C    2.336    84 C    1.368    88 C    0.186
    86   6 C    3.892 --    85 C    2.336    87 C    1.343    83 C    0.182
    87   6 C    3.935 --    88 C    2.439    86 C    1.343
    88   6 C    3.876 --    87 C    2.439    50 C    1.192    85 C    0.186
    89  30 Zn   1.993 --   113 N    0.457   100 N    0.456    95 N    0.456
                           107 N    0.456
    90   6 C    3.931 --    91 C    1.250   112 C    1.250    80 C    1.197
    91   6 C    3.901 --    95 N    1.269    90 C    1.250    92 C    1.183
    92   6 C    3.960 --    93 C    1.650    91 C    1.183   114 H    0.974
    93   6 C    3.959 --    92 C    1.650    94 C    1.175   115 H    0.976
    94   6 C    3.911 --    96 C    1.361    95 N    1.219    93 C    1.175
    95   7 N    3.294 --    91 C    1.269    94 C    1.219    89 Zn   0.456
    96   6 C    3.934 --    94 C    1.361    97 C    1.361   116 H    0.971
    97   6 C    3.911 --    96 C    1.361   100 N    1.219    98 C    1.175
    98   6 C    3.960 --    99 C    1.650    97 C    1.175   117 H    0.976
    99   6 C    3.960 --    98 C    1.650   101 C    1.182   118 H    0.974
   100   7 N    3.294 --   101 C    1.269    97 C    1.219    89 Zn   0.456
   101   6 C    3.902 --   100 N    1.269   102 C    1.251    99 C    1.182
   102   6 C    3.931 --   103 C    1.252   101 C    1.251    81 C    1.195
   103   6 C    3.902 --   107 N    1.269   102 C    1.252   104 C    1.182
   104   6 C    3.960 --   105 C    1.650   103 C    1.182   119 H    0.974
   105   6 C    3.960 --   104 C    1.650   106 C    1.175   120 H    0.976
   106   6 C    3.911 --   108 C    1.361   107 N    1.219   105 C    1.175
   107   7 N    3.294 --   103 C    1.269   106 C    1.219    89 Zn   0.456
   108   6 C    3.934 --   109 C    1.361   106 C    1.361   121 H    0.971
   109   6 C    3.911 --   108 C    1.361   113 N    1.219   110 C    1.176
   110   6 C    3.959 --   111 C    1.650   109 C    1.176   122 H    0.976
   111   6 C    3.960 --   110 C    1.650   112 C    1.183   123 H    0.974
   112   6 C    3.901 --   113 N    1.269    90 C    1.250   111 C    1.183
   113   7 N    3.295 --   112 C    1.269   109 C    1.219    89 Zn   0.457
   114   1 H    1.002 --    92 C    0.974
   115   1 H    0.998 --    93 C    0.976
   116   1 H    1.001 --    96 C    0.971
   117   1 H    0.998 --    98 C    0.976
   118   1 H    1.002 --    99 C    0.974
   119   1 H    1.002 --   104 C    0.974
   120   1 H    0.998 --   105 C    0.976
   121   1 H    1.001 --   108 C    0.971
   122   1 H    0.998 --   110 C    0.976
   123   1 H    1.002 --   111 C    0.974
 ---------------------------------------------------------------------------

Topologies differ in total number of bonds
Writing topology from bond orders to xtbtopo.mol

 dipole moment from electron density (au)
     X       Y       Z   
  -0.0175   0.0020  -0.0031  total (Debye):    0.045

           -------------------------------------------------
          |                Geometry Summary                 |
           -------------------------------------------------

      molecular mass/u    :     1309.2838185
   center of mass at/Å    :       29.6504706      -0.0151786      -0.0123024
  moments of inertia/u·Å² :        0.5665173E+04   0.2844536E+06   0.2886137E+06
rotational constants/cm⁻¹ :        0.2975661E-02   0.5926320E-04   0.5840898E-04

 * 124 selected distances

     #   Z          #   Z                                           value/Å
     2   6 C        3   6 C                                       1.3906525
     3   6 C        4   6 C                                       1.4387014
     4   6 C        5   6 C                                       1.3566702
     5   6 C        6   6 C                                       1.4384119
     3   6 C        7   7 N                                       1.3641298
     6   6 C        7   7 N                                       1.3635711
     6   6 C        8   6 C                                       1.3909429
     8   6 C        9   6 C                                       1.3893446
     9   6 C       10   6 C                                       1.4364262
    10   6 C       11   6 C                                       1.3575734
     9   6 C       12   7 N                                       1.3690599
    11   6 C       13   6 C                                       1.4360474
    12   7 N       13   6 C                                       1.3581200
    13   6 C       14   6 C                                       1.4107077
    14   6 C       15   6 C                                       1.4104867
    15   6 C       16   6 C                                       1.4360128
    16   6 C       17   6 C                                       1.3576209
    17   6 C       18   6 C                                       1.4364799
    15   6 C       19   7 N                                       1.3581957
    18   6 C       19   7 N                                       1.3690167
    18   6 C       20   6 C                                       1.3894000
    20   6 C       21   6 C                                       1.3909780
    21   6 C       22   6 C                                       1.4384228
    22   6 C       23   6 C                                       1.3566733
     2   6 C       24   6 C                                       1.3906562
    23   6 C       24   6 C                                       1.4386741
    21   6 C       25   7 N                                       1.3636098
    24   6 C       25   7 N                                       1.3641708
     2   6 C       26   1 H                                       1.0855923
     4   6 C       27   1 H                                       1.0789790
     5   6 C       28   1 H                                       1.0789793
     8   6 C       29   1 H                                       1.0857460
    10   6 C       30   1 H                                       1.0788067
    11   6 C       31   1 H                                       1.0785762
    16   6 C       32   1 H                                       1.0786017
    17   6 C       33   1 H                                       1.0788196
    20   6 C       34   1 H                                       1.0857532
    22   6 C       35   1 H                                       1.0789777
    23   6 C       36   1 H                                       1.0789825
    38   6 C       39   6 C                                       1.3906400
    39   6 C       40   6 C                                       1.4387147 (max)
    40   6 C       41   6 C                                       1.3566558
    41   6 C       42   6 C                                       1.4384548
    39   6 C       43   7 N                                       1.3641312
    42   6 C       43   7 N                                       1.3635741
    42   6 C       44   6 C                                       1.3909310
    44   6 C       45   6 C                                       1.3894112
    45   6 C       46   6 C                                       1.4364963
    46   6 C       47   6 C                                       1.3575533
    45   6 C       48   7 N                                       1.3689459
    47   6 C       49   6 C                                       1.4361106
    48   7 N       49   6 C                                       1.3582992
    49   6 C       50   6 C                                       1.4104395
    50   6 C       51   6 C                                       1.4102142
    51   6 C       52   6 C                                       1.4360718
    52   6 C       53   6 C                                       1.3575550
    53   6 C       54   6 C                                       1.4365247
    51   6 C       55   7 N                                       1.3582772
    54   6 C       55   7 N                                       1.3689120
    54   6 C       56   6 C                                       1.3894038
    56   6 C       57   6 C                                       1.3909268
    57   6 C       58   6 C                                       1.4384371
    58   6 C       59   6 C                                       1.3566528
    38   6 C       60   6 C                                       1.3906446
    59   6 C       60   6 C                                       1.4386973
    57   6 C       61   7 N                                       1.3636162
    60   6 C       61   7 N                                       1.3641672
    38   6 C       62   1 H                                       1.0855922
    40   6 C       63   1 H                                       1.0789826
    41   6 C       64   1 H                                       1.0789790
    44   6 C       65   1 H                                       1.0857445
    46   6 C       66   1 H                                       1.0788134
    47   6 C       67   1 H                                       1.0785777
    52   6 C       68   1 H                                       1.0786059
    53   6 C       69   1 H                                       1.0788204
    56   6 C       70   1 H                                       1.0857465
    58   6 C       71   1 H                                       1.0789797
    59   6 C       72   1 H                                       1.0789814
    73   6 C       74   6 C                                       1.2249088
    75   6 C       76   6 C                                       1.2310108
    77   6 C       78   6 C                                       1.2310307
    79   6 C       80   6 C                                       1.2250931
    81   6 C       82   6 C                                       1.2248794
    83   6 C       84   6 C                                       1.2308100
    85   6 C       86   6 C                                       1.2307662
    87   6 C       88   6 C                                       1.2247292
    90   6 C       91   6 C                                       1.4107826
    91   6 C       92   6 C                                       1.4354160
    92   6 C       93   6 C                                       1.3579685
    93   6 C       94   6 C                                       1.4355887
    91   6 C       95   7 N                                       1.3581933
    94   6 C       95   7 N                                       1.3687330
    94   6 C       96   6 C                                       1.3895654
    96   6 C       97   6 C                                       1.3895971
    97   6 C       98   6 C                                       1.4356174
    98   6 C       99   6 C                                       1.3579187
    97   6 C      100   7 N                                       1.3686726
    99   6 C      101   6 C                                       1.4354735
   100   7 N      101   6 C                                       1.3583038
   101   6 C      102   6 C                                       1.4106228
   102   6 C      103   6 C                                       1.4105270
   103   6 C      104   6 C                                       1.4354766
   104   6 C      105   6 C                                       1.3579532
   105   6 C      106   6 C                                       1.4356566
   103   6 C      107   7 N                                       1.3583435
   106   6 C      107   7 N                                       1.3686412
   106   6 C      108   6 C                                       1.3896376
   108   6 C      109   6 C                                       1.3896146
   109   6 C      110   6 C                                       1.4355975
   110   6 C      111   6 C                                       1.3579832
    90   6 C      112   6 C                                       1.4108333
   111   6 C      112   6 C                                       1.4354134
   109   6 C      113   7 N                                       1.3687546
   112   6 C      113   7 N                                       1.3582506
    92   6 C      114   1 H                                       1.0785592
    93   6 C      115   1 H                                       1.0787773
    96   6 C      116   1 H                                       1.0858544
    98   6 C      117   1 H                                       1.0787745
    99   6 C      118   1 H                                       1.0785540 (min)
   104   6 C      119   1 H                                       1.0785643
   105   6 C      120   1 H                                       1.0787842
   108   6 C      121   1 H                                       1.0858628
   110   6 C      122   1 H                                       1.0787782
   111   6 C      123   1 H                                       1.0785597

 * 3 distinct bonds (by element types)

   Z      Z             #   av. dist./Å        max./Å        min./Å
   1 H    6 C          32     1.0805221     1.0858628     1.0785540
   6 C    6 C          68     1.3841454     1.4387147     1.2247292
   6 C    7 N          24     1.3636537     1.3690599     1.3581200


optimized geometry written to: xtbopt.xyz


           -------------------------------------------------
          | TOTAL ENERGY             -218.169663030119 Eh   |
          | GRADIENT NORM               0.000674884569 Eh/α |
          | HOMO-LUMO GAP               1.003496600774 eV   |
           -------------------------------------------------

------------------------------------------------------------------------
 * finished run on 2022/07/30 at 07:05:22.739     
------------------------------------------------------------------------
 total:
 * wall-time:     0 d,  0 h,  1 min,  6.946 sec
 *  cpu-time:     0 d,  0 h,  1 min,  6.388 sec
 * ratio c/w:     0.992 speedup
 SCF:
 * wall-time:     0 d,  0 h,  0 min,  3.998 sec
 *  cpu-time:     0 d,  0 h,  0 min,  3.967 sec
 * ratio c/w:     0.992 speedup
 ANC optimizer:
 * wall-time:     0 d,  0 h,  1 min,  2.766 sec
 *  cpu-time:     0 d,  0 h,  1 min,  2.244 sec
 * ratio c/w:     0.992 speedup

