246
 energy: -422.343811897778 gnorm: 1.779246274233 xtb: 6.5.1 (b24c23e)
Fe          34.64140099999999        0.06486300000000        0.01445400000000
C           31.30483800000000       -0.09120700000000        0.00404200000000
C           31.96894800000000       -1.24341100000000       -0.12378700000000
C           31.31926899999999       -2.54015200000000       -0.27417700000000
C           32.26109800000000       -3.46386500000000       -0.32156900000000
C           33.56592700000000       -2.79944400000000       -0.20210100000000
N           33.38764100000000       -1.38786500000000       -0.08166500000000
C           34.75613100000000       -3.43117100000000       -0.15692100000000
C           36.04976300000000       -2.71513300000000       -0.00645300000000
C           37.34030700000000       -3.38993100000000        0.17845800000000
C           38.27502200000000       -2.46345500000000        0.23625200000000
N           36.19038100000000       -1.42607800000000       -0.06642100000000
C           37.58988700000000       -1.18604200000000        0.08085100000000
C           38.18446000000000        0.01638600000000        0.01016200000000
C           37.42344600000000        1.27397000000000       -0.16874800000000
C           37.96041400000000        2.41904100000000       -0.57095200000000
C           36.91667900000000        3.42379100000000       -0.52889400000000
C           35.81066100000000        2.82734600000000       -0.09960100000000
C           34.52555300000000        3.52936000000000        0.15160200000000
C           34.54467300000000        5.00416000000000        0.30956300000000
C           33.88540999999999        5.83011300000000       -0.61668500000000
C           33.92411200000000        7.22022600000000       -0.47158800000000
C           34.62566700000000        7.79418500000000        0.59238800000000
C           35.29171100000000        6.97895100000000        1.51188600000000
C           35.25491599999999        5.58829800000000        1.37096300000000
C           33.36050500000000        2.85935700000000        0.24030500000000
C           32.04814600000000        3.44029400000000        0.51908800000000
C           31.18655300000000        2.44322100000000        0.46660400000000
C           31.93953500000000        1.22627300000000        0.16832100000000
N           33.20768600000000        1.45638000000000        0.03488800000000
N           36.04042000000000        1.43872000000000        0.14742300000000
C           34.79491200000000       -4.90608000000000       -0.24882900000000
C           34.69392300000000       -5.53823200000000       -1.49772400000000
C           34.73201500000000       -6.93348000000000       -1.58231700000000
C           34.87193100000000       -7.70201400000000       -0.42271700000000
C           34.97377900000000       -7.07643100000000        0.82353400000000
C           34.93539800000000       -5.68148100000000        0.91238600000000
H           30.22143700000000       -0.11980700000000        0.00105300000000
H           30.25494300000000       -2.72986900000000       -0.32870000000000
H           32.07566500000000       -4.52573100000000       -0.41935400000000
H           37.51772600000000       -4.45478200000000        0.25056300000000
H           39.33369200000000       -2.64793900000000        0.36110400000000
H           38.98975399999999        2.58672300000000       -0.85811300000000
H           37.02952900000000        4.47043400000000       -0.78031300000000
H           33.34655000000000        5.39680100000000       -1.45036600000000
H           33.41284000000000        7.85266500000000       -1.18574100000000
H           34.65556700000000        8.87045400000000        0.70268200000000
H           35.83751200000000        7.42471200000000        2.33335800000000
H           35.77600600000000        4.96640500000000        2.08858200000000
H           31.80330100000000        4.47250200000000        0.73202600000000
H           30.11927700000000        2.52469000000000        0.62547900000000
H           34.58584800000000       -4.95068200000000       -2.40118400000000
H           34.65345200000000       -7.41894300000000       -2.54643900000000
H           34.90156900000000       -8.78183200000000       -0.48985500000000
H           35.08237700000000       -7.67244000000000        1.72039100000000
H           35.01503500000000       -5.20519600000000        1.88189600000000
Fe          92.31645500000000       -0.03223100000000        0.01234500000000
C           95.65301800000000        0.12414400000000        0.00871900000000
C           94.98890899999999        1.28081200000000       -0.06895800000000
C           95.63858700000000        2.58286000000000       -0.16289900000000
C           94.69675900000000        3.50775900000000       -0.17013700000000
C           93.39192900000000        2.83877800000000       -0.07963200000000
N           93.57021600000000        1.42330000000000       -0.02060300000000
C           92.20172599999999        3.46794600000000       -0.00706400000000
C           90.90809299999999        2.74605100000000        0.11217000000000
C           89.61754999999998        3.41218300000000        0.32620800000000
C           88.68283399999999        2.48407100000000        0.34371800000000
N           90.76747499999999        1.46081600000000       -0.00371500000000
C           89.36797000000000        1.21461100000000        0.13299600000000
C           88.77339600000001        0.01638600000000        0.01016200000000
C           89.53440999999999       -1.23224300000000       -0.22318600000000
C           88.99744200000001       -2.35876900000000       -0.67473200000000
C           90.04117699999999       -3.36439800000000       -0.67634200000000
C           91.14719500000000       -2.78715600000000       -0.22155400000000
C           92.43230400000000       -3.49941600000000       -0.00107100000000
C           92.41318400000000       -4.97968400000000        0.09270200000000
C           93.07244700000000       -5.76463800000000       -0.86853700000000
C           93.03374500000000       -7.15974100000000       -0.78393700000000
C           92.33218899999999       -7.77935800000000        0.25411200000000
C           91.66614599999998       -7.00482000000000        1.20814200000000
C           91.70294000000000       -5.60935900000000        1.12773600000000
C           93.59735100000000       -2.83389700000000        0.11664100000000
C           94.90971099999999       -3.42639000000000        0.36993600000000
C           95.77130299999999       -2.42798000000000        0.36079600000000
C           95.01832099999999       -1.19922700000000        0.11563600000000
N           93.75017099999998       -1.42332400000000       -0.02766200000000
N           90.91743600000000       -1.41056600000000        0.08553300000000
C           92.16294499999999        4.94545600000000       -0.03484200000000
C           92.26393400000001        5.63124000000000       -1.25511000000000
C           92.22584100000000        7.02884600000000       -1.27903800000000
C           92.08592500000000        7.74630200000000       -0.08716100000000
C           91.98407700000000        7.06719600000000        1.13075000000000
C           92.02245799999999        5.66970200000000        1.15894700000000
H           96.73641999999998        0.15284700000000        0.00697500000000
H           96.70291399999999        2.77476500000000       -0.20913300000000
H           94.88219200000000        4.57287000000000       -0.22172100000000
H           89.44013099999998        4.47289800000000        0.44448300000000
H           87.62416399999998        2.66296000000000        0.47646300000000
H           87.96810200000000       -2.51382400000000       -0.96890300000000
H           89.92832699999998       -4.39913700000000       -0.97297000000000
H           93.61130599999998       -5.29553500000000       -1.68261600000000
H           93.54501700000000       -7.76057300000000       -1.52487900000000
H           92.30228900000000       -8.85940200000000        0.31756900000000
H           91.12034499999999       -7.48583000000000        2.00948300000000
H           91.18185099999998       -5.01921300000000        1.87168200000000
H           95.15455499999999       -4.46687200000000        0.53785200000000
H           96.83857900000000       -2.51627000000000        0.51598400000000
H           92.37200799999999        5.08347500000000       -2.18323000000000
H           92.30440500000000        7.55571500000000       -2.22117200000000
H           92.05628700000000        8.82801800000000       -0.10734800000000
H           91.87548000000000        7.62369900000000        2.05264100000000
H           91.94282100000000        5.15176900000000        2.10686100000000
C           40.76828000000000        0.03004400000000        0.01971600000000
C           42.22650600000000        0.00820700000000        0.00184300000000
C           43.36043400000000       -0.01254600000000        0.00035200000000
C           44.72181600000000       -0.02513600000000       -0.00183900000000
C           45.99603500000000       -0.01483000000000       -0.00660400000000
C           47.18449700000000        0.00396900000000       -0.01276000000000
C           48.53685800000000        0.02875300000000        0.00310800000000
C           49.63712500000000        0.03004400000000        0.01971600000000
C           58.98684500000000        0.03004400000000        0.01971600000000
C           60.44507100000000        0.00820700000000        0.00184300000000
C           61.57900000000000       -0.01254600000000        0.00035200000000
C           62.94038100000000       -0.02513600000000       -0.00183900000000
C           64.21460000000000       -0.01483000000000       -0.00660400000000
C           65.40306300000000        0.00396900000000       -0.01276000000000
C           66.75542299999999        0.02875300000000        0.00310800000000
C           67.85569099999999        0.03004400000000        0.01971600000000
C           77.20541100000000        0.03004400000000        0.01971600000000
C           78.66363699999998        0.00820700000000        0.00184300000000
C           79.79756500000001       -0.01254600000000        0.00035200000000
C           81.15894700000000       -0.02513600000000       -0.00183900000000
C           82.43316600000000       -0.01483000000000       -0.00660400000000
C           83.62162800000000        0.00396900000000       -0.01276000000000
C           84.97398900000000        0.02875300000000        0.00310800000000
C           86.07425600000001        0.03004400000000        0.01971600000000
Fe          54.29414300000000        0.07372000000000        0.02690800000000
C           50.91993600000000       -0.02323900000000       -0.01464900000000
C           51.57875600000000       -1.19631100000000       -0.01945700000000
C           50.93330900000000       -2.51100000000000       -0.00753600000000
C           51.87305500000000       -3.43368300000000       -0.01581500000000
C           53.17671799999999       -2.76376500000000       -0.03720400000000
N           53.00078299999999       -1.34524400000000       -0.03628500000000
C           54.36324900000000       -3.40301300000000       -0.05564900000000
C           55.67237200000000       -2.70692200000000       -0.08132700000000
C           56.95733300000000       -3.41051300000000       -0.17935600000000
C           57.91197900000000       -2.50631900000000       -0.17365200000000
N           55.83328900000000       -1.42017400000000       -0.01736200000000
C           57.24583999999999       -1.21295000000000       -0.06986200000000
C           57.86790599999999       -0.02323900000000       -0.01464900000000
C           57.14357800000000        1.26511700000000        0.09948400000000
C           57.74432399999999        2.43753400000000        0.25389600000000
C           56.71375500000000        3.45036100000000        0.29349000000000
C           55.54435099999999        2.83677600000000        0.15371800000000
C           54.23754100000000        3.54617800000000        0.11765500000000
C           54.24670300000000        5.02834700000000        0.14030300000000
C           53.87906899999999        5.72084800000000        1.30535900000000
C           53.90311899999999        7.11865400000000        1.32881600000000
C           54.29983500000000        7.83076000000000        0.19271100000000
C           54.67023700000000        7.14640000000000       -0.96884900000000
C           54.64603699999999        5.74829100000000       -0.99683700000000
C           53.05544000000000        2.90112100000000        0.06505700000000
C           51.74678200000000        3.54482800000000       -0.00024200000000
C           50.86109400000000        2.57346000000000       -0.04147600000000
C           51.58939100000000        1.30059300000000       -0.00448800000000
N           52.87415599999999        1.48362900000000        0.05646100000000
N           55.72334899999999        1.42381600000000        0.02928000000000
C           54.38503000000000       -4.88165800000000       -0.06175600000000
C           54.24436600000000       -5.58517900000000       -1.26815000000000
C           54.28202600000000       -6.98287000000000       -1.27247800000000
C           54.46118300000000       -7.68253000000000       -0.07536100000000
C           54.60159000000000       -6.98530300000000        1.12863500000000
C           54.56615300000000       -5.58770100000000        1.13691700000000
H           49.87303100000000       -2.72503300000000        0.00881300000000
H           51.68674700000000       -4.50000400000000       -0.00503900000000
H           57.11383800000000       -4.47850200000000       -0.24968900000000
H           58.97112200000000       -2.71648400000000       -0.23644200000000
H           58.80708300000000        2.62144400000000        0.33153500000000
H           56.87951100000000        4.51239100000000        0.40768800000000
H           53.57873900000000        5.17806600000000        2.19263700000000
H           53.61749900000000        7.65043800000000        2.22802600000000
H           54.32031900000000        8.91241500000000        0.21423500000000
H           54.97966800000000        7.69875900000000       -1.84672400000000
H           54.93971600000000        5.22689200000000       -1.89968000000000
H           51.51953399999999        4.60338600000000       -0.01824300000000
H           49.79095599999999        2.71879600000000       -0.09617500000000
H           54.10910100000000       -5.05111300000000       -2.20034400000000
H           54.17483800000000       -7.52391100000000       -2.20368600000000
H           54.49197400000000       -8.76400200000000       -0.08023500000000
H           54.74032999999999       -7.52877500000000        2.05454500000000
H           54.67958100000000       -5.05511600000000        2.07286800000000
Fe          72.51270800000000        0.07372000000000        0.02690800000000
C           69.13850100000001       -0.02323900000000       -0.01464900000000
C           69.79732199999999       -1.19631100000000       -0.01945700000000
C           69.15187400000001       -2.51100000000000       -0.00753600000000
C           70.09162000000001       -3.43368300000000       -0.01581500000000
C           71.39528300000001       -2.76376500000000       -0.03720400000000
N           71.21934800000000       -1.34524400000000       -0.03628500000000
C           72.58181399999998       -3.40301300000000       -0.05564900000000
C           73.89093699999999       -2.70692200000000       -0.08132700000000
C           75.17589900000000       -3.41051300000000       -0.17935600000000
C           76.13054500000000       -2.50631900000000       -0.17365200000000
N           74.05185400000001       -1.42017400000000       -0.01736200000000
C           75.46440600000000       -1.21295000000000       -0.06986200000000
C           76.08647200000000       -0.02323900000000       -0.01464900000000
C           75.36214300000000        1.26511700000000        0.09948400000000
C           75.96289000000000        2.43753400000000        0.25389600000000
C           74.93232099999999        3.45036100000000        0.29349000000000
C           73.76291700000000        2.83677600000000        0.15371800000000
C           72.45610600000001        3.54617800000000        0.11765500000000
C           72.46526899999999        5.02834700000000        0.14030300000000
C           72.09763500000000        5.72084800000000        1.30535900000000
C           72.12168400000000        7.11865400000000        1.32881600000000
C           72.51839999999999        7.83076000000000        0.19271100000000
C           72.88880300000000        7.14640000000000       -0.96884900000000
C           72.86460200000000        5.74829100000000       -0.99683700000000
C           71.27400600000000        2.90112100000000        0.06505700000000
C           69.96534699999998        3.54482800000000       -0.00024200000000
C           69.07965900000001        2.57346000000000       -0.04147600000000
C           69.80795600000000        1.30059300000000       -0.00448800000000
N           71.09272100000000        1.48362900000000        0.05646100000000
N           73.94191400000000        1.42381600000000        0.02928000000000
C           72.60359499999998       -4.88165800000000       -0.06175600000000
C           72.46293100000000       -5.58517900000000       -1.26815000000000
C           72.50059100000000       -6.98287000000000       -1.27247800000000
C           72.67974799999999       -7.68253000000000       -0.07536100000000
C           72.82015600000000       -6.98530300000000        1.12863500000000
C           72.78471900000000       -5.58770100000000        1.13691700000000
H           68.09159699999998       -2.72503300000000        0.00881300000000
H           69.90531299999999       -4.50000400000000       -0.00503900000000
H           75.33240399999998       -4.47850200000000       -0.24968900000000
H           77.18968800000000       -2.71648400000000       -0.23644200000000
H           77.02564800000000        2.62144400000000        0.33153500000000
H           75.09807699999999        4.51239100000000        0.40768800000000
H           71.79730499999998        5.17806600000000        2.19263700000000
H           71.83606399999998        7.65043800000000        2.22802600000000
H           72.53888399999998        8.91241500000000        0.21423500000000
H           73.19823300000000        7.69875900000000       -1.84672400000000
H           73.15828100000000        5.22689200000000       -1.89968000000000
H           69.73810000000000        4.60338600000000       -0.01824300000000
H           68.00952200000000        2.71879600000000       -0.09617500000000
H           72.32766700000001       -5.05111300000000       -2.20034400000000
H           72.39340300000001       -7.52391100000000       -2.20368600000000
H           72.71053900000000       -8.76400200000000       -0.08023500000000
H           72.95889500000000       -7.52877500000000        2.05454500000000
H           72.89814699999998       -5.05511600000000        2.07286800000000
246
 energy: -422.934928982119 gnorm: 0.701995224748 xtb: 6.5.1 (b24c23e)
Fe          34.65084677936231        0.05935016706795        0.01371769838038
C           31.30575392975754       -0.07897007552088        0.00577088523946
C           31.97488895377556       -1.24440079674026       -0.12385476793723
C           31.31868162397268       -2.53497864907755       -0.27390532020452
C           32.26822554071087       -3.46522040702615       -0.32156046298720
C           33.56494575487559       -2.79256353468145       -0.20182660763343
N           33.37913738388573       -1.39282827032026       -0.08248030663049
C           34.76669700059459       -3.42760736356250       -0.15514587910320
C           36.04411536526585       -2.72512855999417       -0.00674192693836
C           37.33164555958368       -3.39634574706368        0.17676768745632
C           38.27552219635613       -2.45797172679577        0.23686681332159
N           36.19208188767517       -1.42045694466095       -0.06588585729737
C           37.59558793698709       -1.18265053446448        0.08078146618529
C           38.17181211006167        0.02672444362954        0.00898535188310
C           37.42151641406719        1.25992881266014       -0.16255387202256
C           37.96145193309647        2.43391419820350       -0.57431377589024
C           36.93164439357537        3.42488569328627       -0.53118815696044
C           35.80080843922833        2.81833907294352       -0.09268533392707
C           34.53430192199331        3.52426202021471        0.15074595315650
C           34.54828014825450        5.00426636599436        0.30782544569676
C           33.88638248817862        5.83113985419840       -0.61379196726573
C           33.92560680001954        7.21798607927816       -0.46922186505408
C           34.62559177223064        7.79136582042708        0.59210215301628
C           35.28976612144083        6.97736890858122        1.50944471521677
C           35.25430718985243        5.59028002474357        1.36866399714061
C           33.35972781474402        2.85730042143201        0.24027734865907
C           32.05410702019262        3.44078948058645        0.51833031029849
C           31.18079915892615        2.43501190818866        0.46545167972240
C           31.92722889296283        1.21866520757607        0.16768607966198
N           33.21213067526513        1.45989632582730        0.03823557662395
N           36.03655166433861        1.43872333031981        0.14322268181764
C           34.79710086594542       -4.90848489203059       -0.24881572232422
C           34.69396077989038       -5.54046611022833       -1.49521424524614
C           34.73212859676375       -6.93211344665313       -1.57924616410820
C           34.87185995334620       -7.69916404496394       -0.42255167116163
C           34.97335313174128       -7.07479396402445        0.82070667571210
C           34.93577865135362       -5.68361804442702        0.90978748920936
H           30.22183991997884       -0.11740575444764        0.00162251071614
H           30.25517880990945       -2.72591685378712       -0.32842618108871
H           32.08055697474722       -4.52585762609926       -0.41931121055403
H           37.51377389480102       -4.45661735822660        0.25018551772712
H           39.33341557193670       -2.64301677731382        0.36085698479508
H           38.98990981169175        2.58873320116582       -0.85863488303133
H           37.03172260620074        4.47018807454689       -0.78112159281336
H           33.34728395227916        5.39650127847066       -1.44948709918466
H           33.41322036897567        7.85196944032702       -1.18531309912991
H           34.65558214600636        8.86987079694694        0.70258845405390
H           35.83708528952680        7.42417297932799        2.33281534294179
H           35.77538922660987        4.96640059531424        2.08766821756245
H           31.80783424386783        4.47222912595160        0.73137710993710
H           30.11784010436480        2.52130426174608        0.62505014566593
H           34.58605945982892       -4.95066660987863       -2.39998682727805
H           34.65351170864875       -7.41847922459832       -2.54580451763862
H           34.90157625162639       -8.78123619235023       -0.48982401232158
H           35.08224931009511       -7.67193553801294        1.71983563971847
H           35.01490602962148       -5.20510658313500        1.88076525152050
Fe          92.30755463706815       -0.02667161680136        0.01190674508421
C           95.65212726706527        0.11191660324727        0.00993849255265
C           94.98306788519220        1.28179753629807       -0.06882139595023
C           95.63918499329417        2.57764594003359       -0.16284429158242
C           94.68959476529517        3.50909215844852       -0.17004576194850
C           93.39286069772047        2.83194337708549       -0.07975587700885
N           93.57860820195580        1.42813303553814       -0.02131710676795
C           92.19119250563553        3.46434824421342       -0.00566643173249
C           90.91366365746593        2.75600441749208        0.11216344945116
C           89.62627871216647        3.41867335775069        0.32491876746956
C           88.68235314755935        2.47859477760407        0.34388669821091
N           90.76524121420927        1.45510176772244       -0.00273475635517
C           89.36205244574296        1.21119759794504        0.13304447177676
C           88.78182739169907        0.00671022178799        0.00798361753851
C           89.53618227385333       -1.21864152984054       -0.21606043459650
C           88.99631881696354       -2.37324164035746       -0.67842489748379
C           90.02660776951238       -3.36551428427314       -0.67871401219725
C           91.15684600837419       -2.77868219297017       -0.21421935272935
C           92.42370863890672       -3.49435547705187       -0.00173551340235
C           92.40961504974617       -4.97972448136790        0.09104224901692
C           93.07147456605261       -5.76577949337213       -0.86567978802219
C           93.03224043471749       -7.15760284293465       -0.78147698827508
C           92.33226468853600       -7.77653084996922        0.25394832166573
C           91.66808207300913       -7.00313711689493        1.20576993648771
C           91.70354484922009       -5.61125375113064        1.12536599451554
C           93.59807126071887       -2.83192020888439        0.11662677066990
C           94.90377870180666       -3.42686198879575        0.36916707328417
C           95.77705083067534       -2.41977600344160        0.35999528775832
C           95.03056289809194       -1.19162378241649        0.11536130439884
N           93.74582431129373       -1.42690035650379       -0.02447269880003
N           90.92059415487375       -1.41003530855474        0.08069457370383
C           92.16079902964772        4.94786233958190       -0.03468544222723
C           92.26389758177208        5.63335769901142       -1.25249467200802
C           92.22572214383366        7.02734364841446       -1.27602591424952
C           92.08599584446991        7.74344960521899       -0.08711827046966
C           91.98449515327637        7.06568685438350        1.12785648008675
C           92.02208277283815        5.67196096184110        1.15645148610927
H           96.73602624481056        0.15042270869508        0.00740335215264
H           96.70268055293167        2.77080193034763       -0.20904849108286
H           94.87729933277444        4.57298582235313       -0.22166719537534
H           89.44410861831948        4.47475812634849        0.44420446042430
H           87.62450400846151        2.65808810535317        0.47601435789008
H           87.96796827225209       -2.51580832486685       -0.96949854542403
H           89.92620331006370       -4.39888090632327       -0.97382372916872
H           93.61057330130593       -5.29527107305382       -1.68172178507640
H           93.54463542816407       -7.75989377709676       -1.52442091010991
H           92.30227620876784       -8.85881580269730        0.31750165421335
H           91.12077099566064       -7.48527045288000        2.00896546166997
H           91.18246830264631       -5.01917121373601        1.87077144849415
H           95.15003058052240       -4.46657558320906        0.53721098107877
H           96.84001363513015       -2.51287138532769        0.51570947513919
H           92.37179876730902        5.08340658519196       -2.18203271682749
H           92.30434510361162        7.55522258252074       -2.22055780669168
H           92.05628182571034        8.82742313344602       -0.10734322638489
H           91.87560632604018        7.62322292245625        2.05206548180628
H           91.94295094070048        5.15173092952213        2.10572751415081
C           40.79085186568175        0.02959409017041        0.01922353882145
C           42.14891836796301        0.00917744818237        0.00218924941372
C           43.40252094568189       -0.01314245544055        0.00039294500143
C           44.69599063116979       -0.02529127997154       -0.00187306361984
C           45.97213334563165       -0.01504028962735       -0.00662940332902
C           47.18772447353242        0.00458796447153       -0.01276613819203
C           48.47698208752374        0.02871378833879        0.00201080295655
C           49.66691410272168        0.03193904879533        0.02139696915939
C           59.07712363063736        0.03929365960254        0.02061240539534
C           60.39502653255158        0.00914855627139        0.00214039095202
C           61.62597481039736       -0.01288592032197        0.00057860741329
C           62.92143102175368       -0.02532699831846       -0.00200593657422
C           64.19038976454057       -0.01512543728877       -0.00667187890190
C           65.40824600179509        0.00458307580691       -0.01269106981120
C           66.69503954437648        0.02865753379523        0.00200870854707
C           67.88611238481037        0.03192368657356        0.02134110574803
C           77.29746266389536        0.03928006820933        0.02058922611515
C           78.61213847220689        0.00916885874797        0.00210821696527
C           79.84612385158712       -0.01287179520061        0.00056690356676
C           81.13833103039369       -0.02525807683827       -0.00196673166216
C           82.41412486188449       -0.01513339596075       -0.00661230646690
C           83.63084037183330        0.00428240511063       -0.01286230847610
C           84.94778194925853        0.02852791227621        0.00236399074680
C           86.15501215392396        0.02995735686396        0.02036147515378