148
 energy: -266.135219251076 gnorm: 2.211859161725 xtb: 6.5.1 (b24c23e)
Fe          27.76202200000000        0.02397800000000        0.02556400000000
C           24.38836500000000       -0.08565400000000       -0.08448900000000
C           25.06127100000000       -0.90043800000000       -0.90294000000000
C           24.43256999999999       -1.83086100000000       -1.83746800000000
C           25.39339300000000       -2.47216600000000       -2.48165100000000
C           26.67651500000000       -1.97845700000000       -1.98579600000000
N           26.48232900000000       -0.98289600000000       -0.98581800000000
C           27.86475300000000       -2.40932900000000       -2.41855700000000
C           29.16443800000000       -1.91791100000000       -1.92491000000000
C           30.44412000000000       -2.41610400000000       -2.42503400000000
C           31.39987000000000       -1.77486500000000       -1.78092300000000
N           29.31805600000000       -1.00897300000000       -1.01209000000000
C           30.72934400000000       -0.85912500000000       -0.86140100000000
C           31.33807400000000       -0.01271300000000       -0.01130000000000
C           30.59026000000000        0.89321800000000        0.89843800000000
C           31.16166500000000        1.74020200000000        1.74903700000000
C           30.09957400000000        2.43756100000000        2.44943500000000
C           28.95321600000000        1.97143900000000        1.98134400000000
N           29.16569000000000        0.97482100000000        0.98042000000000
C           27.63792200000000        2.44184600000000        2.45392500000000
C           26.47104800000000        1.98442500000000        1.99459400000000
C           25.16323200000000        2.43372800000000        2.44607800000000
C           24.28220400000000        1.73909300000000        1.74846300000000
C           25.02911300000000        0.85030300000000        0.85559300000000
N           26.31046200000000        0.98708300000000        0.99281200000000
H           23.30525400000000       -0.10817800000000       -0.10704100000000
H           23.37115200000000       -1.98057300000000       -1.98779500000000
H           25.23972800000000       -3.22814000000000       -3.24095300000000
H           27.88445100000000       -3.17381400000000       -3.18639800000000
H           30.59500000000000       -3.17223500000000       -3.18432900000000
H           32.46154300000000       -1.92165000000000       -1.92812200000000
H           32.22129600000000        1.89245400000000        1.90193200000000
H           30.21938200000000        3.19667000000000        3.21185000000000
H           27.62129100000000        3.20673500000000        3.22221500000000
H           24.93949300000000        3.18080800000000        3.19654600000000
H           23.20654700000000        1.82204900000000        1.83196000000000
Fe          61.16059000000000       -0.06466000000000       -0.00871400000000
C           64.53424800000001        0.09049200000000       -0.01637100000000
C           63.86134200000000        1.24394300000000       -0.07368600000000
C           64.49004200000000        2.56104400000000       -0.13907200000000
C           63.52922000000000        3.46890400000000       -0.18417600000000
C           62.24609800000000        2.77003400000000       -0.14950500000000
N           62.44028300000000        1.36070800000000       -0.07952200000000
C           61.05785900000000        3.37996600000000       -0.17977500000000
C           59.75817500000000        2.68427600000000       -0.14519600000000
C           58.47849299999999        3.38933600000000       -0.18000900000000
C           57.52274300000000        2.48157300000000       -0.13491300000000
N           59.60455699999999        1.39767700000000       -0.08141400000000
C           58.19326900000000        1.18543100000000       -0.07074900000000
C           57.58453800000000       -0.01271300000000       -0.01130000000000
C           58.33235299999999       -1.29501500000000        0.05222500000000
C           57.76094800000000       -2.49391800000000        0.11165800000000
C           58.82303900000000       -3.48107000000000        0.16063900000000
C           59.96939600000000       -2.82129000000000        0.12794600000000
N           59.75692300000000       -1.41054500000000        0.05797400000000
C           61.28469100000000       -3.48726100000000        0.16107800000000
C           62.45156500000000       -2.83981100000000        0.12901100000000
C           63.75938099999999       -3.47597500000000        0.16073300000000
C           64.64040799999999       -2.49271200000000        0.11198000000000
C           63.89349900000000       -1.23443900000000        0.04940100000000
N           62.61215000000000       -1.42795300000000        0.05889200000000
H           65.61735899999999        0.12232900000000       -0.01790100000000
H           65.55146000000001        2.77294500000000       -0.14956000000000
H           63.68288500000000        4.53905100000000       -0.23730000000000
H           61.03816100000000        4.46215400000000       -0.23348900000000
H           58.32761300000000        4.45959400000000       -0.23302100000000
H           56.46106999999999        2.68920400000000       -0.14505700000000
H           56.70131600000000       -2.70942600000000        0.12233700000000
H           58.70323000000000       -4.55563000000000        0.21395400000000
H           61.30132100000000       -4.57005000000000        0.21485000000000
H           63.98312000000000       -4.53359800000000        0.21330400000000
H           65.71606600000000       -2.61026100000000        0.11794000000000
C           33.51198800000000       -0.01271300000000       -0.01130000000000
C           34.73390500000000       -0.01271300000000       -0.01130000000000
C           43.85034699999999       -0.01271300000000       -0.01130000000000
C           45.07226500000000       -0.01271300000000       -0.01130000000000
C           54.18870700000000       -0.01271300000000       -0.01130000000000
C           55.41062500000000       -0.01271300000000       -0.01130000000000
Fe          39.25788099999999       -0.04005600000000       -0.03562200000000
C           35.82442899999999        0.01416600000000        0.01259200000000
C           36.49096300000000        0.88760000000000        0.78982200000000
C           35.86665000000000        1.87959000000000        1.67251100000000
C           36.82502100000000        2.55815700000000        2.27638900000000
C           38.10623100000000        2.03792900000000        1.81352200000000
N           37.91414000000000        0.98235000000000        0.87420700000000
C           39.28861500000000        2.50298000000000        2.22739700000000
C           40.59829000000000        1.99979300000000        1.77966400000000
C           41.86493400000000        2.54472000000000        2.26467300000000
C           42.83711399999999        1.87928800000000        1.67250600000000
N           40.77426700000000        1.04035100000000        0.92581000000000
C           42.18948300000000        0.90163100000000        0.80240800000000
C           42.81853200000000        0.01416600000000        0.01259200000000
C           42.08860800000000       -0.95137000000000       -0.84671400000000
C           42.67535200000000       -1.84216900000000       -1.63958700000000
C           41.62528000000000       -2.58949400000000       -2.30459400000000
C           40.47110000000000       -2.10610300000000       -1.87426000000000
N           40.66541200000000       -1.04997300000000       -0.93432800000000
C           39.16602300000000       -2.61608800000000       -2.32793400000000
C           37.98683900000000       -2.14841700000000       -1.91168300000000
C           36.69972800000000       -2.65036400000000       -2.35821300000000
C           35.79315900000000       -1.93472900000000       -1.72141800000000
C           36.50084799999999       -0.97232200000000       -0.86516000000000
N           37.78835399999999       -1.09440500000000       -0.97386500000000
H           34.80928000000000        2.05031400000000        1.82437700000000
H           36.66975800000000        3.35849000000000        2.98856200000000
H           39.29502500000000        3.31264500000000        2.94789200000000
H           41.99607900000000        3.34714000000000        2.97879300000000
H           43.89491800000000        2.04867900000000        1.82329400000000
H           43.73765600000000       -1.99327000000000       -1.77416400000000
H           41.75787100000000       -3.39207400000000       -3.01886800000000
H           39.16755199999999       -3.42620300000000       -3.04879500000000
H           36.50522699999999       -3.44583300000000       -3.06598200000000
H           34.72379700000000       -2.05570300000000       -1.82899100000000
Fe          49.59624100000000       -0.04005600000000       -0.03562200000000
C           46.16278900000000        0.01416600000000        0.01259200000000
C           46.82932300000000        0.88760000000000        0.78982200000000
C           46.20501000000000        1.87959000000000        1.67251100000000
C           47.16338100000000        2.55815700000000        2.27638900000000
C           48.44459100000000        2.03792900000000        1.81352200000000
N           48.25250000000000        0.98235000000000        0.87420700000000
C           49.62697500000000        2.50298000000000        2.22739700000000
C           50.93665000000000        1.99979300000000        1.77966400000000
C           52.20329400000000        2.54472000000000        2.26467300000000
C           53.17547399999999        1.87928800000000        1.67250600000000
N           51.11262700000000        1.04035100000000        0.92581000000000
C           52.52784300000000        0.90163100000000        0.80240800000000
C           53.15689200000000        0.01416600000000        0.01259200000000
C           52.42696800000000       -0.95137000000000       -0.84671400000000
C           53.01371200000000       -1.84216900000000       -1.63958700000000
C           51.96364000000000       -2.58949400000000       -2.30459400000000
C           50.80946000000000       -2.10610300000000       -1.87426000000000
N           51.00377199999999       -1.04997300000000       -0.93432800000000
C           49.50438300000000       -2.61608800000000       -2.32793400000000
C           48.32519899999999       -2.14841700000000       -1.91168300000000
C           47.03808800000000       -2.65036400000000       -2.35821300000000
C           46.13151900000000       -1.93472900000000       -1.72141800000000
C           46.83920800000000       -0.97232200000000       -0.86516000000000
N           48.12671400000000       -1.09440500000000       -0.97386500000000
H           45.14764000000000        2.05031400000000        1.82437700000000
H           47.00811800000000        3.35849000000000        2.98856200000000
H           49.63338500000000        3.31264500000000        2.94789200000000
H           52.33443900000000        3.34714000000000        2.97879300000000
H           54.23327799999999        2.04867900000000        1.82329400000000
H           54.07601600000000       -1.99327000000000       -1.77416400000000
H           52.09623100000000       -3.39207400000000       -3.01886800000000
H           49.50591200000000       -3.42620300000000       -3.04879500000000
H           46.84358700000000       -3.44583300000000       -3.06598200000000
H           45.06215700000000       -2.05570300000000       -1.82899100000000
148
 energy: -266.807939749208 gnorm: 0.605511643810 xtb: 6.5.1 (b24c23e)
Fe          27.76785030740782        0.02103467170303        0.02261006595990
C           24.38920139257564       -0.07791481711439       -0.07671388102863
C           25.06664691587851       -0.90131001407620       -0.90381516513887
C           24.43149988757643       -1.82766593359598       -1.83425719035202
C           25.39805850248383       -2.47271121405535       -2.48219766637711
C           26.67502187577856       -1.97417935758828       -1.98149727481546
N           26.47507254948266       -0.98663663311731       -0.98957206545841
C           27.87587728565223       -2.40800025891472       -2.41722067945536
C           29.15831259038305       -1.92466778712599       -1.93169826840883
C           30.43726538373108       -2.41972557256479       -2.42866773205960
C           31.40074107958942       -1.77149591505714       -1.77754206767807
N           29.32228268005456       -1.00483184622724       -1.00792967845196
C           30.73506779011392       -0.85766842600660       -0.85992690628774
C           31.34836981545038       -0.00629551343599       -0.00487337528994
C           30.58883216347810        0.88395621351846        0.88912908598236
C           31.16276709270286        1.74953772253529        1.75841463798531
C           30.11378895298563        2.43855737624493        2.45043392796611
C           28.94224909654567        1.96538837912240        1.97527126853971
N           29.16621305430878        0.97548806706926        0.98109212206675
C           27.64714841344527        2.43820966994099        2.45027370960479
C           26.47038946752016        1.98294033895099        1.99310436340752
C           25.16713747502232        2.43383895924043        2.44619021954444
C           24.27709697983940        1.73417437742787        1.74352438542524
C           25.01824103649878        0.84533553446647        0.85060585638261
N           26.31428685784529        0.98968466241452        0.99542543689074
H           23.30554865981190       -0.10685448476006       -0.10570986429867
H           23.37112831367967       -1.97840618655930       -1.98561707398419
H           25.24288711392851       -3.22803702795247       -3.24084860101565
H           27.88647754436611       -3.17342964553581       -3.18601056077447
H           30.59240532369124       -3.17300424239715       -3.18510070266660
H           32.46139693536347       -1.91907095098456       -1.92554528435077
H           32.22162401705200        1.89338384418693        1.90286772116637
H           30.22151063470396        3.19654374437095        3.21172364736866
H           27.62421968140290        3.20555268276711        3.22102816349621
H           24.94250579193922        3.18045484704438        3.19619216805709
H           23.20545790696962        1.82017220972513        1.83007628146025
Fe          61.15475881856095       -0.06050958589484       -0.00891703804183
C           64.53340591375051        0.07951150565062       -0.01582421924023
C           63.85594280753506        1.24518657536054       -0.07374900205500
C           64.49111670811891        2.55652980016644       -0.13884624781449
C           63.52456414240672        3.46967927183985       -0.18421410051728
C           62.24762167071501        2.76390322488131       -0.14919668270037
N           62.44762602475836        1.36611761534642       -0.07978451375155
C           61.04665116720884        3.37806889532529       -0.17967705626673
C           59.76435490754007        2.69387341515590       -0.14569108899852
C           58.48531962383255        3.39444884328630       -0.18025374273088
C           57.52170347574297        2.47688792961527       -0.13467201536795
N           59.60038485922409        1.39173773802665       -0.08110647589049
C           58.18754754831719        1.18350138626815       -0.07060430500407
C           57.57549868267529       -0.02163827218153       -0.01078183853431
C           58.33383681418116       -1.28193358645584        0.05152476578733
C           57.75978340125310       -2.50729283042325        0.11232089903574
C           58.80870906178110       -3.48244803513980        0.16070264630204
C           59.98036130984528       -2.81268344884424        0.12752820608084
N           59.75640388414809       -1.41149615698081        0.05802754346953
C           61.27542447977223       -3.48208982648710        0.16082319274067
C           62.45222689341354       -2.83767693582690        0.12890541869230
C           63.75547545815049       -3.47612790485957        0.16074196665730
C           64.64551619125420       -2.48574712529971        0.11163601893601
C           63.90438487710217       -1.22738771487434        0.04905191758395
N           62.60829141660108       -1.43163716207080        0.05907614710970
H           65.61706324318888        0.12045182868329       -0.01780595229281
H           65.55148533182815        2.76987880459445       -0.14940636700327
H           63.67972492945047        4.53890651653485       -0.23729211774721
H           61.03611849259506        4.46160096985483       -0.23346084545496
H           58.33019880392857        4.46067197610173       -0.23307292640500
H           56.46110093314628        2.68554134582872       -0.14487320819764
H           56.70098968107757       -2.71073704181092        0.12239565033281
H           58.70108734011323       -4.55543424237467        0.21394401824487
H           61.29838221569728       -4.56836658360594        0.21476557882826
H           63.98010579246928       -4.53309726363494        0.21328005167773
H           65.71715496847708       -2.60760575816075        0.11780939168870
C           33.44628217910266       -0.01241649371672       -0.01102773994689
C           34.63984473141176       -0.01719343261547       -0.01527596447840
C           43.92017561717105       -0.02114750068310       -0.01880335224585
C           45.03892368446187       -0.01910914752970       -0.01698909974327
C           54.30834773110025       -0.02043275242533       -0.01805963691017
C           55.48937391354745       -0.01357025982216       -0.01201385093111
Fe          39.25975867780755       -0.03880728961513       -0.03451039592734
C           35.89672035458516        0.00808372330433        0.00717217008236
C           36.51706540127448        0.89700777031206        0.79819846515815
C           35.86596340074991        1.87455385066399        1.66802982780383
C           36.83037981829026        2.55921968439830        2.27733640868890
C           38.10459509079946        2.03463150362603        1.81058630327832
N           37.91249565387686        0.98866096060593        0.87982330273048
C           39.30023041254719        2.50236912559054        2.22685401011013
C           40.59012103478187        2.01175348156643        1.79030857025649
C           41.85425566639383        2.55011120580758        2.26947024866603
C           42.83249645719174        1.87289245936255        1.66681458645032
N           40.77245027523822        1.04007996374476        0.92556926938889
C           42.15189522220150        0.91711109076858        0.81618402485066
C           42.69843822949259        0.00902837929928        0.00801752675139
C           42.05622097320677       -0.95262432871688       -0.84782832770778
C           42.67202057309801       -1.85075681158009       -1.64723106797729
C           41.63812615412157       -2.59130106690726       -2.30620281613956
C           40.45846967786045       -2.10115560705470       -1.86985376442311
N           40.65955359886937       -1.05453232880021       -0.93838822901822
C           39.17498970191364       -2.61263105894710       -2.32485815835514
C           37.98672182741448       -2.14803259892140       -1.91133799777289
C           36.70407181949169       -2.65075640996987       -2.35856488006596
C           35.78839943674785       -1.92852038540011       -1.71588982722326
C           36.50641192923268       -0.97396149775129       -0.86662527694181
N           37.79673795182188       -1.09923444505525       -0.97816102649954
H           34.80898589352056        2.04693386106285        1.82137107555299
H           36.67276831540634        3.35838777821028        2.98847215109486
H           39.29676114346790        3.31248844235501        2.94775326979874
H           41.99353001879585        3.34825597991669        2.97978634522673
H           43.88729963971051        2.04522190271350        1.82021951982569
H           43.73197258591312       -1.99347161096592       -1.77434632598587
H           41.76008398913976       -3.39214046557584       -3.01892761584924
H           39.17022635502536       -3.42508962444835       -3.04780398532451
H           36.50807961540057       -3.44539607802696       -3.06559297507834
H           34.72258512842072       -2.05296533500767       -1.82654344916313
Fe          49.59865175959580       -0.03908664762788       -0.03475894662039
C           46.25456288964368        0.00684428472701        0.00607650401394
C           46.86523127795832        0.90138278144540        0.80208863042470
C           46.20809566606982        1.87429251601718        1.66779595935827
C           47.16983204776829        2.56010821868233        2.27812551191398
C           48.44394477705526        2.03601392871926        1.81181801840348
N           48.24872514256136        0.98959115049359        0.88064391487639
C           49.63709223784640        2.50241147968906        2.22688914169605
C           50.92986849678145        2.00961183242593        1.78841800047592
C           52.19489630610148        2.54941202366861        2.26883956416696
C           53.17452410490284        1.87402272579284        1.66779477019852
N           51.11024225288052        1.04005507609450        0.92554103379399
C           52.49817617490724        0.91278850492748        0.81228941084579
C           53.05358080075398        0.01002211069065        0.00882466693873
C           52.39866755405860       -0.95026175639609       -0.84568403479866
C           53.01305766519612       -1.85185697272919       -1.64819727752785
C           51.97804255476464       -2.59099962975747       -2.30593530188565
C           50.79762116991158       -2.10063546036644       -1.86939378007648
N           51.00015573155414       -1.05413828407190       -0.93803059426546
C           49.51348428070776       -2.61255957806571       -2.32479773510100
C           48.32585201173496       -2.14847605018442       -1.91173608310626
C           47.04303124871274       -2.65107294481672       -2.35884402171351
C           46.12946341667937       -1.92855893572935       -1.71592751906901
C           46.85061806066685       -0.97599412662178       -0.86842738729004
N           48.13633446204236       -1.10015254012723       -0.97897929856650
H           45.15428938925836        2.04700796093236        1.82143349066163
H           47.01105452360713        3.35860119500597        2.98866140057636
H           49.63511180640374        3.31250613762607        2.94776879442091
H           52.33191527037484        3.34808554896946        2.97963393661988
H           54.23276747073877        2.04518870414573        1.82018591165405
H           54.07591873217227       -1.99362102759158       -1.77446419214420
H           52.09853234973779       -3.39204043704767       -3.01883882488665
H           49.50864254650595       -3.42506775372035       -3.04778471092400
H           46.84639936128310       -3.44545473451215       -3.06564555178937
H           45.06620713933790       -2.05323057571409       -1.82678840584562
148
 energy: -267.026966525674 gnorm: 0.391403067077 xtb: 6.5.1 (b24c23e)
Fe          27.78128866005261        0.01372530750819        0.01528274050196
C           24.39114720958559       -0.06699453095243       -0.06574748801202
C           25.07261558337790       -0.89965906657371       -0.90215982482596
C           24.43355064158715       -1.82129347933740       -1.82785881194032
C           25.40754973019703       -2.47067076731911       -2.48015087757653
C           26.67718088928676       -1.96821975579125       -1.97551124271482
N           26.46404912669380       -0.99206731222976       -0.99502494797100
C           27.89269658337328       -2.40327469906322       -2.41247670311717
C           29.15383067118246       -1.93020648514825       -1.93726926967287
C           30.42736839369748       -2.42291204727989       -2.43186281699032
C           31.39858474454769       -1.76726958997613       -1.77331136682530
N           29.33675501010218       -0.99802702456993       -1.00109525507067
C           30.75033615240156       -0.85288743382542       -0.85509053869130
C           31.38096749767583        0.00388674136153        0.00542551597187
C           30.59544360291089        0.87334703852495        0.87845955997342
C           31.16451237369832        1.76094475644926        1.76986758607199
C           30.13326457606822        2.43613078538559        2.44798748356620
C           28.93661247131358        1.95422341155819        1.96406179543536
N           29.17418800886267        0.97307331928527        0.97866286756206
C           27.66530049212270        2.42792747526165        2.43994516557646
C           26.47225393015261        1.97747579701745        1.98761361678307
C           25.17306371736449        2.42894763267398        2.44127284987154
C           24.27087803834727        1.72579504177864        1.73510452477813
C           25.00438669472180        0.83889201180432        0.84413139707635
N           26.31765405262943        0.99127577838888        0.99701439685100
H           23.30713580740472       -0.10225720441109       -0.10109419841713
H           23.37261093676479       -1.97083263735362       -1.97801283917614
H           25.25417849457104       -3.22644064075089       -3.23924881849759
H           27.89392791165743       -3.17025874246755       -3.18282669935704
H           30.58360033977716       -3.17536974252295       -3.18747879803300
H           32.45967841753083       -1.91196775897887       -1.91846730126991
H           32.22368364087953        1.89752359908044        1.90702927631418
H           30.22824190140597        3.19500512556162        3.21017339370777
H           27.63698074967697        3.19803355950316        3.21347086115934
H           24.95276106882139        3.17706664616377        3.19278384881904
H           23.20115043554995        1.81401005536238        1.82388306830624
Fe          61.14130831530380       -0.05020885927229       -0.00941023224273
C           64.53145969784535        0.06404380527948       -0.01505726337362
C           63.84998125606923        1.24285144148541       -0.07363655086536
C           64.48906425094063        2.54750299544763       -0.13839915680975
C           63.51505229137480        3.46679875719989       -0.18407126366532
C           62.24544241281457        2.75547952122310       -0.14877810700839
N           62.45866279733644        1.37382467927584       -0.08015984873199
C           61.02981092120235        3.37136344256844       -0.17935049636905
C           59.76882077397489        2.70163642038117       -0.14609395868854
C           58.49509015979393        3.39884033108157       -0.18043494319627
C           57.52354825029294        2.47091422369255       -0.13432964805682
N           59.58582660427543        1.38206318949234       -0.08057212274119
C           58.17212182417760        1.17653729081037       -0.07020386148452
C           57.54236041734971       -0.03676329416033       -0.01033081265952
C           58.32732662032649       -1.26705716585840        0.05065219481653
C           57.75799815800499       -2.52351690658696        0.11308915312041
C           58.78924778035671       -3.47899402142269        0.16051730334917
C           59.98604777235269       -2.79692181291734        0.12676245878802
N           59.74848447695109       -1.40806966408740        0.05786293760815
C           61.25725361670486       -3.46753965308195        0.16010440080024
C           62.45035469153071       -2.82992752032144        0.12851978973259
C           63.74954196153364       -3.46919038465546        0.16039640089403
C           64.65173223426123       -2.47387563366234        0.11104584339644
C           63.91824734704679       -1.21824728429059        0.04859627089352
N           62.60491943704766       -1.43390011931946        0.05918241205452
H           65.61547323474664        0.11394253328414       -0.01748362802528
H           65.55000361475749        2.75915979093203       -0.14887680128107
H           63.66842790699914        4.53665284999158       -0.23718397537941
H           61.02866052282639        4.45709856096859       -0.23324175014777
H           58.33898509769131        4.46395500885694       -0.23323846008198
H           56.46247552541663        2.67547479187364       -0.14439183417200
H           56.69892812076235       -2.71657897382402        0.12266880140204
H           58.69435878086609       -4.55322922525228        0.21383223806092
H           61.28561565399308       -4.55771384059643        0.21423185326398
H           63.96984487886082       -4.52828900740994        0.21303934966593
H           65.72146056776174       -2.59887857269343        0.11737442461692
C           33.33135968073618       -0.00583792132821       -0.00461283814881
C           34.56007471878969       -0.01962696889907       -0.01739404902441
C           43.86839051363764       -0.03357198115020       -0.02994900210016
C           45.07285142039204       -0.02817725018935       -0.02505342341555
C           54.37321431815163       -0.03124194303032       -0.02729602566873
C           55.60481135672703       -0.02095818281259       -0.01182044907085
Fe          39.25913014926715       -0.03506220503102       -0.03117639036773
C           35.89121797159640       -0.00450863951593       -0.00406003375168
C           36.52691371996821        0.89897761042392        0.79995725205447
C           35.86847687876671        1.86745882914873        1.66171795583568
C           36.83890703589834        2.55814292904771        2.27638095455197
C           38.10641645604941        2.03268367974256        1.80884847120044
N           37.90630332858315        0.99901163317860        0.88903285651514