      -----------------------------------------------------------      
     |                   =====================                   |     
     |                           x T B                           |     
     |                   =====================                   |     
     |                         S. Grimme                         |     
     |          Mulliken Center for Theoretical Chemistry        |     
     |                    University of Bonn                     |     
      -----------------------------------------------------------      

   * xtb version 6.5.1 (b24c23e) compiled by 'conda@728c89f4b128' on 2022-07-12

   xtb is free software: you can redistribute it and/or modify it under
   the terms of the GNU Lesser General Public License as published by
   the Free Software Foundation, either version 3 of the License, or
   (at your option) any later version.
   
   xtb is distributed in the hope that it will be useful,
   but WITHOUT ANY WARRANTY; without even the implied warranty of
   MERCHANTABILITY or FITNESS FOR A PARTICULAR PURPOSE.  See the
   GNU Lesser General Public License for more details.
   
   Cite this work as:
   * C. Bannwarth, E. Caldeweyher, S. Ehlert, A. Hansen, P. Pracht,
     J. Seibert, S. Spicher, S. Grimme, WIREs Comput. Mol. Sci., 2020, 11,
     e01493. DOI: 10.1002/wcms.1493
   
   for GFN2-xTB:
   * C. Bannwarth, S. Ehlert and S. Grimme., J. Chem. Theory Comput., 2019,
     15, 1652-1671. DOI: 10.1021/acs.jctc.8b01176
   for GFN1-xTB:
   * S. Grimme, C. Bannwarth, P. Shushkov, J. Chem. Theory Comput., 2017,
     13, 1989-2009. DOI: 10.1021/acs.jctc.7b00118
   for GFN0-xTB:
   * P. Pracht, E. Caldeweyher, S. Ehlert, S. Grimme, ChemRxiv, 2019, preprint.
     DOI: 10.26434/chemrxiv.8326202.v1
   for GFN-FF:
   * S. Spicher and S. Grimme, Angew. Chem. Int. Ed., 2020, 59, 15665-15673.
     DOI: 10.1002/anie.202004239
   
   for ALPB and GBSA implicit solvation:
   * S. Ehlert, M. Stahn, S. Spicher, S. Grimme, J. Chem. Theory Comput.,
     2021, 17, 4250-4261. DOI: 10.1021/acs.jctc.1c00471
   
   for DFT-D4:
   * E. Caldeweyher, C. Bannwarth and S. Grimme, J. Chem. Phys., 2017,
     147, 034112. DOI: 10.1063/1.4993215
   * E. Caldeweyher, S. Ehlert, A. Hansen, H. Neugebauer, S. Spicher,
     C. Bannwarth and S. Grimme, J. Chem. Phys., 2019, 150, 154122.
     DOI: 10.1063/1.5090222
   * E. Caldeweyher, J.-M. Mewes, S. Ehlert and S. Grimme, Phys. Chem. Chem. Phys.
     2020, 22, 8499-8512. DOI: 10.1039/D0CP00502A
   
   for sTDA-xTB:
   * S. Grimme and C. Bannwarth, J. Chem. Phys., 2016, 145, 054103.
     DOI: 10.1063/1.4959605
   
   in the mass-spec context:
   * V. Asgeirsson, C. Bauer and S. Grimme, Chem. Sci., 2017, 8, 4879.
     DOI: 10.1039/c7sc00601b
   * J. Koopman and S. Grimme, ACS Omega 2019, 4, 12, 15120-15133.
     DOI: 10.1021/acsomega.9b02011
   
   for metadynamics refer to:
   * S. Grimme, J. Chem. Theory Comput., 2019, 155, 2847-2862
     DOI: 10.1021/acs.jctc.9b00143
   
   for SPH calculations refer to:
   * S. Spicher and S. Grimme, J. Chem. Theory Comput., 2021, 17, 1701-1714
     DOI: 10.1021/acs.jctc.0c01306
   
   with help from (in alphabetical order)
   P. Atkinson, C. Bannwarth, F. Bohle, G. Brandenburg, E. Caldeweyher
   M. Checinski, S. Dohm, S. Ehlert, S. Ehrlich, I. Gerasimov, C. Hölzer
   A. Katbashev, J. Koopman, C. Lavigne, S. Lehtola, F. März, M. Müller,
   F. Musil, H. Neugebauer, J. Pisarek, C. Plett, P. Pracht, F. Pultar,
   J. Seibert, P. Shushkov, S. Spicher, M. Stahn, M. Steiner, T. Strunk,
   J. Stückrath, T. Rose, and J. Unsleber
   
 * started run on 2022/07/29 at 18:09:40.956     

           -------------------------------------------------
          |                Calculation Setup                |
           -------------------------------------------------

          program call               : xtb Fe_Ph2Me_C4_3.xyz --gfn 1 --opt -T 48
          hostname                   : cx3-15-15.cx3.hpc.ic.ac.uk
          coordinate file            : Fe_Ph2Me_C4_3.xyz
          omp threads                :                     1

   ID    Z sym.   atoms
    1   26 Fe     1, 69, 145
    2    6 C      2-6, 8-11, 13-31, 34-41, 70-74, 76-79, 81-99, 102-109,
                  137-144, 146-150, 152-155, 157-175, 178-185
    3    7 N      7, 12, 32, 33, 75, 80, 100, 101, 151, 156, 176, 177
    4    1 H      42-68, 110-136, 186-211

molecular fragmentation (1/2 indicates fragments):
111111111111111111111111111111111111111111111111111111111111111111112222
222222222222222222222222222222222222222222222222222222222222222222222222
2222222222222222222222222222222222222222222222222222222222222222222
# atoms in fragment 1/2:    68   143
 fragment masses (1/2) :      571.47     1238.02
CMA distance (Bohr)    :  41.391
constraining FC (au)   :  0.0500
########################################################################
[WARNING] Please study the warnings concerning your input carefully
-1- prog_main_parseArguments: Unknown option '-T' provided
########################################################################

           -------------------------------------------------
          |                 G F N 1 - x T B                 |
           -------------------------------------------------

        Reference                      10.1021/acs.jctc.7b00118
      * Hamiltonian:
        H0-scaling (s, p, d)           1.850000    2.250000    2.000000
        zeta-weighting                 0.000000
      * Dispersion:
        s8                             2.400000
        a1                             0.630000
        a2                             5.000000
        s9                             0.000000
      * Repulsion:
        kExp                           1.500000
        rExp                           1.000000
      * Coulomb:
        alpha                          2.000000
        third order                    atomic
        anisotropic                    false
      * Halogen bond correction:
        rad-scale                      1.300000
        damping                        0.440000


          ...................................................
          :                      SETUP                      :
          :.................................................:
          :  # basis functions                 702          :
          :  # atomic orbitals                 699          :
          :  # shells                          425          :
          :  # electrons                       628          :
          :  # halogen bonds                     0          :
          :  max. iterations                   250          :
          :  Hamiltonian                  GFN1-xTB          :
          :  restarted?                      false          :
          :  GBSA solvation                  false          :
          :  PC potential                    false          :
          :  electronic temp.          300.0000000     K    :
          :  accuracy                    1.0000000          :
          :  -> integral cutoff          0.2500000E+02      :
          :  -> integral neglect         0.1000000E-07      :
          :  -> SCF convergence          0.1000000E-05 Eh   :
          :  -> wf. convergence          0.2000000E-04 e    :
          :  Broyden damping             0.4000000          :
          ...................................................

 iter      E             dE          RMSdq      gap      omega  full diag
   1   -306.4204917 -0.306420E+03  0.117E+01    0.02       0.0  T
   2   -149.3442735  0.157076E+03  0.134E+01    0.02       1.0  T
   3   -172.7676877 -0.234234E+02  0.104E+01    0.06       1.0  T
   4    453.0675178  0.625835E+03  0.148E+01    0.10       1.0  T
   5   1439.3613914  0.986294E+03  0.180E+01    0.00       1.0  T
   6     11.4804391 -0.142788E+04  0.112E+01    0.01       1.0  T
   7    -39.5746693 -0.510551E+02  0.102E+01    0.03       1.0  T
   8    120.7747678  0.160349E+03  0.110E+01    0.03       1.0  T
   9   -297.6418411 -0.418417E+03  0.563E+00    0.01       1.0  T
  10   -315.3834714 -0.177416E+02  0.435E+00    0.02       1.0  T
  11   -320.3086303 -0.492516E+01  0.419E+00    0.03       1.0  T
  12   -324.4376998 -0.412907E+01  0.395E+00    0.03       1.0  T
  13   -315.5177511  0.891995E+01  0.433E+00    0.05       1.0  T
  14   -327.6470248 -0.121293E+02  0.307E+00    0.06       1.0  T
  15   -305.7545333  0.218925E+02  0.476E+00    0.15       1.0  T
  16   -322.7966852 -0.170422E+02  0.364E+00    0.06       1.0  T
  17   -271.2177820  0.515789E+02  0.674E+00    0.10       1.0  T
  18   -295.7367174 -0.245189E+02  0.492E+00    0.02       1.0  T
  19   -299.8938134 -0.415710E+01  0.454E+00    0.06       1.0  T
  20   -312.6816471 -0.127878E+02  0.418E+00    0.02       1.0  T
  21   -305.2812838  0.740036E+01  0.427E+00    0.08       1.0  T
  22   -304.8339966  0.447287E+00  0.428E+00    0.04       1.0  T
  23   -302.7931463  0.204085E+01  0.433E+00    0.02       1.0  T
  24   -300.4161086  0.237704E+01  0.463E+00    0.02       1.0  T
  25   -311.7959034 -0.113798E+02  0.404E+00    0.02       1.0  T
  26   -316.1684315 -0.437253E+01  0.371E+00    0.02       1.0  T
  27   -330.6805703 -0.145121E+02  0.256E+00    0.08       1.0  T
  28   -332.2096475 -0.152908E+01  0.227E+00    0.09       1.0  T
  29   -332.3603310 -0.150683E+00  0.253E+00    0.03       1.0  T
  30   -337.2552134 -0.489488E+01  0.170E+00    0.03       1.0  T
  31   -334.4568888  0.279832E+01  0.227E+00    0.17       1.0  T
  32   -335.9039928 -0.144710E+01  0.214E+00    0.01       1.0  T
  33   -335.6560704  0.247922E+00  0.223E+00    0.01       1.0  T
  34   -329.8750102  0.578106E+01  0.320E+00    0.02       1.0  T
  35   -317.2876396  0.125874E+02  0.449E+00    0.19       1.0  T
  36   -317.2947498 -0.711015E-02  0.449E+00    0.20       1.0  T
  37   -318.6627274 -0.136798E+01  0.433E+00    0.18       1.0  T
  38   -334.0858320 -0.154231E+02  0.247E+00    0.00       1.0  T
  39   -332.1690095  0.191682E+01  0.265E+00    0.01       1.0  T
  40   -333.2808772 -0.111187E+01  0.242E+00    0.04       1.0  T
  41   -338.0163123 -0.473544E+01  0.142E+00    0.00       1.0  T
  42   -336.2555368  0.176078E+01  0.192E+00    0.01       1.0  T
  43   -331.0311945  0.522434E+01  0.277E+00    0.01       1.0  T
  44   -337.9219329 -0.689074E+01  0.133E+00    0.05       1.0  T
  45   -339.5674390 -0.164551E+01  0.650E-01    0.04       1.0  T
  46   -338.6939200  0.873519E+00  0.108E+00    0.02       1.0  T
  47   -339.3915495 -0.697630E+00  0.756E-01    0.03       1.0  T
  48   -339.8812970 -0.489747E+00  0.307E-01    0.02       1.0  T
  49   -338.5466803  0.133462E+01  0.115E+00    0.04       1.0  T
  50   -337.3306597  0.121602E+01  0.153E+00    0.08       1.0  T
  51   -338.2962572 -0.965598E+00  0.120E+00    0.03       1.0  T
  52   -338.2738410  0.224163E-01  0.125E+00    0.04       1.0  T
  53   -339.3303810 -0.105654E+01  0.723E-01    0.01       1.0  T
  54   -339.3717770 -0.413960E-01  0.741E-01    0.01       1.0  T
  55   -339.6481601 -0.276383E+00  0.519E-01    0.03       1.0  T
  56   -338.2678513  0.138031E+01  0.124E+00    0.03       1.0  T
  57   -338.7734964 -0.505645E+00  0.105E+00    0.03       1.0  T
  58   -339.6447216 -0.871225E+00  0.547E-01    0.02       1.0  T
  59   -339.4288387  0.215883E+00  0.708E-01    0.01       1.0  T
  60   -339.3816210  0.472178E-01  0.740E-01    0.00       1.0  T
  61   -339.6689666 -0.287346E+00  0.527E-01    0.01       1.0  T
  62   -339.7397373 -0.707707E-01  0.458E-01    0.01       1.0  T
  63   -339.6635081  0.762292E-01  0.529E-01    0.00       1.0  T
  64   -339.7852639 -0.121756E+00  0.402E-01    0.01       1.0  T
  65   -339.8132959 -0.280319E-01  0.364E-01    0.01       1.0  T
  66   -339.9316107 -0.118315E+00  0.107E-01    0.03       1.0  T
  67   -339.9189066  0.127041E-01  0.160E-01    0.03       1.0  T
  68   -339.9344589 -0.155523E-01  0.973E-02    0.03       1.0  T
  69   -339.8995679  0.348910E-01  0.203E-01    0.02       1.0  T
  70   -339.9333568 -0.337889E-01  0.989E-02    0.03       1.0  T
  71   -339.8625106  0.708462E-01  0.272E-01    0.01       1.0  T
  72   -339.9070467 -0.445361E-01  0.182E-01    0.02       1.0  T
  73   -339.9048391  0.220754E-02  0.188E-01    0.02       1.0  T
  74   -339.9210083 -0.161692E-01  0.142E-01    0.02       1.0  T
  75   -339.9139104  0.709794E-02  0.164E-01    0.02       1.0  T
  76   -339.9328156 -0.189052E-01  0.938E-02    0.03       1.0  T
  77   -339.9172592  0.155564E-01  0.154E-01    0.02       1.0  T
  78   -339.9164648  0.794408E-03  0.155E-01    0.02       1.0  T
  79   -339.9290090 -0.125442E-01  0.112E-01    0.02       1.0  T
  80   -339.9292413 -0.232281E-03  0.110E-01    0.02       1.0  T
  81   -339.9312264 -0.198509E-02  0.101E-01    0.02       1.0  T
  82   -339.9374733 -0.624692E-02  0.645E-02    0.03       1.0  T
  83   -339.9376061 -0.132758E-03  0.630E-02    0.02       1.0  T
  84   -339.9410737 -0.346762E-02  0.252E-02    0.03       1.0  T
  85   -339.9411560 -0.822579E-04  0.222E-02    0.03       1.0  T
  86   -339.9406922  0.463804E-03  0.298E-02    0.03       1.0  T
  87   -339.9407067 -0.145099E-04  0.298E-02    0.03       1.0  T
  88   -339.9408621 -0.155413E-03  0.276E-02    0.03       1.0  T
  89   -339.9416106 -0.748494E-03  0.821E-03    0.03       1.0  T
  90   -339.9416688 -0.582227E-04  0.272E-03    0.03       2.5  T
  91   -339.9416573  0.115456E-04  0.432E-03    0.03       1.6  T
  92   -339.9416720 -0.147457E-04  0.139E-03    0.03       4.9  T
  93   -339.9416669  0.511356E-05  0.268E-03    0.03       2.6  T
  94   -339.9416706 -0.374601E-05  0.172E-03    0.03       4.0  T
  95   -339.9416671  0.357383E-05  0.251E-03    0.03       2.7  T
  96   -339.9416612  0.588134E-05  0.343E-03    0.03       2.0  T
  97   -339.9416635 -0.233702E-05  0.307E-03    0.03       2.2  T
  98   -339.9416685 -0.495057E-05  0.226E-03    0.03       3.1  T
  99   -339.9416685 -0.489791E-07  0.225E-03    0.03       3.1  T
 100   -339.9416694 -0.890633E-06  0.205E-03    0.03       3.4  T
 101   -339.9416735 -0.410122E-05  0.726E-04    0.03       9.5  T
 102   -339.9416736 -0.130143E-06  0.592E-04    0.03      11.6  T
 103   -339.9416737 -0.740911E-07  0.517E-04    0.03      13.3  T
 104   -339.9416738 -0.987028E-07  0.418E-04    0.03      16.5  T
 105   -339.9416738 -0.931169E-08  0.400E-04    0.03      17.2  T
 106   -339.9416738 -0.105702E-07  0.377E-04    0.03      18.3  T
 107   -339.9416739 -0.103280E-06  0.194E-04    0.03      35.5  T
 108   -339.9416739 -0.967424E-08  0.162E-04    0.03      42.5  T

   *** convergence criteria satisfied after 108 iterations ***

         #    Occupation            Energy/Eh            Energy/eV
      -------------------------------------------------------------
         1        2.0000           -0.7728807             -21.0312
       ...           ...                  ...                  ...
       308        1.9993           -0.3783764             -10.2961
       309        1.9990           -0.3780535             -10.2874
       310        1.9986           -0.3777104             -10.2780
       311        1.9962           -0.3767866             -10.2529
       312        1.3965           -0.3716217             -10.1123
       313        1.3701           -0.3715630             -10.1107
       314        1.3571           -0.3715346             -10.1100 (HOMO)
       315        0.8708           -0.3705778             -10.0839 (LUMO)
       316        0.8649           -0.3705664             -10.0836
       317        0.1487           -0.3684291             -10.0255
       318        0.0002           -0.3622313              -9.8568
       319        0.0001           -0.3610143              -9.8237
       ...           ...                  ...                  ...
       699                          1.2595028              34.2728
      -------------------------------------------------------------
                  HL-Gap            0.0009568 Eh            0.0260 eV
             Fermi-level           -0.3708248 Eh          -10.0907 eV

 SCC (total)                   0 d,  0 h,  0 min, 15.829 sec
 SCC setup                      ...        0 min,  0.013 sec (  0.081%)
 Dispersion                     ...        0 min,  0.008 sec (  0.051%)
 classical contributions        ...        0 min,  0.003 sec (  0.018%)
 integral evaluation            ...        0 min,  0.222 sec (  1.404%)
 iterations                     ...        0 min, 15.018 sec ( 94.877%)
 molecular gradient             ...        0 min,  0.536 sec (  3.385%)
 printout                       ...        0 min,  0.029 sec (  0.184%)

         :::::::::::::::::::::::::::::::::::::::::::::::::::::
         ::                     SUMMARY                     ::
         :::::::::::::::::::::::::::::::::::::::::::::::::::::
         :: total energy            -334.845052690856 Eh    ::
         :: gradient norm              0.611683458135 Eh/a0 ::
         :: HOMO-LUMO gap              0.026034925947 eV    ::
         ::.................................................::
         :: SCC energy              -339.941673941555 Eh    ::
         :: -> electrostatic           0.160399242093 Eh    ::
         :: repulsion energy           5.274974719674 Eh    ::
         :: dispersion energy         -0.178353468976 Eh    ::
         :: halogen bond corr.         0.000000000000 Eh    ::
         :: add. restraining           0.000000000000 Eh    ::
         :: total charge               0.000000000000 e     ::
         :::::::::::::::::::::::::::::::::::::::::::::::::::::

      ----------------------------------------------------------- 
     |                   =====================                   |
     |                        A N C O P T                        |
     |                   =====================                   |
     |               Approximate Normal Coordinate               |
     |                Rational Function Optimizer                |
      ----------------------------------------------------------- 

          ...................................................
          :                      SETUP                      :
          :.................................................:
          :   optimization level            normal          :
          :   max. optcycles                   633          :
          :   ANC micro-cycles                  20          :
          :   degrees of freedom               627          :
          :.................................................:
          :   RF solver                   davidson          :
          :   write xtbopt.log                true          :
          :   linear?                        false          :
          :   energy convergence         0.5000000E-05 Eh   :
          :   grad. convergence          0.1000000E-02 Eh/α :
          :   maximium RF displ.         1.0000000          :
          :   Hlow (freq-cutoff)         0.1000000E-01      :
          :   Hmax (freq-cutoff)         5.0000000          :
          :   S6 in model hess.         20.0000000          :
          ...................................................

generating ANC from model Hessian ...
Using Lindh-Hessian (1995)
 Shifting diagonal of input Hessian by    1.0054945128707599E-002
 Lowest  eigenvalues of input Hessian
    0.010000    0.010036    0.010040    0.010043    0.010043    0.010049
    0.010051    0.010052    0.000000    0.000000    0.000000    0.000000
    0.000000    0.000000    0.010056    0.010060    0.010122    0.010148
 Highest eigenvalues
    2.096735    2.101230    2.104101    2.104103    2.444851    2.533683


........................................................................
.............................. CYCLE    1 ..............................
........................................................................
   1   -339.9416739 -0.339942E+03  0.147E-04    0.03       0.0  T
   2   -339.9409270  0.746936E-03  0.256E-02    0.02       1.0  T
   3   -339.9416261 -0.699048E-03  0.650E-03    0.03       1.1  T
   4   -339.9414316  0.194476E-03  0.148E-02    0.03       1.0  T
   5   -339.9416551 -0.223506E-03  0.410E-03    0.03       1.7  T
   6   -339.9416548  0.282930E-06  0.400E-03    0.03       1.7  T
   7   -339.9416676 -0.128098E-04  0.233E-03    0.03       3.0  T
   8   -339.9416731 -0.548165E-05  0.875E-04    0.03       7.9  T
   9   -339.9416732 -0.962694E-07  0.816E-04    0.03       8.4  T
  10   -339.9416738 -0.569546E-06  0.421E-04    0.03      16.4  T
  11   -339.9416739 -0.116839E-06  0.276E-04    0.03      25.0  T
  12   -339.9416740 -0.755260E-07  0.100E-04    0.03      68.7  T
  13   -339.9416740 -0.111705E-07  0.187E-05    0.03     368.1  T
     SCC iter.                  ...        0 min,  1.808 sec
     gradient                   ...        0 min,  0.537 sec
 * total energy  :  -334.8450527 Eh     change       -0.2150983E-07 Eh
   gradient norm :     0.6116880 Eh/α   predicted     0.0000000E+00 (-100.00%)
   displ. norm   :     0.4754220 α      lambda       -0.2408738E+00
   maximum displ.:     0.1338261 α      in ANC's #380, #531, #414, ...

........................................................................
.............................. CYCLE    2 ..............................
........................................................................
   1   -339.9006890 -0.339901E+03  0.476E-01    0.00       0.0  T
   2   -330.2801474  0.962054E+01  0.285E+00    0.02       1.0  T
   3   -311.1127071  0.191674E+02  0.475E+00    0.51       1.0  T
   4   -317.2602607 -0.614755E+01  0.429E+00    0.14       1.0  T
   5   -321.2158307 -0.395557E+01  0.392E+00    0.04       1.0  T
   6   -317.7127441  0.350309E+01  0.424E+00    0.24       1.0  T
   7   -321.5282367 -0.381549E+01  0.387E+00    0.08       1.0  T
   8   -321.0925977  0.435639E+00  0.405E+00    0.12       1.0  T
   9   -329.5055544 -0.841296E+01  0.308E+00    0.02       1.0  T
  10   -327.4853260  0.202023E+01  0.334E+00    0.06       1.0  T
  11   -332.5311815 -0.504586E+01  0.266E+00    0.02       1.0  T
  12   -334.7659071 -0.223473E+01  0.226E+00    0.02       1.0  T
  13   -336.9119830 -0.214608E+01  0.181E+00    0.00       1.0  T
  14   -336.4516640  0.460319E+00  0.191E+00    0.02       1.0  T
  15   -337.1691954 -0.717531E+00  0.172E+00    0.02       1.0  T
  16   -335.9029970  0.126620E+01  0.204E+00    0.15       1.0  T
  17   -335.8268107  0.761863E-01  0.205E+00    0.15       1.0  T
  18   -337.4620080 -0.163520E+01  0.161E+00    0.09       1.0  T
  19   -338.2441389 -0.782131E+00  0.138E+00    0.04       1.0  T
  20   -337.7297796  0.514359E+00  0.151E+00    0.08       1.0  T
  21   -338.8773001 -0.114752E+01  0.104E+00    0.02       1.0  T
  22   -338.2773116  0.599988E+00  0.132E+00    0.01       1.0  T
  23   -337.9005977  0.376714E+00  0.142E+00    0.08       1.0  T
  24   -338.9954575 -0.109486E+01  0.102E+00    0.01       1.0  T
  25   -339.9021348 -0.906677E+00  0.462E-01    0.02       1.0  T
  26   -339.5920338  0.310101E+00  0.707E-01    0.02       1.0  T
  27   -339.4292738  0.162760E+00  0.804E-01    0.02       1.0  T
  28   -339.4853404 -0.560666E-01  0.757E-01    0.02       1.0  T
  29   -339.7436759 -0.258336E+00  0.583E-01    0.02       1.0  T
  30   -339.7427486  0.927348E-03  0.588E-01    0.00       1.0  T
  31   -340.0435867 -0.300838E+00  0.231E-01    0.00       1.0  T
  32   -339.8988977  0.144689E+00  0.448E-01    0.01       1.0  T
  33   -340.0028446 -0.103947E+00  0.291E-01    0.00       1.0  T
  34   -340.0862463 -0.834016E-01  0.143E-01    0.01       1.0  T
  35   -339.9588950  0.127351E+00  0.364E-01    0.01       1.0  T
  36   -339.9978029 -0.389079E-01  0.317E-01    0.01       1.0  T
  37   -339.9393458  0.584570E-01  0.393E-01    0.01       1.0  T
  38   -340.0515761 -0.112230E+00  0.224E-01    0.01       1.0  T
  39   -340.1059729 -0.543969E-01  0.364E-02    0.01       1.0  T
  40   -340.0969684  0.900450E-02  0.942E-02    0.01       1.0  T
  41   -340.1054971 -0.852868E-02  0.411E-02    0.01       1.0  T
  42   -340.0987991  0.669799E-02  0.868E-02    0.01       1.0  T
  43   -340.1034437 -0.464459E-02  0.600E-02    0.01       1.0  T
  44   -340.1025741  0.869597E-03  0.670E-02    0.01       1.0  T
  45   -340.1043787 -0.180461E-02  0.536E-02    0.01       1.0  T
  46   -340.1062183 -0.183954E-02  0.342E-02    0.02       1.0  T
  47   -340.1071085 -0.890264E-03  0.181E-02    0.02       1.0  T
  48   -340.1073983 -0.289747E-03  0.723E-03    0.02       1.0  T
  49   -340.1074501 -0.518489E-04  0.181E-03    0.02       3.8  T
  50   -340.1074529 -0.281967E-05  0.825E-04    0.02       8.3  T
  51   -340.1074530 -0.454989E-07  0.762E-04    0.02       9.0  T
  52   -340.1074531 -0.171634E-06  0.661E-04    0.02      10.4  T
  53   -340.1074534 -0.295500E-06  0.408E-04    0.02      16.9  T
  54   -340.1074536 -0.139520E-06  0.205E-04    0.02      33.5  T
  55   -340.1074536 -0.313192E-07  0.123E-04    0.02      56.1  T
  56   -340.1074536 -0.146448E-07  0.511E-05    0.02     134.6  T
     SCC iter.                  ...        0 min,  7.798 sec
     gradient                   ...        0 min,  0.536 sec
 * total energy  :  -335.0425096 Eh     change       -0.1974568E+00 Eh
   gradient norm :     0.3734920 Eh/α   predicted    -0.1476793E+00 ( -25.21%)
   displ. norm   :     0.5497147 α      lambda       -0.1745880E+00
   maximum displ.:     0.1572101 α      in ANC's #380, #531, #414, ...

........................................................................
.............................. CYCLE    3 ..............................
........................................................................
   1   -340.2333725 -0.340233E+03  0.399E-01    0.03       0.0  T
   2   -331.3381946  0.889518E+01  0.304E+00    0.07       1.0  T
   3   -329.9434441  0.139475E+01  0.308E+00    0.05       1.0  T
   4   -337.1845922 -0.724115E+01  0.169E+00    0.01       1.0  T
   5   -328.9180629  0.826653E+01  0.313E+00    0.01       1.0  T
   6   -332.5874674 -0.366940E+01  0.258E+00    0.00       1.0  T
   7   -335.7762582 -0.318879E+01  0.202E+00    0.06       1.0  T
   8   -338.6345614 -0.285830E+01  0.123E+00    0.02       1.0  T
   9   -330.2721252  0.836244E+01  0.293E+00    0.01       1.0  T
  10   -333.7017200 -0.342959E+01  0.240E+00    0.01       1.0  T
  11   -337.5072708 -0.380555E+01  0.161E+00    0.07       1.0  T
  12   -334.5830405  0.292423E+01  0.221E+00    0.02       1.0  T
  13   -339.1660638 -0.458302E+01  0.102E+00    0.04       1.0  T
  14   -337.5290860  0.163698E+01  0.157E+00    0.02       1.0  T
  15   -338.6963033 -0.116722E+01  0.121E+00    0.05       1.0  T
  16   -337.3733457  0.132296E+01  0.161E+00    0.02       1.0  T
  17   -338.6601253 -0.128678E+01  0.124E+00    0.02       1.0  T
  18   -339.1477811 -0.487656E+00  0.104E+00    0.02       1.0  T
  19   -340.3034561 -0.115568E+01  0.229E-01    0.02       1.0  T
  20   -339.5516349  0.751821E+00  0.853E-01    0.03       1.0  T
  21   -339.8602370 -0.308602E+00  0.655E-01    0.00       1.0  T
  22   -340.3457526 -0.485516E+00  0.131E-01    0.01       1.0  T
  23   -340.2087754  0.136977E+00  0.365E-01    0.02       1.0  T
  24   -340.3554323 -0.146657E+00  0.877E-02    0.02       1.0  T
  25   -340.2505422  0.104890E+00  0.320E-01    0.02       1.0  T
  26   -340.2922444 -0.417022E-01  0.251E-01    0.02       1.0  T
  27   -340.2722797  0.199647E-01  0.286E-01    0.02       1.0  T
  28   -340.3037646 -0.314849E-01  0.233E-01    0.02       1.0  T
  29   -340.3271760 -0.234114E-01  0.182E-01    0.02       1.0  T
  30   -340.3448937 -0.177177E-01  0.133E-01    0.02       1.0  T
  31   -340.3604551 -0.155615E-01  0.657E-02    0.02       1.0  T
  32   -340.3634795 -0.302440E-02  0.419E-02    0.02       1.0  T
  33   -340.3635163 -0.368029E-04  0.417E-02    0.02       1.0  T
  34   -340.3648802 -0.136384E-02  0.244E-02    0.02       1.0  T
  35   -340.3654737 -0.593561E-03  0.973E-03    0.02       1.0  T
  36   -340.3655542 -0.804868E-04  0.505E-03    0.02       1.4  T
  37   -340.3655758 -0.215507E-04  0.240E-03    0.02       2.9  T
  38   -340.3655764 -0.588197E-06  0.223E-03    0.02       3.1  T
  39   -340.3655806 -0.426976E-05  0.103E-03    0.02       6.7  T
  40   -340.3655817 -0.104841E-05  0.370E-04    0.02      18.6  T
  41   -340.3655818 -0.110654E-06  0.206E-04    0.02      33.4  T
  42   -340.3655818  0.164535E-07  0.235E-04    0.02      29.3  T
  43   -340.3655818 -0.458152E-07  0.124E-04    0.02      55.7  T
  44   -340.3655818 -0.144345E-07  0.513E-05    0.02     134.2  T
     SCC iter.                  ...        0 min,  6.133 sec
     gradient                   ...        0 min,  0.538 sec
 * total energy  :  -335.0992810 Eh     change       -0.5677145E-01 Eh
   gradient norm :     0.4056447 Eh/α   predicted    -0.1136763E+00 ( 100.23%)
   displ. norm   :     0.3729161 α      lambda       -0.9301810E-01
   maximum displ.:     0.1092243 α      in ANC's #414, #53, #29, ...

........................................................................
.............................. CYCLE    4 ..............................
........................................................................
   1   -340.3235337 -0.340324E+03  0.102E-01    0.01       0.0  T
   2   -319.2120163  0.211115E+02  0.413E+00    0.00       1.0  T
   3   -331.2283696 -0.120164E+02  0.278E+00    0.03       1.0  T
   4   -337.5516748 -0.632331E+01  0.159E+00    0.07       1.0  T
   5   -337.8807432 -0.329068E+00  0.156E+00    0.04       1.0  T
   6   -335.6043285  0.227641E+01  0.200E+00    0.01       1.0  T
   7   -335.9387624 -0.334434E+00  0.196E+00    0.00       1.0  T
   8   -339.7105496 -0.377179E+01  0.730E-01    0.01       1.0  T
   9   -340.2905372 -0.579988E+00  0.188E-01    0.03       1.0  T
  10   -339.8741209  0.416416E+00  0.649E-01    0.01       1.0  T
  11   -339.7256883  0.148433E+00  0.740E-01    0.00       1.0  T
  12   -339.6177217  0.107967E+00  0.786E-01    0.01       1.0  T
  13   -339.5766243  0.410974E-01  0.827E-01    0.00       1.0  T
  14   -339.5977196 -0.210953E-01  0.804E-01    0.04       1.0  T
  15   -339.5101927  0.875269E-01  0.842E-01    0.00       1.0  T
  16   -339.6792523 -0.169060E+00  0.759E-01    0.00       1.0  T
  17   -340.3140606 -0.634808E+00  0.117E-01    0.01       1.0  T
  18   -340.3013379  0.127227E-01  0.157E-01    0.01       1.0  T
  19   -340.2998148  0.152319E-02  0.160E-01    0.01       1.0  T
  20   -340.3166929 -0.168781E-01  0.107E-01    0.02       1.0  T
  21   -340.3228261 -0.613325E-02  0.770E-02    0.02       1.0  T
  22   -340.3260937 -0.326751E-02  0.566E-02    0.02       1.0  T
  23   -340.3273201 -0.122649E-02  0.457E-02    0.02       1.0  T
  24   -340.3279787 -0.658536E-03  0.384E-02    0.02       1.0  T
  25   -340.3290554 -0.107672E-02  0.215E-02    0.02       1.0  T
  26   -340.3288310  0.224366E-03  0.252E-02    0.02       1.0  T
  27   -340.3291450 -0.313922E-03  0.191E-02    0.02       1.0  T
  28   -340.3291596 -0.146709E-04  0.184E-02    0.02       1.0  T
  29   -340.3292814 -0.121762E-03  0.151E-02    0.02       1.0  T
  30   -340.3294608 -0.179383E-03  0.821E-03    0.02       1.0  T
  31   -340.3294951 -0.343167E-04  0.588E-03    0.01       1.2  T
  32   -340.3295279 -0.328520E-04  0.228E-03    0.01       3.0  T
  33   -340.3295318 -0.390670E-05  0.124E-03    0.01       5.5  T
  34   -340.3295326 -0.778278E-06  0.937E-04    0.01       7.3  T
  35   -340.3295331 -0.437188E-06  0.689E-04    0.01      10.0  T
  36   -340.3295328  0.271411E-06  0.842E-04    0.01       8.2  T
  37   -340.3295331 -0.274437E-06  0.676E-04    0.01      10.2  T
  38   -340.3295336 -0.511646E-06  0.109E-04    0.01      63.0  T
  39   -340.3295336  0.331403E-08  0.105E-04    0.01      65.8  T
     SCC iter.                  ...        0 min,  5.433 sec
     gradient                   ...        0 min,  0.539 sec
 * total energy  :  -335.1418770 Eh     change       -0.4259602E-01 Eh
   gradient norm :     0.0964234 Eh/α   predicted    -0.5297693E-01 (  24.37%)
   displ. norm   :     0.6203870 α      lambda       -0.2462915E-01
   maximum displ.:     0.2261677 α      in ANC's #53, #29, #12, ...

........................................................................
.............................. CYCLE    5 ..............................
........................................................................
   1   -340.3628611 -0.340363E+03  0.926E-02    0.04       0.0  T
   2   -334.6525378  0.571032E+01  0.221E+00    0.08       1.0  T
   3   -334.8267715 -0.174234E+00  0.226E+00    0.06       1.0  T
   4   -331.6622567  0.316451E+01  0.275E+00    0.03       1.0  T
   5   -339.6521105 -0.798985E+01  0.790E-01    0.01       1.0  T
   6   -338.9913101  0.660800E+00  0.110E+00    0.00       1.0  T
   7   -339.2611081 -0.269798E+00  0.979E-01    0.01       1.0  T
   8   -340.2422307 -0.981123E+00  0.342E-01    0.01       1.0  T
   9   -339.8526927  0.389538E+00  0.669E-01    0.00       1.0  T
  10   -340.1802120 -0.327519E+00  0.409E-01    0.01       1.0  T
  11   -340.0870152  0.931968E-01  0.493E-01    0.01       1.0  T
  12   -340.3403525 -0.253337E+00  0.163E-01    0.02       1.0  T
  13   -340.2925507  0.478018E-01  0.259E-01    0.01       1.0  T
  14   -340.2454871  0.470636E-01  0.331E-01    0.02       1.0  T
  15   -340.2550826 -0.959548E-02  0.325E-01    0.02       1.0  T
  16   -340.2919504 -0.368678E-01  0.269E-01    0.03       1.0  T
  17   -340.3471338 -0.551834E-01  0.148E-01    0.03       1.0  T
  18   -340.3515540 -0.442018E-02  0.129E-01    0.03       1.0  T
  19   -340.3706861 -0.191321E-01  0.998E-03    0.04       1.0  T
  20   -340.3691078  0.157825E-02  0.384E-02    0.04       1.0  T
  21   -340.3696020 -0.494192E-03  0.321E-02    0.03       1.0  T
  22   -340.3706775 -0.107551E-02  0.937E-03    0.03       1.0  T
  23   -340.3706738  0.373209E-05  0.973E-03    0.03       1.0  T
  24   -340.3706825 -0.873831E-05  0.924E-03    0.03       1.0  T
  25   -340.3707361 -0.536031E-04  0.622E-03    0.03       1.1  T
  26   -340.3707602 -0.240561E-04  0.422E-03    0.03       1.6  T
  27   -340.3707779 -0.176849E-04  0.155E-03    0.03       4.4  T
  28   -340.3707802 -0.227753E-05  0.662E-04    0.03      10.4  T
  29   -340.3707806 -0.401881E-06  0.306E-04    0.03      22.5  T
  30   -340.3707806 -0.498970E-07  0.219E-04    0.03      31.4  T
  31   -340.3707806 -0.241579E-08  0.213E-04    0.03      32.3  T
  32   -340.3707807 -0.438999E-07  0.831E-05    0.03      82.8  T
  33   -340.3707807 -0.431879E-08  0.556E-05    0.03     123.7  T
     SCC iter.                  ...        0 min,  4.603 sec
     gradient                   ...        0 min,  0.536 sec
 * total energy  :  -335.1624538 Eh     change       -0.2057676E-01 Eh
   gradient norm :     0.0622409 Eh/α   predicted    -0.1705423E-01 ( -17.12%)
   displ. norm   :     0.8251286 α      lambda       -0.2492937E-01
   maximum displ.:     0.3027816 α      in ANC's #53, #29, #12, ...

........................................................................
.............................. CYCLE    6 ..............................
........................................................................
   1   -340.3701632 -0.340370E+03  0.162E-01    0.08       0.0  T
   2   -313.5977622  0.267724E+02  0.470E+00    0.29       1.0  T
   3   -335.5591603 -0.219614E+02  0.233E+00    0.04       1.0  T
   4   -339.6554970 -0.409634E+01  0.792E-01    0.00       1.0  T
   5   -328.3334929  0.113220E+02  0.319E+00    0.05       1.0  T
   6   -332.6615287 -0.432804E+01  0.256E+00    0.04       1.0  T
   7   -336.0166921 -0.335516E+01  0.194E+00    0.04       1.0  T
   8   -336.9245563 -0.907864E+00  0.177E+00    0.02       1.0  T
   9   -335.8056206  0.111894E+01  0.203E+00    0.02       1.0  T
  10   -335.7563988  0.492218E-01  0.204E+00    0.03       1.0  T
  11   -337.6175690 -0.186117E+01  0.159E+00    0.05       1.0  T
  12   -340.2058195 -0.258825E+01  0.426E-01    0.05       1.0  T
  13   -340.3027749 -0.969554E-01  0.287E-01    0.07       1.0  T
  14   -340.2589348  0.438401E-01  0.345E-01    0.02       1.0  T
  15   -340.3845391 -0.125604E+00  0.109E-01    0.07       1.0  T
  16   -340.3707550  0.137841E-01  0.166E-01    0.05       1.0  T
  17   -340.2482292  0.122526E+00  0.356E-01    0.03       1.0  T
  18   -340.3441615 -0.959323E-01  0.216E-01    0.04       1.0  T
  19   -340.3383202  0.584130E-02  0.227E-01    0.04       1.0  T
  20   -340.2792565  0.590637E-01  0.320E-01    0.03       1.0  T
  21   -340.3434423 -0.641858E-01  0.220E-01    0.04       1.0  T
  22   -340.3244909  0.189514E-01  0.256E-01    0.04       1.0  T
  23   -340.3572371 -0.327462E-01  0.192E-01    0.05       1.0  T
  24   -340.3770269 -0.197898E-01  0.138E-01    0.05       1.0  T
  25   -340.3781384 -0.111150E-02  0.135E-01    0.05       1.0  T
  26   -340.3871814 -0.904302E-02  0.966E-02    0.06       1.0  T
  27   -340.3970416 -0.986022E-02  0.319E-02    0.06       1.0  T
  28   -340.3976785 -0.636937E-03  0.141E-02    0.07       1.0  T
  29   -340.3978140 -0.135456E-03  0.104E-02    0.06       1.0  T
  30   -340.3977385  0.754897E-04  0.126E-02    0.06       1.0  T
  31   -340.3978482 -0.109683E-03  0.779E-03    0.06       1.0  T
  32   -340.3979081 -0.598860E-04  0.310E-03    0.06       2.2  T
  33   -340.3979119 -0.378970E-05  0.243E-03    0.06       2.8  T
  34   -340.3979182 -0.636780E-05  0.718E-04    0.06       9.6  T
  35   -340.3979181  0.961276E-07  0.653E-04    0.06      10.5  T
  36   -340.3979186 -0.440868E-06  0.380E-04    0.06      18.1  T
  37   -340.3979175  0.112420E-05  0.105E-03    0.06       6.5  T
  38   -340.3979179 -0.494681E-06  0.815E-04    0.06       8.4  T
  39   -340.3979183 -0.356631E-06  0.598E-04    0.06      11.5  T
  40   -340.3979185 -0.222325E-06  0.398E-04    0.06      17.3  T
  41   -340.3979187 -0.153506E-06  0.145E-04    0.06      47.6  T
  42   -340.3979187 -0.160055E-07  0.806E-05    0.06      85.4  T
     SCC iter.                  ...        0 min,  5.846 sec
     gradient                   ...        0 min,  0.539 sec
 * total energy  :  -335.1840631 Eh     change       -0.2160929E-01 Eh
   gradient norm :     0.0454781 Eh/α   predicted    -0.2095111E-01 (  -3.05%)
   displ. norm   :     0.9074466 α      lambda       -0.2428005E-01
   maximum displ.:     0.3264541 α      in ANC's #53, #29, #12, ...

........................................................................
.............................. CYCLE    7 ..............................
........................................................................
   1   -340.3739686 -0.340374E+03  0.144E-01    0.08       0.0  T
   2   -312.8359300  0.275380E+02  0.475E+00    0.39       1.0  T
   3   -337.1879830 -0.243521E+02  0.184E+00    0.05       1.0  T
   4   -340.1810973 -0.299311E+01  0.439E-01    0.06       1.0  T
   5   -330.2512649  0.992983E+01  0.293E+00    0.05       1.0  T
   6   -339.9896378 -0.973837E+01  0.584E-01    0.03       1.0  T
   7   -337.8009807  0.218866E+01  0.152E+00    0.01       1.0  T
   8   -338.1035250 -0.302544E+00  0.139E+00    0.00       1.0  T
   9   -340.0410145 -0.193749E+01  0.554E-01    0.04       1.0  T
  10   -339.6940716  0.346943E+00  0.781E-01    0.03       1.0  T
  11   -340.2713492 -0.577278E+00  0.330E-01    0.06       1.0  T
  12   -339.9823075  0.289042E+00  0.606E-01    0.04       1.0  T
  13   -340.3696319 -0.387324E+00  0.142E-01    0.06       1.0  T
  14   -340.3203632  0.492687E-01  0.251E-01    0.06       1.0  T
  15   -340.3812612 -0.608980E-01  0.105E-01    0.08       1.0  T
  16   -340.3537561  0.275051E-01  0.187E-01    0.06       1.0  T
  17   -340.3726736 -0.189176E-01  0.136E-01    0.06       1.0  T
  18   -340.3853818 -0.127082E-01  0.866E-02    0.07       1.0  T
  19   -340.3850630  0.318832E-03  0.883E-02    0.07       1.0  T
  20   -340.3892438 -0.418080E-02  0.652E-02    0.07       1.0  T
  21   -340.3928950 -0.365117E-02  0.338E-02    0.08       1.0  T
  22   -340.3940067 -0.111175E-02  0.135E-02    0.08       1.0  T
  23   -340.3941670 -0.160328E-03  0.706E-03    0.07       1.0  T
  24   -340.3941037  0.633537E-04  0.105E-02    0.07       1.0  T
  25   -340.3941297 -0.259837E-04  0.916E-03    0.07       1.0  T
  26   -340.3941319 -0.226685E-05  0.894E-03    0.07       1.0  T
  27   -340.3941398 -0.790934E-05  0.840E-03    0.07       1.0  T
  28   -340.3941830 -0.431024E-04  0.550E-03    0.07       1.3  T
  29   -340.3942133 -0.303904E-04  0.126E-03    0.08       5.5  T
  30   -340.3942144 -0.108234E-05  0.553E-04    0.08      12.5  T
  31   -340.3942122  0.220606E-05  0.141E-03    0.08       4.9  T
  32   -340.3942119  0.273539E-06  0.150E-03    0.08       4.6  T
  33   -340.3942136 -0.161917E-05  0.997E-04    0.08       6.9  T
  34   -340.3942144 -0.857607E-06  0.538E-04    0.08      12.8  T
  35   -340.3942146 -0.182358E-06  0.343E-04    0.08      20.1  T
  36   -340.3942147 -0.112054E-06  0.114E-04    0.08      60.2  T
  37   -340.3942147 -0.110749E-07  0.558E-05    0.08     123.4  T
     SCC iter.                  ...        0 min,  5.180 sec
     gradient                   ...        0 min,  0.545 sec
 * total energy  :  -335.2072971 Eh     change       -0.2323407E-01 Eh
   gradient norm :     0.0720898 Eh/α   predicted    -0.2213685E-01 (  -4.72%)
   displ. norm   :     0.9258542 α      lambda       -0.2858469E-01
   maximum displ.:     0.3177269 α      in ANC's #53, #29, #12, ...

........................................................................
.............................. CYCLE    8 ..............................
........................................................................
   1   -340.3512129 -0.340351E+03  0.138E-01    0.07       0.0  T
   2   -312.6378563  0.277134E+02  0.474E+00    0.29       1.0  T
   3   -338.4779425 -0.258401E+02  0.132E+00    0.05       1.0  T
   4   -332.2763188  0.620162E+01  0.261E+00    0.06       1.0  T
   5   -337.6826058 -0.540629E+01  0.155E+00    0.01       1.0  T
   6   -336.2005775  0.148203E+01  0.189E+00    0.01       1.0  T
   7   -337.1903997 -0.989822E+00  0.166E+00    0.01       1.0  T
   8   -336.6290539  0.561346E+00  0.177E+00    0.00       1.0  T
   9   -340.3154559 -0.368640E+01  0.202E-01    0.11       1.0  T
  10   -340.2184953  0.969605E-01  0.384E-01    0.07       1.0  T
  11   -340.0431380  0.175357E+00  0.560E-01    0.06       1.0  T
  12   -340.2593468 -0.216209E+00  0.338E-01    0.08       1.0  T
  13   -339.8344761  0.424871E+00  0.718E-01    0.03       1.0  T
  14   -340.0835591 -0.249083E+00  0.518E-01    0.04       1.0  T
  15   -340.2828381 -0.199279E+00  0.264E-01    0.07       1.0  T
  16   -340.1290612  0.153777E+00  0.471E-01    0.04       1.0  T
  17   -340.2821970 -0.153136E+00  0.283E-01    0.06       1.0  T
  18   -340.3454841 -0.632871E-01  0.145E-01    0.07       1.0  T
  19   -340.3174386  0.280455E-01  0.213E-01    0.07       1.0  T
  20   -340.3332598 -0.158212E-01  0.180E-01    0.07       1.0  T
  21   -340.3577016 -0.244418E-01  0.946E-02    0.08       1.0  T
  22   -340.3595411 -0.183958E-02  0.850E-02    0.08       1.0  T
  23   -340.3642008 -0.465964E-02  0.550E-02    0.08       1.0  T
  24   -340.3647010 -0.500213E-03  0.502E-02    0.09       1.0  T
  25   -340.3664219 -0.172092E-02  0.318E-02    0.08       1.0  T
  26   -340.3671440 -0.722107E-03  0.187E-02    0.08       1.0  T
  27   -340.3673687 -0.224651E-03  0.119E-02    0.08       1.0  T
  28   -340.3674850 -0.116311E-03  0.646E-03    0.08       1.1  T
  29   -340.3674923 -0.735147E-05  0.603E-03    0.08       1.1  T
  30   -340.3674971 -0.471777E-05  0.568E-03    0.08       1.2  T
  31   -340.3675098 -0.127559E-04  0.464E-03    0.08       1.5  T
  32   -340.3675171 -0.732896E-05  0.390E-03    0.08       1.8  T
  33   -340.3675322 -0.151001E-04  0.118E-03    0.08       5.8  T
  34   -340.3675330 -0.738723E-06  0.723E-04    0.08       9.5  T
  35   -340.3675334 -0.413251E-06  0.321E-04    0.08      21.4  T
  36   -340.3675335 -0.654439E-07  0.163E-04    0.08      42.3  T
  37   -340.3675334  0.125349E-07  0.192E-04    0.08      35.9  T
     SCC iter.                  ...        0 min,  4.934 sec
     gradient                   ...        0 min,  0.501 sec
 * total energy  :  -335.2350561 Eh     change       -0.2775899E-01 Eh
   gradient norm :     0.1069166 Eh/α   predicted    -0.2654384E-01 (  -4.38%)
   displ. norm   :     0.8354547 α      lambda       -0.3718482E-01
   maximum displ.:     0.2485836 α      in ANC's #118, #29, #53, ...

........................................................................
.............................. CYCLE    9 ..............................
........................................................................
   1   -340.2362529 -0.340236E+03  0.279E-01    0.03       0.0  T
   2   -309.4650355  0.307712E+02  0.502E+00    0.17       1.0  T
   3   -325.9151610 -0.164501E+02  0.344E+00    0.01       1.0  T
   4   -327.1176409 -0.120248E+01  0.335E+00    0.01       1.0  T
   5   -337.5341975 -0.104166E+02  0.154E+00    0.02       1.0  T
   6   -337.6829261 -0.148729E+00  0.153E+00    0.01       1.0  T
   7   -329.0360889  0.864684E+01  0.308E+00    0.04       1.0  T
   8   -339.0986829 -0.100626E+02  0.104E+00    0.01       1.0  T
   9   -337.3217400  0.177694E+01  0.162E+00    0.02       1.0  T
  10   -336.9555703  0.366170E+00  0.170E+00    0.00       1.0  T
  11   -340.0193265 -0.306376E+01  0.497E-01    0.02       1.0  T
  12   -340.1412170 -0.121890E+00  0.393E-01    0.04       1.0  T
  13   -338.5054878  0.163573E+01  0.127E+00    0.00       1.0  T
  14   -339.9106369 -0.140515E+01  0.583E-01    0.01       1.0  T
  15   -339.9454622 -0.348252E-01  0.571E-01    0.05       1.0  T
  16   -340.0581860 -0.112724E+00  0.459E-01    0.06       1.0  T
  17   -340.2243855 -0.166199E+00  0.256E-01    0.08       1.0  T
  18   -340.2208504  0.353517E-02  0.262E-01    0.08       1.0  T
  19   -340.2750280 -0.541776E-01  0.143E-01    0.09       1.0  T
  20   -340.2976801 -0.226521E-01  0.399E-02    0.09       1.0  T
  21   -340.2971803  0.499874E-03  0.467E-02    0.09       1.0  T
  22   -340.2976183 -0.438020E-03  0.407E-02    0.09       1.0  T
  23   -340.2922931  0.532520E-02  0.815E-02    0.08       1.0  T
  24   -340.2979302 -0.563712E-02  0.342E-02    0.09       1.0  T
  25   -340.2978829  0.472727E-04  0.352E-02    0.08       1.0  T
  26   -340.2976440  0.238982E-03  0.363E-02    0.08       1.0  T
  27   -340.2972966  0.347389E-03  0.404E-02    0.08       1.0  T
  28   -340.2980336 -0.737017E-03  0.319E-02    0.08       1.0  T
  29   -340.2989265 -0.892888E-03  0.157E-02    0.08       1.0  T
  30   -340.2990963 -0.169806E-03  0.963E-03    0.08       1.0  T
  31   -340.2991858 -0.895456E-04  0.343E-03    0.08       2.0  T
  32   -340.2991971 -0.112636E-04  0.943E-04    0.08       7.3  T
  33   -340.2991951  0.202232E-05  0.158E-03    0.08       4.4  T
  34   -340.2991964 -0.132875E-05  0.117E-03    0.08       5.9  T
  35   -340.2991973 -0.878391E-06  0.755E-04    0.08       9.1  T
  36   -340.2991977 -0.455163E-06  0.397E-04    0.08      17.3  T
  37   -340.2991979 -0.158730E-06  0.106E-04    0.08      64.7  T
  38   -340.2991979 -0.764993E-08  0.591E-05    0.08     116.6  T
     SCC iter.                  ...        0 min,  5.414 sec
     gradient                   ...        0 min,  0.544 sec
 * total energy  :  -335.2532992 Eh     change       -0.1824302E-01 Eh
   gradient norm :     0.1356127 Eh/α   predicted    -0.3156962E-01 (  73.05%)
   displ. norm   :     0.6651241 α      lambda       -0.2852481E-01
   maximum displ.:     0.2579768 α      in ANC's #53, #29, #12, ...

........................................................................
.............................. CYCLE   10 ..............................
........................................................................
   1   -340.3455696 -0.340346E+03  0.423E-02    0.09       0.0  T
   2   -338.4670883  0.187848E+01  0.134E+00    0.06       1.0  T
   3   -338.9502813 -0.483193E+00  0.114E+00    0.07       1.0  T
   4   -339.1023904 -0.152109E+00  0.104E+00    0.01       1.0  T
   5   -340.2018782 -0.109949E+01  0.357E-01    0.08       1.0  T
   6   -338.8565095  0.134537E+01  0.114E+00    0.00       1.0  T
   7   -336.7978630  0.205865E+01  0.175E+00    0.01       1.0  T
   8   -340.2424775 -0.344461E+01  0.300E-01    0.07       1.0  T
   9   -340.2081542  0.343232E-01  0.343E-01    0.06       1.0  T
  10   -340.2706341 -0.624799E-01  0.254E-01    0.06       1.0  T
  11   -340.3275140 -0.568799E-01  0.129E-01    0.07       1.0  T
  12   -340.3166480  0.108660E-01  0.164E-01    0.07       1.0  T
  13   -340.3120462  0.460185E-02  0.176E-01    0.07       1.0  T
  14   -340.3155701 -0.352394E-02  0.167E-01    0.07       1.0  T
  15   -340.3167666 -0.119648E-02  0.163E-01    0.07       1.0  T
  16   -340.3422696 -0.255030E-01  0.629E-02    0.08       1.0  T
  17   -340.3445238 -0.225420E-02  0.458E-02    0.09       1.0  T
  18   -340.3409487  0.357505E-02  0.721E-02    0.09       1.0  T
  19   -340.3411729 -0.224165E-03  0.705E-02    0.09       1.0  T
  20   -340.3444986 -0.332568E-02  0.447E-02    0.09       1.0  T
  21   -340.3456858 -0.118725E-02  0.313E-02    0.08       1.0  T
  22   -340.3457594 -0.736240E-04  0.305E-02    0.08       1.0  T
  23   -340.3456176  0.141825E-03  0.328E-02    0.08       1.0  T
  24   -340.3458562 -0.238630E-03  0.288E-02    0.08       1.0  T
  25   -340.3461661 -0.309833E-03  0.228E-02    0.08       1.0  T
  26   -340.3465564 -0.390366E-03  0.113E-02    0.08       1.0  T
  27   -340.3466426 -0.862017E-04  0.590E-03    0.08       1.2  T
  28   -340.3466721 -0.294327E-04  0.299E-03    0.08       2.3  T
  29   -340.3466772 -0.513907E-05  0.212E-03    0.08       3.3  T
  30   -340.3466813 -0.412982E-05  0.909E-04    0.08       7.6  T
  31   -340.3466821 -0.795588E-06  0.374E-04    0.08      18.4  T
  32   -340.3466823 -0.138855E-06  0.151E-04    0.08      45.5  T
  33   -340.3466823 -0.231499E-07  0.574E-05    0.08     120.0  T
     SCC iter.                  ...        0 min,  4.657 sec
     gradient                   ...        0 min,  0.545 sec
 * total energy  :  -335.2758678 Eh     change       -0.2256864E-01 Eh
   gradient norm :     0.1041726 Eh/α   predicted    -0.2057199E-01 (  -8.85%)
   displ. norm   :     0.7204871 α      lambda       -0.3708032E-01
   maximum displ.:     0.2612364 α      in ANC's #29, #164, #53, ...

........................................................................
.............................. CYCLE   11 ..............................
........................................................................
   1   -340.3918721 -0.340392E+03  0.856E-02    0.11       0.0  T
   2   -328.8568373  0.115350E+02  0.315E+00    0.04       1.0  T
   3   -337.0007097 -0.814387E+01  0.185E+00    0.01       1.0  T
   4   -334.8970116  0.210370E+01  0.220E+00    0.00       1.0  T
   5   -340.0662432 -0.516923E+01  0.552E-01    0.06       1.0  T
   6   -340.3890908 -0.322848E+00  0.874E-02    0.12       1.0  T
   7   -339.8436318  0.545459E+00  0.703E-01    0.04       1.0  T
   8   -340.0368318 -0.193200E+00  0.557E-01    0.05       1.0  T
   9   -339.9564315  0.804003E-01  0.622E-01    0.05       1.0  T
  10   -340.2571231 -0.300692E+00  0.350E-01    0.09       1.0  T
  11   -340.3824225 -0.125299E+00  0.110E-01    0.11       1.0  T
  12   -340.3852144 -0.279192E-02  0.976E-02    0.09       1.0  T
  13   -340.3913174 -0.610299E-02  0.655E-02    0.09       1.0  T
  14   -340.3793442  0.119732E-01  0.121E-01    0.09       1.0  T
  15   -340.3860240 -0.667983E-02  0.942E-02    0.09       1.0  T
  16   -340.3930315 -0.700746E-02  0.546E-02    0.10       1.0  T
  17   -340.3899344  0.309701E-02  0.757E-02    0.09       1.0  T
  18   -340.3930474 -0.311291E-02  0.548E-02    0.10       1.0  T
  19   -340.3949229 -0.187555E-02  0.358E-02    0.10       1.0  T
  20   -340.3955503 -0.627396E-03  0.258E-02    0.10       1.0  T
  21   -340.3958067 -0.256431E-03  0.202E-02    0.10       1.0  T
  22   -340.3961091 -0.302379E-03  0.112E-02    0.10       1.0  T
  23   -340.3962331 -0.124036E-03  0.381E-03    0.10       1.8  T
  24   -340.3962372 -0.404236E-05  0.326E-03    0.10       2.1  T
  25   -340.3962397 -0.251211E-05  0.282E-03    0.10       2.4  T
  26   -340.3962462 -0.646247E-05  0.123E-03    0.10       5.6  T
  27   -340.3962474 -0.127395E-05  0.553E-04    0.10      12.5  T
  28   -340.3962477 -0.273626E-06  0.203E-04    0.10      33.8  T
  29   -340.3962477 -0.328181E-07  0.922E-05    0.10      74.7  T
  30   -340.3962478 -0.912098E-08  0.267E-05    0.10     257.9  T
     SCC iter.                  ...        0 min,  4.242 sec
     gradient                   ...        0 min,  0.548 sec
 * total energy  :  -335.2973052 Eh     change       -0.2143740E-01 Eh
   gradient norm :     0.0803863 Eh/α   predicted    -0.2816438E-01 (  31.38%)
   displ. norm   :     0.8373966 α      lambda       -0.3700024E-01
   maximum displ.:     0.2840592 α      in ANC's #53, #30, #29, ...

........................................................................
.............................. CYCLE   12 ..............................
........................................................................
   1   -340.4010368 -0.340401E+03  0.945E-02    0.10       0.0  T
   2   -335.5958168  0.480522E+01  0.206E+00    0.00       1.0  T
   3   -334.5179874  0.107783E+01  0.225E+00    0.00       1.0  T
   4   -328.2621742  0.625581E+01  0.325E+00    0.02       1.0  T
   5   -340.3501754 -0.120880E+02  0.223E-01    0.10       1.0  T
   6   -338.7873407  0.156283E+01  0.118E+00    0.01       1.0  T
   7   -339.3151633 -0.527823E+00  0.984E-01    0.01       1.0  T
   8   -338.2427207  0.107244E+01  0.138E+00    0.01       1.0  T
   9   -338.0424698  0.200251E+00  0.145E+00    0.01       1.0  T
  10   -340.3878229 -0.234535E+01  0.131E-01    0.13       1.0  T
  11   -339.4540022  0.933821E+00  0.922E-01    0.04       1.0  T
  12   -340.2544731 -0.800471E+00  0.372E-01    0.07       1.0  T
  13   -340.1769331  0.775400E-01  0.449E-01    0.06       1.0  T
  14   -340.3933349 -0.216402E+00  0.109E-01    0.11       1.0  T
  15   -340.3789331  0.144018E-01  0.157E-01    0.10       1.0  T
  16   -340.3981442 -0.192111E-01  0.886E-02    0.11       1.0  T
  17   -340.4038976 -0.575345E-02  0.531E-02    0.12       1.0  T
  18   -340.4055401 -0.164240E-02  0.374E-02    0.12       1.0  T
  19   -340.4056186 -0.785945E-04  0.362E-02    0.12       1.0  T
  20   -340.4058453 -0.226654E-03  0.342E-02    0.12       1.0  T
  21   -340.4060734 -0.228070E-03  0.305E-02    0.12       1.0  T
  22   -340.4059361  0.137257E-03  0.317E-02    0.12       1.0  T
  23   -340.4066698 -0.733718E-03  0.171E-02    0.12       1.0  T
  24   -340.4066809 -0.110771E-04  0.163E-02    0.12       1.0  T
  25   -340.4068139 -0.132957E-03  0.110E-02    0.12       1.0  T
  26   -340.4068389 -0.250524E-04  0.934E-03    0.12       1.0  T
  27   -340.4068893 -0.503402E-04  0.579E-03    0.12       1.2  T
  28   -340.4068911 -0.179654E-05  0.550E-03    0.12       1.3  T
  29   -340.4069125 -0.214370E-04  0.342E-03    0.11       2.0  T
  30   -340.4069191 -0.659713E-05  0.244E-03    0.11       2.8  T
  31   -340.4069202 -0.114787E-05  0.222E-03    0.11       3.1  T
  32   -340.4069232 -0.296950E-05  0.146E-03    0.11       4.7  T
  33   -340.4069251 -0.185717E-05  0.648E-04    0.11      10.6  T
  34   -340.4069254 -0.379045E-06  0.240E-04    0.11      28.7  T
  35   -340.4069255 -0.495561E-07  0.995E-05    0.11      69.2  T
  36   -340.4069255 -0.103120E-07  0.254E-05    0.11     271.4  T
     SCC iter.                  ...        0 min,  5.099 sec
     gradient                   ...        0 min,  0.545 sec
 * total energy  :  -335.3266630 Eh     change       -0.2935783E-01 Eh
   gradient norm :     0.0842720 Eh/α   predicted    -0.3147304E-01 (   7.20%)
   displ. norm   :     0.8312119 α      lambda       -0.3877329E-01
   maximum displ.:     0.3223084 α      in ANC's #29, #53, #12, ...

........................................................................
.............................. CYCLE   13 ..............................
........................................................................
   1   -340.3606143 -0.340361E+03  0.217E-01    0.07       0.0  T
   2   -307.9936630  0.323670E+02  0.519E+00    0.01       1.0  T
   3   -321.7432252 -0.137496E+02  0.396E+00    0.07       1.0  T
   4   -336.6763440 -0.149331E+02  0.179E+00    0.02       1.0  T
   5   -330.3216192  0.635472E+01  0.296E+00    0.05       1.0  T
   6   -328.6651450  0.165647E+01  0.315E+00    0.02       1.0  T
   7   -339.8428259 -0.111777E+02  0.693E-01    0.05       1.0  T
   8   -340.1337221 -0.290896E+00  0.470E-01    0.06       1.0  T
   9   -340.0362183  0.975038E-01  0.570E-01    0.06       1.0  T
  10   -340.3958338 -0.359615E+00  0.670E-02    0.12       1.0  T
  11   -340.1895244  0.206309E+00  0.452E-01    0.06       1.0  T
  12   -340.3747560 -0.185232E+00  0.153E-01    0.10       1.0  T
  13   -340.3876932 -0.129373E-01  0.974E-02    0.11       1.0  T
  14   -340.3716109  0.160824E-01  0.160E-01    0.11       1.0  T
  15   -340.3928498 -0.212389E-01  0.732E-02    0.12       1.0  T
  16   -340.3939160 -0.106624E-02  0.651E-02    0.13       1.0  T
  17   -340.3950746 -0.115859E-02  0.600E-02    0.13       1.0  T
  18   -340.3924535  0.262106E-02  0.757E-02    0.12       1.0  T
  19   -340.3974441 -0.499061E-02  0.362E-02    0.13       1.0  T
  20   -340.3982276 -0.783472E-03  0.250E-02    0.12       1.0  T
  21   -340.3983618 -0.134200E-03  0.220E-02    0.12       1.0  T
  22   -340.3986041 -0.242289E-03  0.160E-02    0.12       1.0  T
  23   -340.3986324 -0.282855E-04  0.147E-02    0.12       1.0  T
  24   -340.3986916 -0.592312E-04  0.126E-02    0.12       1.0  T
  25   -340.3987925 -0.100882E-03  0.786E-03    0.12       1.0  T
  26   -340.3988182 -0.256934E-04  0.586E-03    0.12       1.2  T
  27   -340.3988300 -0.118420E-04  0.477E-03    0.12       1.4  T
  28   -340.3988467 -0.166559E-04  0.274E-03    0.12       2.5  T
  29   -340.3988489 -0.221797E-05  0.233E-03    0.12       3.0  T
  30   -340.3988505 -0.155486E-05  0.197E-03    0.12       3.5  T
  31   -340.3988522 -0.170501E-05  0.150E-03    0.12       4.6  T
  32   -340.3988538 -0.166204E-05  0.846E-04    0.12       8.1  T
  33   -340.3988544 -0.600555E-06  0.399E-04    0.12      17.2  T
  34   -340.3988546 -0.157973E-06  0.104E-04    0.12      66.5  T
  35   -340.3988546 -0.870608E-08  0.483E-05    0.12     142.5  T
     SCC iter.                  ...        0 min,  4.963 sec
     gradient                   ...        0 min,  0.551 sec
 * total energy  :  -335.3467457 Eh     change       -0.2008272E-01 Eh
   gradient norm :     0.0755997 Eh/α   predicted    -0.3278112E-01 (  63.23%)
   displ. norm   :     0.7252250 α      lambda       -0.2586889E-01
   maximum displ.:     0.3068422 α      in ANC's #29, #12, #53, ...

........................................................................
.............................. CYCLE   14 ..............................
........................................................................
   1   -340.4419230 -0.340442E+03  0.579E-02    0.14       0.0  T
   2   -335.2525649  0.518936E+01  0.213E+00    0.00       1.0  T
   3   -332.2112135  0.304135E+01  0.269E+00    0.04       1.0  T
   4   -335.2061720 -0.299496E+01  0.212E+00    0.01       1.0  T
   5   -340.0924352 -0.488626E+01  0.563E-01    0.06       1.0  T
   6   -339.7030560  0.389379E+00  0.813E-01    0.04       1.0  T
   7   -340.3890088 -0.685953E+00  0.222E-01    0.11       1.0  T
   8   -340.0623638  0.326645E+00  0.584E-01    0.06       1.0  T
   9   -340.1640654 -0.101702E+00  0.503E-01    0.06       1.0  T
  10   -339.5686646  0.595401E+00  0.887E-01    0.02       1.0  T
  11   -339.7433338 -0.174669E+00  0.795E-01    0.03       1.0  T
  12   -339.7827696 -0.394358E-01  0.772E-01    0.03       1.0  T
  13   -340.0166487 -0.233879E+00  0.621E-01    0.05       1.0  T
  14   -340.2657710 -0.249122E+00  0.401E-01    0.08       1.0  T
  15   -340.3325994 -0.668284E-01  0.316E-01    0.09       1.0  T
  16   -340.4174693 -0.848699E-01  0.150E-01    0.11       1.0  T
  17   -340.4426798 -0.252106E-01  0.407E-02    0.13       1.0  T
  18   -340.4350298  0.765002E-02  0.938E-02    0.13       1.0  T
  19   -340.4306666  0.436316E-02  0.112E-01    0.12       1.0  T
  20   -340.4301630  0.503627E-03  0.114E-01    0.12       1.0  T
  21   -340.4349501 -0.478713E-02  0.928E-02    0.12       1.0  T
  22   -340.4398612 -0.491108E-02  0.643E-02    0.13       1.0  T
  23   -340.4391596  0.701675E-03  0.692E-02    0.12       1.0  T
  24   -340.4408307 -0.167119E-02  0.572E-02    0.12       1.0  T
  25   -340.4418857 -0.105492E-02  0.477E-02    0.12       1.0  T
  26   -340.4421932 -0.307558E-03  0.442E-02    0.12       1.0  T
  27   -340.4427222 -0.528945E-03  0.382E-02    0.12       1.0  T
  28   -340.4434243 -0.702178E-03  0.284E-02    0.12       1.0  T
  29   -340.4441159 -0.691595E-03  0.135E-02    0.12       1.0  T
  30   -340.4442903 -0.174352E-03  0.495E-03    0.13       1.4  T
  31   -340.4443147 -0.243694E-04  0.165E-03    0.13       4.2  T
  32   -340.4443173 -0.265175E-05  0.566E-04    0.13      12.2  T
  33   -340.4443173  0.949166E-08  0.562E-04    0.13      12.2  T
  34   -340.4443176 -0.303025E-06  0.244E-04    0.13      28.2  T
  35   -340.4443177 -0.696849E-07  0.402E-05    0.13     171.3  T
  36   -340.4443177  0.101937E-08  0.514E-05    0.13     133.9  T
     SCC iter.                  ...        0 min,  5.102 sec
     gradient                   ...        0 min,  0.548 sec
 * total energy  :  -335.3629223 Eh     change       -0.1617654E-01 Eh
   gradient norm :     0.0668986 Eh/α   predicted    -0.1973736E-01 (  22.01%)
   displ. norm   :     0.6894049 α      lambda       -0.2317372E-01
   maximum displ.:     0.2959035 α      in ANC's #29, #12, #14, ...

........................................................................
.............................. CYCLE   15 ..............................
........................................................................
   1   -340.4755024 -0.340476E+03  0.112E-01    0.11       0.0  T
   2   -326.2361783  0.142393E+02  0.351E+00    0.00       1.0  T
   3   -328.1310136 -0.189484E+01  0.325E+00    0.02       1.0  T
   4   -340.3062255 -0.121752E+02  0.438E-01    0.05       1.0  T
   5   -340.2343947  0.718309E-01  0.484E-01    0.07       1.0  T
   6   -339.8933042  0.341090E+00  0.731E-01    0.03       1.0  T
   7   -339.5097666  0.383538E+00  0.932E-01    0.02       1.0  T
   8   -339.6145861 -0.104820E+00  0.883E-01    0.02       1.0  T
   9   -339.5083274  0.106259E+00  0.914E-01    0.01       1.0  T
  10   -340.2639650 -0.755638E+00  0.446E-01    0.07       1.0  T
  11   -340.4054904 -0.141525E+00  0.273E-01    0.10       1.0  T
  12   -340.4331985 -0.277081E-01  0.221E-01    0.10       1.0  T
  13   -340.4844704 -0.512720E-01  0.498E-02    0.11       1.0  T
  14   -340.4627291  0.217413E-01  0.149E-01    0.10       1.0  T
  15   -340.4748475 -0.121184E-01  0.105E-01    0.11       1.0  T
  16   -340.4466736  0.281739E-01  0.188E-01    0.10       1.0  T
  17   -340.4811562 -0.344826E-01  0.724E-02    0.12       1.0  T
  18   -340.4787109  0.244528E-02  0.863E-02    0.11       1.0  T
  19   -340.4815162 -0.280527E-02  0.709E-02    0.11       1.0  T
  20   -340.4860332 -0.451701E-02  0.334E-02    0.12       1.0  T
  21   -340.4868698 -0.836557E-03  0.196E-02    0.12       1.0  T
  22   -340.4870955 -0.225741E-03  0.129E-02    0.12       1.0  T
  23   -340.4872327 -0.137162E-03  0.524E-03    0.12       1.3  T
  24   -340.4872537 -0.210393E-04  0.155E-03    0.12       4.4  T
  25   -340.4872405  0.132147E-04  0.335E-03    0.12       2.1  T
  26   -340.4872290  0.115257E-04  0.464E-03    0.12       1.5  T
  27   -340.4872406 -0.116181E-04  0.348E-03    0.12       2.0  T
  28   -340.4872525 -0.118947E-04  0.135E-03    0.12       5.1  T
  29   -340.4872541 -0.165368E-05  0.610E-04    0.12      11.3  T
  30   -340.4872543 -0.184196E-06  0.450E-04    0.12      15.3  T
  31   -340.4872545 -0.177302E-06  0.207E-04    0.12      33.3  T
  32   -340.4872545 -0.687805E-08  0.187E-04    0.12      36.8  T
  33   -340.4872545 -0.317029E-07  0.794E-05    0.12      86.7  T
     SCC iter.                  ...        0 min,  4.678 sec
     gradient                   ...        0 min,  0.546 sec
 * total energy  :  -335.3741178 Eh     change       -0.1119551E-01 Eh
   gradient norm :     0.0729957 Eh/α   predicted    -0.1709388E-01 (  52.69%)
   displ. norm   :     0.7745010 α      lambda       -0.2114757E-01
   maximum displ.:     0.3763933 α      in ANC's #29, #12, #53, ...

........................................................................
.............................. CYCLE   16 ..............................
........................................................................
   1   -340.5058436 -0.340506E+03  0.855E-02    0.10       0.0  T
   2   -328.9755094  0.115303E+02  0.315E+00    0.00       1.0  T
   3   -328.5220879  0.453421E+00  0.318E+00    0.00       1.0  T
   4   -328.1061785  0.415909E+00  0.324E+00    0.01       1.0  T
   5   -340.4705547 -0.123644E+02  0.188E-01    0.11       1.0  T
   6   -339.2806987  0.118986E+01  0.103E+00    0.02       1.0  T
   7   -339.8305441 -0.549845E+00  0.774E-01    0.03       1.0  T
   8   -339.2845554  0.545989E+00  0.105E+00    0.01       1.0  T
   9   -339.8360031 -0.551448E+00  0.774E-01    0.04       1.0  T
  10   -340.1954309 -0.359428E+00  0.527E-01    0.06       1.0  T
  11   -340.4993531 -0.303922E+00  0.109E-01    0.11       1.0  T
  12   -340.4948882  0.446485E-02  0.125E-01    0.10       1.0  T
  13   -340.5031161 -0.822790E-02  0.879E-02    0.12       1.0  T
  14   -340.5112358 -0.811971E-02  0.189E-02    0.13       1.0  T
  15   -340.5100110  0.122479E-02  0.362E-02    0.12       1.0  T
  16   -340.5108653 -0.854299E-03  0.253E-02    0.13       1.0  T
  17   -340.5108163  0.490192E-04  0.253E-02    0.13       1.0  T
  18   -340.5113525 -0.536232E-03  0.152E-02    0.13       1.0  T
  19   -340.5114613 -0.108754E-03  0.119E-02    0.13       1.0  T
  20   -340.5113051  0.156221E-03  0.166E-02    0.12       1.0  T
  21   -340.5112437  0.613683E-04  0.179E-02    0.12       1.0  T
  22   -340.5113044 -0.607182E-04  0.163E-02    0.12       1.0  T
  23   -340.5114538 -0.149432E-03  0.114E-02    0.12       1.0  T
  24   -340.5114824 -0.285111E-04  0.101E-02    0.12       1.0  T
  25   -340.5115293 -0.469596E-04  0.768E-03    0.12       1.0  T
  26   -340.5115792 -0.498703E-04  0.350E-03    0.12       2.0  T
  27   -340.5115903 -0.110694E-04  0.134E-03    0.12       5.2  T
  28   -340.5115920 -0.171616E-05  0.348E-04    0.12      19.8  T
  29   -340.5115920 -0.475256E-07  0.225E-04    0.12      30.5  T
  30   -340.5115920  0.213516E-07  0.268E-04    0.12      25.7  T
  31   -340.5115921 -0.557417E-07  0.159E-04    0.12      43.2  T
  32   -340.5115921 -0.190470E-07  0.948E-05    0.12      72.6  T
     SCC iter.                  ...        0 min,  4.533 sec
     gradient                   ...        0 min,  0.548 sec
 * total energy  :  -335.3922191 Eh     change       -0.1810129E-01 Eh
   gradient norm :     0.0392441 Eh/α   predicted    -0.1691650E-01 (  -6.55%)
   displ. norm   :     0.8944110 α      lambda       -0.1759166E-01
   maximum displ.:     0.4595590 α      in ANC's #29, #12, #14, ...

........................................................................
.............................. CYCLE   17 ..............................
........................................................................
   1   -340.5407137 -0.340541E+03  0.633E-02    0.11       0.0  T
   2   -335.7836818  0.475703E+01  0.206E+00    0.01       1.0  T
   3   -336.8488605 -0.106518E+01  0.182E+00    0.01       1.0  T
   4   -332.0660107  0.478285E+01  0.269E+00    0.04       1.0  T
   5   -340.3898756 -0.832386E+01  0.371E-01    0.09       1.0  T
   6   -340.3845218  0.535388E-02  0.381E-01    0.08       1.0  T
   7   -340.1311975  0.253324E+00  0.605E-01    0.05       1.0  T
   8   -340.5334083 -0.402211E+00  0.962E-02    0.13       1.0  T
   9   -340.4674002  0.660081E-01  0.257E-01    0.08       1.0  T
  10   -340.5419717 -0.745715E-01  0.402E-02    0.12       1.0  T
  11   -340.5437750 -0.180335E-02  0.590E-03    0.12       1.2  T
  12   -340.5401371  0.363786E-02  0.572E-02    0.12       1.0  T
  13   -340.5422059 -0.206880E-02  0.386E-02    0.13       1.0  T
  14   -340.5431208 -0.914869E-03  0.251E-02    0.13       1.0  T
  15   -340.5435080 -0.387236E-03  0.170E-02    0.13       1.0  T
  16   -340.5436919 -0.183848E-03  0.109E-02    0.13       1.0  T
  17   -340.5437031 -0.111695E-04  0.103E-02    0.12       1.0  T
  18   -340.5437099 -0.683199E-05  0.991E-03    0.12       1.0  T
  19   -340.5437605 -0.505607E-04  0.713E-03    0.12       1.0  T
  20   -340.5437742 -0.137080E-04  0.618E-03    0.12       1.1  T
  21   -340.5437852 -0.109873E-04  0.529E-03    0.12       1.3  T
  22   -340.5438018 -0.166687E-04  0.355E-03    0.12       1.9  T
  23   -340.5438103 -0.843166E-05  0.217E-03    0.12       3.2  T
  24   -340.5438137 -0.339533E-05  0.123E-03    0.12       5.6  T
  25   -340.5438144 -0.764499E-06  0.881E-04    0.12       7.8  T
  26   -340.5438148 -0.430909E-06  0.610E-04    0.12      11.3  T
  27   -340.5438152 -0.309597E-06  0.293E-04    0.12      23.5  T
  28   -340.5438152 -0.713891E-07  0.140E-04    0.12      49.1  T
  29   -340.5438152 -0.107087E-07  0.993E-05    0.12      69.3  T
     SCC iter.                  ...        0 min,  4.096 sec
     gradient                   ...        0 min,  0.547 sec
 * total energy  :  -335.4068512 Eh     change       -0.1463210E-01 Eh
   gradient norm :     0.0338495 Eh/α   predicted    -0.1583224E-01 (   8.20%)
   displ. norm   :     0.9069617 α      lambda       -0.1796967E-01
   maximum displ.:     0.4409814 α      in ANC's #29, #12, #14, ...

........................................................................
.............................. CYCLE   18 ..............................
........................................................................
   1   -340.5774642 -0.340577E+03  0.477E-02    0.11       0.0  T
   2   -334.7028738  0.587459E+01  0.228E+00    0.02       1.0  T
   3   -338.6996633 -0.399679E+01  0.131E+00    0.01       1.0  T
   4   -338.7851611 -0.854977E-01  0.126E+00    0.01       1.0  T
   5   -340.5661517 -0.178099E+01  0.105E-01    0.12       1.0  T
   6   -340.5508681  0.152836E-01  0.157E-01    0.08       1.0  T
   7   -340.5413916  0.947648E-02  0.182E-01    0.11       1.0  T
   8   -340.5642909 -0.228992E-01  0.114E-01    0.12       1.0  T
   9   -340.5655607 -0.126989E-02  0.109E-01    0.11       1.0  T
  10   -340.5771217 -0.115610E-01  0.433E-02    0.12       1.0  T
  11   -340.5785189 -0.139719E-02  0.273E-02    0.12       1.0  T
  12   -340.5789833 -0.464432E-03  0.178E-02    0.12       1.0  T
  13   -340.5787624  0.220988E-03  0.222E-02    0.12       1.0  T
  14   -340.5789343 -0.171918E-03  0.181E-02    0.12       1.0  T
  15   -340.5790344 -0.100138E-03  0.154E-02    0.12       1.0  T
  16   -340.5790960 -0.615394E-04  0.135E-02    0.12       1.0  T
  17   -340.5792298 -0.133806E-03  0.733E-03    0.12       1.0  T
  18   -340.5792534 -0.236729E-04  0.520E-03    0.12       1.3  T
  19   -340.5792522  0.121823E-05  0.528E-03    0.12       1.3  T
  20   -340.5792611 -0.883872E-05  0.445E-03    0.12       1.5  T
  21   -340.5792679 -0.685806E-05  0.365E-03    0.12       1.9  T
  22   -340.5792752 -0.731026E-05  0.253E-03    0.12       2.7  T
  23   -340.5792767 -0.148014E-05  0.221E-03    0.12       3.1  T
  24   -340.5792788 -0.211557E-05  0.170E-03    0.12       4.1  T
  25   -340.5792809 -0.209532E-05  0.970E-04    0.12       7.1  T
  26   -340.5792818 -0.899594E-06  0.348E-04    0.12      19.8  T
  27   -340.5792819 -0.118650E-06  0.120E-04    0.12      57.4  T
  28   -340.5792819 -0.142427E-07  0.418E-05    0.12     164.8  T
     SCC iter.                  ...        0 min,  3.962 sec
     gradient                   ...        0 min,  0.554 sec
 * total energy  :  -335.4211502 Eh     change       -0.1429907E-01 Eh
   gradient norm :     0.0344341 Eh/α   predicted    -0.1637557E-01 (  14.52%)
   displ. norm   :     0.8698151 α      lambda       -0.1587395E-01
   maximum displ.:     0.4687427 α      in ANC's #29, #12, #14, ...

........................................................................
.............................. CYCLE   19 ..............................
........................................................................
   1   -340.6158251 -0.340616E+03  0.171E-02    0.11       0.0  T
   2   -340.0366935  0.579132E+00  0.724E-01    0.04       1.0  T
   3   -340.3444927 -0.307799E+00  0.489E-01    0.06       1.0  T
   4   -340.3882822 -0.437895E-01  0.451E-01    0.07       1.0  T
   5   -340.5574148 -0.169133E+00  0.228E-01    0.09       1.0  T
   6   -340.6122770 -0.548622E-01  0.612E-02    0.12       1.0  T
   7   -340.6115924  0.684619E-03  0.651E-02    0.10       1.0  T
   8   -340.6112211  0.371268E-03  0.646E-02    0.11       1.0  T
   9   -340.6156437 -0.442262E-02  0.174E-02    0.11       1.0  T
  10   -340.6158075 -0.163761E-03  0.127E-02    0.12       1.0  T
  11   -340.6156678  0.139704E-03  0.168E-02    0.12       1.0  T
  12   -340.6159298 -0.262021E-03  0.719E-03    0.12       1.0  T
  13   -340.6159200  0.980871E-05  0.775E-03    0.12       1.0  T
  14   -340.6159484 -0.283706E-04  0.584E-03    0.12       1.2  T
  15   -340.6159819 -0.334882E-04  0.217E-03    0.12       3.2  T
  16   -340.6159835 -0.163875E-05  0.180E-03    0.12       3.8  T
  17   -340.6159849 -0.142287E-05  0.140E-03    0.12       4.9  T
  18   -340.6159863 -0.134919E-05  0.868E-04    0.12       7.9  T
  19   -340.6159871 -0.784089E-06  0.250E-04    0.12      27.6  T
  20   -340.6159871 -0.363824E-07  0.170E-04    0.12      40.4  T
  21   -340.6159871 -0.393948E-08  0.159E-04    0.12      43.3  T
     SCC iter.                  ...        0 min,  2.972 sec
     gradient                   ...        0 min,  0.552 sec
 * total energy  :  -335.4351734 Eh     change       -0.1402311E-01 Eh
   gradient norm :     0.0217464 Eh/α   predicted    -0.1394192E-01 (  -0.58%)
   displ. norm   :     0.9330438 α      lambda       -0.1502974E-01
   maximum displ.:     0.4670741 α      in ANC's #29, #12, #14, ...

........................................................................
.............................. CYCLE   20 ..............................
........................................................................
   1   -340.6433452 -0.340643E+03  0.324E-02    0.11       0.0  T
   2   -330.0793107  0.105640E+02  0.300E+00    0.01       1.0  T
   3   -335.9719475 -0.589264E+01  0.201E+00    0.01       1.0  T
   4   -340.5678387 -0.459589E+01  0.276E-01    0.12       1.0  T
   5   -340.5029119  0.649269E-01  0.377E-01    0.04       1.0  T
   6   -340.5198429 -0.169310E-01  0.331E-01    0.08       1.0  T
   7   -340.6057014 -0.858585E-01  0.191E-01    0.12       1.0  T
   8   -340.6331891 -0.274878E-01  0.105E-01    0.12       1.0  T
   9   -340.6387827 -0.559351E-02  0.707E-02    0.11       1.0  T
  10   -340.6375778  0.120488E-02  0.780E-02    0.11       1.0  T
  11   -340.6429285 -0.535077E-02  0.374E-02    0.12       1.0  T
  12   -340.6429455 -0.169649E-04  0.361E-02    0.11       1.0  T
  13   -340.6440281 -0.108257E-02  0.186E-02    0.11       1.0  T
  14   -340.6442652 -0.237140E-03  0.116E-02    0.11       1.0  T
  15   -340.6442637  0.147719E-05  0.119E-02    0.11       1.0  T
  16   -340.6443231 -0.593839E-04  0.929E-03    0.11       1.0  T
  17   -340.6443617 -0.386016E-04  0.718E-03    0.11       1.0  T
  18   -340.6443838 -0.220614E-04  0.560E-03    0.11       1.2  T
  19   -340.6443947 -0.108677E-04  0.464E-03    0.11       1.5  T
  20   -340.6444029 -0.819814E-05  0.376E-03    0.11       1.8  T
  21   -340.6444086 -0.572412E-05  0.298E-03    0.11       2.3  T
  22   -340.6444126 -0.399415E-05  0.228E-03    0.11       3.0  T
  23   -340.6444167 -0.410604E-05  0.118E-03    0.11       5.8  T
  24   -340.6444180 -0.132463E-05  0.398E-04    0.11      17.3  T
  25   -340.6444181 -0.130581E-06  0.186E-04    0.11      36.9  T
  26   -340.6444182 -0.170343E-07  0.137E-04    0.11      50.4  T
     SCC iter.                  ...        0 min,  3.676 sec
     gradient                   ...        0 min,  0.554 sec
 * total energy  :  -335.4478915 Eh     change       -0.1271818E-01 Eh
   gradient norm :     0.0261425 Eh/α   predicted    -0.1405711E-01 (  10.53%)
   displ. norm   :     0.9193061 α      lambda       -0.1413734E-01
   maximum displ.:     0.4806994 α      in ANC's #29, #12, #14, ...
 * RMSD in coord.:     0.8211756 α      energy gain  -0.6028388E+00 Eh

generating ANC from model Hessian ...
Using Lindh-Hessian (1995)
 Shifting diagonal of input Hessian by    1.0009624532158595E-002
 Lowest  eigenvalues of input Hessian
    0.010000    0.010001    0.010002    0.010006    0.000000    0.000000
    0.000000    0.000000    0.000000    0.000000    0.010010    0.010011
    0.010027    0.010031    0.010049    0.010094    0.010108    0.010137
 Highest eigenvalues
    2.100557    2.116563    2.141817    2.141889    2.529558    2.554717


........................................................................
.............................. CYCLE   21 ..............................
........................................................................
   1   -340.6731406 -0.340673E+03  0.408E-02    0.10       0.0  T
   2   -328.3700921  0.123030E+02  0.324E+00    0.01       1.0  T
   3   -331.7248420 -0.335475E+01  0.277E+00    0.03       1.0  T
   4   -340.6546588 -0.892982E+01  0.150E-01    0.15       1.0  T
   5   -340.0446455  0.610013E+00  0.839E-01    0.03       1.0  T
   6   -340.5454418 -0.500796E+00  0.331E-01    0.07       1.0  T
   7   -340.5819301 -0.364883E-01  0.288E-01    0.10       1.0  T
   8   -340.6654072 -0.834771E-01  0.972E-02    0.12       1.0  T
   9   -340.6679231 -0.251582E-02  0.804E-02    0.11       1.0  T
  10   -340.6736865 -0.576340E-02  0.348E-02    0.11       1.0  T
  11   -340.6743033 -0.616812E-03  0.252E-02    0.11       1.0  T
  12   -340.6733488  0.954479E-03  0.374E-02    0.11       1.0  T
  13   -340.6746751 -0.132633E-02  0.147E-02    0.11       1.0  T
  14   -340.6748669 -0.191753E-03  0.751E-03    0.11       1.0  T
  15   -340.6749134 -0.465421E-04  0.390E-03    0.11       1.8  T
  16   -340.6749116  0.182574E-05  0.409E-03    0.11       1.7  T
  17   -340.6749161 -0.450746E-05  0.361E-03    0.11       1.9  T
  18   -340.6749253 -0.923259E-05  0.213E-03    0.11       3.2  T
  19   -340.6749292 -0.390211E-05  0.878E-04    0.11       7.8  T
  20   -340.6749299 -0.611421E-06  0.392E-04    0.11      17.6  T
  21   -340.6749299 -0.380704E-07  0.303E-04    0.11      22.7  T
  22   -340.6749299 -0.321043E-07  0.245E-04    0.11      28.1  T
  23   -340.6749299  0.875599E-08  0.260E-04    0.11      26.5  T
  24   -340.6749299 -0.300632E-07  0.199E-04    0.11      34.7  T
  25   -340.6749300 -0.232072E-07  0.134E-04    0.11      51.5  T
     SCC iter.                  ...        0 min,  3.531 sec
     gradient                   ...        0 min,  0.554 sec
 * total energy  :  -335.4601115 Eh     change       -0.1221996E-01 Eh
   gradient norm :     0.0243478 Eh/α   predicted     0.0000000E+00 (-100.00%)
   displ. norm   :     0.6422466 α      lambda       -0.8987945E-02
   maximum displ.:     0.5637295 α      in ANC's #30, #14, #47, ...

........................................................................
.............................. CYCLE   22 ..............................
[...]
   175   6 C    3.906 --   176 N    1.250   146 C    1.244   174 C    1.191
   176   7 N    3.366 --   175 C    1.250   172 C    1.202   145 Fe   0.648
   177   7 N    3.368 --   159 C    1.242   162 C    1.209   145 Fe   0.649
   178   6 C    3.988 --   179 C    1.398   185 C    1.392   152 C    1.028
                           182 C    0.102
   179   6 C    3.986 --   180 C    1.414   178 C    1.398   203 H    0.972
                           183 C    0.104
   180   6 C    3.988 --   182 C    1.418   179 C    1.414   181 C    1.020
                           185 C    0.103
   181   6 C    3.995 --   180 C    1.020   204 H    0.984   206 H    0.982
                           205 H    0.971
   182   6 C    3.988 --   180 C    1.418   183 C    1.412   207 H    0.972
                           178 C    0.102
   183   6 C    3.988 --   185 C    1.420   182 C    1.412   184 C    1.020
                           179 C    0.104
   184   6 C    3.995 --   183 C    1.020   209 H    0.984   208 H    0.981
                           210 H    0.971
   185   6 C    3.986 --   183 C    1.420   178 C    1.392   211 H    0.972
                           180 C    0.103
   186   1 H    1.002 --   148 C    0.974
   187   1 H    1.005 --   149 C    0.973
   188   1 H    1.005 --   154 C    0.973
   189   1 H    1.002 --   155 C    0.973
   190   1 H    1.002 --   160 C    0.973
   191   1 H    1.005 --   161 C    0.973
   192   1 H    1.003 --   165 C    0.972
   193   1 H    1.004 --   167 C    0.983
   194   1 H    1.006 --   167 C    0.971
   195   1 H    1.004 --   167 C    0.982
   196   1 H    1.000 --   168 C    0.972
   197   1 H    1.004 --   170 C    0.985
   198   1 H    1.005 --   170 C    0.980
   199   1 H    1.006 --   170 C    0.972
   200   1 H    1.003 --   171 C    0.971
   201   1 H    1.005 --   173 C    0.973
   202   1 H    1.002 --   174 C    0.974
   203   1 H    1.002 --   179 C    0.972
   204   1 H    1.004 --   181 C    0.984
   205   1 H    1.006 --   181 C    0.971
   206   1 H    1.004 --   181 C    0.982
   207   1 H    1.000 --   182 C    0.972
   208   1 H    1.004 --   184 C    0.981
   209   1 H    1.004 --   184 C    0.984
   210   1 H    1.006 --   184 C    0.971
   211   1 H    1.003 --   185 C    0.972
 ---------------------------------------------------------------------------

Topologies differ in total number of bonds
Writing topology from bond orders to xtbtopo.mol

 dipole moment from electron density (au)
     X       Y       Z   
  -0.8548  -0.1107   0.0823  total (Debye):    2.201

           -------------------------------------------------
          |                Geometry Summary                 |
           -------------------------------------------------

      molecular mass/u    :     1809.4964962
   center of mass at/Å    :       44.4115961       0.0150412      -0.0836123
  moments of inertia/u·Å² :        0.3606930E+05   0.2235498E+06   0.2455298E+06
rotational constants/cm⁻¹ :        0.4673678E-03   0.7540884E-04   0.6865820E-04

 * 204 selected distances

     #   Z          #   Z                                           value/Å
     2   6 C        3   6 C                                       1.3812576
     3   6 C        4   6 C                                       1.4319866
     4   6 C        5   6 C                                       1.3545785
     5   6 C        6   6 C                                       1.4344659
     3   6 C        7   7 N                                       1.3695716
     6   6 C        7   7 N                                       1.3681635
     6   6 C        8   6 C                                       1.3920433
     8   6 C        9   6 C                                       1.3887655
     9   6 C       10   6 C                                       1.4327384
    10   6 C       11   6 C                                       1.3555813
     9   6 C       12   7 N                                       1.3731826
    11   6 C       13   6 C                                       1.4296268
    12   7 N       13   6 C                                       1.3620100
    13   6 C       14   6 C                                       1.4027491
    14   6 C       15   6 C                                       1.4028007
    15   6 C       16   6 C                                       1.4294394
    16   6 C       17   6 C                                       1.3555634
    17   6 C       18   6 C                                       1.4328985
    18   6 C       19   6 C                                       1.3887120
    20   6 C       21   6 C                                       1.3924614
    21   6 C       22   6 C                                       1.3927203
    22   6 C       24   6 C                                       1.3896575
    24   6 C       25   6 C                                       1.3937136
    20   6 C       27   6 C                                       1.3957192
    25   6 C       27   6 C                                       1.3888584
    19   6 C       28   6 C                                       1.3923646
    28   6 C       29   6 C                                       1.4343851
    29   6 C       30   6 C                                       1.3545450
     2   6 C       31   6 C                                       1.3811784
    30   6 C       31   6 C                                       1.4319846
    28   6 C       32   7 N                                       1.3680049
    31   6 C       32   7 N                                       1.3698481
    15   6 C       33   7 N                                       1.3617346
    18   6 C       33   7 N                                       1.3735348
    34   6 C       35   6 C                                       1.3942575
    35   6 C       36   6 C                                       1.3904896
    36   6 C       38   6 C                                       1.3921173
    38   6 C       39   6 C                                       1.3913681
    34   6 C       41   6 C                                       1.3938865
    39   6 C       41   6 C                                       1.3910081
     2   6 C       42   1 H                                       1.0844663
     4   6 C       43   1 H                                       1.0785295
     5   6 C       44   1 H                                       1.0778813
    10   6 C       45   1 H                                       1.0779167
    11   6 C       46   1 H                                       1.0781803
    16   6 C       47   1 H                                       1.0781879
    17   6 C       48   1 H                                       1.0778750
    21   6 C       49   1 H                                       1.0844710
    23   6 C       50   1 H                                       1.0898077
    23   6 C       51   1 H                                       1.0918950
    23   6 C       52   1 H                                       1.0910709
    24   6 C       53   1 H                                       1.0851901
    26   6 C       54   1 H                                       1.0897954
    26   6 C       55   1 H                                       1.0918128
    26   6 C       56   1 H                                       1.0912075
    27   6 C       57   1 H                                       1.0844827
    29   6 C       58   1 H                                       1.0778678
    30   6 C       59   1 H                                       1.0785044
    35   6 C       60   1 H                                       1.0844471
    37   6 C       61   1 H                                       1.0903744
    37   6 C       62   1 H                                       1.0900406
    37   6 C       63   1 H                                       1.0924120
    38   6 C       64   1 H                                       1.0851929
    40   6 C       65   1 H                                       1.0924159
    40   6 C       66   1 H                                       1.0901348
    40   6 C       67   1 H                                       1.0902194
    41   6 C       68   1 H                                       1.0845074
    70   6 C       71   6 C                                       1.3797839
    71   6 C       72   6 C                                       1.4320952
    72   6 C       73   6 C                                       1.3540268
    73   6 C       74   6 C                                       1.4344805
    71   6 C       75   7 N                                       1.3707082
    74   6 C       75   7 N                                       1.3687631
    74   6 C       76   6 C                                       1.3911278
    76   6 C       77   6 C                                       1.3879190
    77   6 C       78   6 C                                       1.4332356
    78   6 C       79   6 C                                       1.3549492
    77   6 C       80   7 N                                       1.3746867
    79   6 C       81   6 C                                       1.4294035
    80   7 N       81   6 C                                       1.3632360
    81   6 C       82   6 C                                       1.3995772
    82   6 C       83   6 C                                       1.3983961
    83   6 C       84   6 C                                       1.4297042
    84   6 C       85   6 C                                       1.3552194
    85   6 C       86   6 C                                       1.4326290
    86   6 C       87   6 C                                       1.3895906
    88   6 C       89   6 C                                       1.3925611
    89   6 C       90   6 C                                       1.3927829
    90   6 C       92   6 C                                       1.3895907
    92   6 C       93   6 C                                       1.3938391
    88   6 C       95   6 C                                       1.3961920
    93   6 C       95   6 C                                       1.3885958
    87   6 C       96   6 C                                       1.3903903
    96   6 C       97   6 C                                       1.4346297 (max)
    97   6 C       98   6 C                                       1.3544198
    70   6 C       99   6 C                                       1.3808739
    98   6 C       99   6 C                                       1.4316137
    96   6 C      100   7 N                                       1.3701177
    99   6 C      100   7 N                                       1.3689239
    83   6 C      101   7 N                                       1.3649771
    86   6 C      101   7 N                                       1.3726961
   102   6 C      103   6 C                                       1.3940799
   103   6 C      104   6 C                                       1.3905752
   104   6 C      106   6 C                                       1.3920909
   106   6 C      107   6 C                                       1.3913011
   102   6 C      109   6 C                                       1.3935101
   107   6 C      109   6 C                                       1.3911978
    70   6 C      110   1 H                                       1.0842593
    72   6 C      111   1 H                                       1.0785541
    73   6 C      112   1 H                                       1.0779393
    78   6 C      113   1 H                                       1.0778660
    79   6 C      114   1 H                                       1.0781952
    84   6 C      115   1 H                                       1.0781977
    85   6 C      116   1 H                                       1.0779152
    89   6 C      117   1 H                                       1.0845161
    91   6 C      118   1 H                                       1.0898465
    91   6 C      119   1 H                                       1.0913783
    91   6 C      120   1 H                                       1.0916453
    92   6 C      121   1 H                                       1.0852144
    94   6 C      122   1 H                                       1.0898305
    94   6 C      123   1 H                                       1.0917255
    94   6 C      124   1 H                                       1.0913493
    95   6 C      125   1 H                                       1.0845240
    97   6 C      126   1 H                                       1.0779377
    98   6 C      127   1 H                                       1.0785613
   103   6 C      128   1 H                                       1.0844755
   105   6 C      129   1 H                                       1.0903676
   105   6 C      130   1 H                                       1.0900816
   105   6 C      131   1 H                                       1.0924280
   106   6 C      132   1 H                                       1.0852228
   108   6 C      133   1 H                                       1.0924547
   108   6 C      134   1 H                                       1.0901340
   108   6 C      135   1 H                                       1.0902949
   109   6 C      136   1 H                                       1.0845140
   137   6 C      138   6 C                                       1.2246571
   139   6 C      140   6 C                                       1.2247261
   141   6 C      142   6 C                                       1.2226928
   143   6 C      144   6 C                                       1.2225512
   146   6 C      147   6 C                                       1.4016955
   147   6 C      148   6 C                                       1.4288466
   148   6 C      149   6 C                                       1.3555243
   149   6 C      150   6 C                                       1.4320983
   147   6 C      151   7 N                                       1.3622185
   150   6 C      151   7 N                                       1.3740095
   150   6 C      152   6 C                                       1.3885570
   152   6 C      153   6 C                                       1.3901185
   153   6 C      154   6 C                                       1.4320010
   154   6 C      155   6 C                                       1.3553715
   153   6 C      156   7 N                                       1.3727769
   155   6 C      157   6 C                                       1.4288593
   156   7 N      157   6 C                                       1.3640277
   157   6 C      158   6 C                                       1.3992763
   158   6 C      159   6 C                                       1.3993289
   159   6 C      160   6 C                                       1.4288527
   160   6 C      161   6 C                                       1.3554626
   161   6 C      162   6 C                                       1.4320438
   162   6 C      163   6 C                                       1.3901346
   164   6 C      165   6 C                                       1.3938167
   165   6 C      166   6 C                                       1.3911320
   166   6 C      168   6 C                                       1.3911112
   168   6 C      169   6 C                                       1.3925227
   164   6 C      171   6 C                                       1.3946682
   169   6 C      171   6 C                                       1.3900199
   163   6 C      172   6 C                                       1.3886400
   172   6 C      173   6 C                                       1.4321199
   173   6 C      174   6 C                                       1.3554949
   146   6 C      175   6 C                                       1.4015209
   174   6 C      175   6 C                                       1.4288604
   172   6 C      176   7 N                                       1.3739579
   175   6 C      176   7 N                                       1.3624240
   159   6 C      177   7 N                                       1.3638870
   162   6 C      177   7 N                                       1.3728684
   178   6 C      179   6 C                                       1.3936577
   179   6 C      180   6 C                                       1.3913050
   180   6 C      182   6 C                                       1.3911646
   182   6 C      183   6 C                                       1.3923414
   178   6 C      185   6 C                                       1.3947640
   183   6 C      185   6 C                                       1.3900695
   148   6 C      186   1 H                                       1.0781255
   149   6 C      187   1 H                                       1.0777807
   154   6 C      188   1 H                                       1.0777208 (min)
   155   6 C      189   1 H                                       1.0780660
   160   6 C      190   1 H                                       1.0781167
   161   6 C      191   1 H                                       1.0777696
   165   6 C      192   1 H                                       1.0844926
   167   6 C      193   1 H                                       1.0901112
   167   6 C      194   1 H                                       1.0924261
   167   6 C      195   1 H                                       1.0902201
   168   6 C      196   1 H                                       1.0851983
   170   6 C      197   1 H                                       1.0898973
   170   6 C      198   1 H                                       1.0905948
   170   6 C      199   1 H                                       1.0922963
   171   6 C      200   1 H                                       1.0844394
   173   6 C      201   1 H                                       1.0777944
   174   6 C      202   1 H                                       1.0781155
   179   6 C      203   1 H                                       1.0844869
   181   6 C      204   1 H                                       1.0900201
   181   6 C      205   1 H                                       1.0924190
   181   6 C      206   1 H                                       1.0903101
   182   6 C      207   1 H                                       1.0851812
   184   6 C      208   1 H                                       1.0903679
   184   6 C      209   1 H                                       1.0900214
   184   6 C      210   1 H                                       1.0923844
   185   6 C      211   1 H                                       1.0844871

 * 3 distinct bonds (by element types)

   Z      Z             #   av. dist./Å        max./Å        min./Å
   1 H    6 C          80     1.0855145     1.0924547     1.0777208
   6 C    6 C         100     1.3904031     1.4346297     1.2225512
   6 C    7 N          24     1.3685970     1.3746867     1.3617346


optimized geometry written to: xtbopt.xyz


           -------------------------------------------------
          | TOTAL ENERGY             -335.587586206626 Eh   |
          | GRADIENT NORM               0.000539377640 Eh/α |
          | HOMO-LUMO GAP               0.057713628654 eV   |
           -------------------------------------------------

------------------------------------------------------------------------
 * finished run on 2022/07/29 at 18:21:28.240     
------------------------------------------------------------------------
 total:
 * wall-time:     0 d,  0 h, 11 min, 47.284 sec
 *  cpu-time:     0 d,  0 h, 11 min, 16.786 sec
 * ratio c/w:     0.957 speedup
 SCF:
 * wall-time:     0 d,  0 h,  0 min, 15.831 sec
 *  cpu-time:     0 d,  0 h,  0 min, 15.761 sec
 * ratio c/w:     0.996 speedup
 ANC optimizer:
 * wall-time:     0 d,  0 h, 11 min, 31.196 sec
 *  cpu-time:     0 d,  0 h, 11 min,  0.776 sec
 * ratio c/w:     0.956 speedup

