124
 energy: -245.813234655280 gnorm: 1.574246607341 xtb: 6.5.1 (b24c23e)
Cu          16.00954900000000        0.02909100000000        0.00197400000000
C           12.67280300000000       -0.09590600000000       -0.07572200000000
C           13.33600000000000       -1.24724000000000       -0.21844100000000
C           12.68529300000000       -2.54577100000000       -0.34447500000000
C           13.62578200000000       -3.45887800000000       -0.49890500000000
C           14.93120000000000       -2.78424600000000       -0.49007600000000
N           14.75419400000000       -1.37948000000000       -0.30271900000000
C           16.12366800000000       -3.39430500000000       -0.65269000000000
C           16.17105200000000       -4.85619900000000       -0.88194400000000
C           16.68635300000000       -5.70563800000000        0.10615600000000
C           16.74511300000000       -7.08472100000000       -0.11128700000000
C           16.29232600000000       -7.63688200000000       -1.32402700000000
N           16.34819000000000       -9.05707200000000       -1.55066800000000
O           15.90374000000000       -9.59435700000000       -2.73756600000000
O           16.78782600000000       -9.82531200000000       -0.66955500000000
C           15.78308300000000       -6.77833500000000       -2.31436300000000
C           15.72504700000000       -5.39914200000000       -2.09563100000000
C           17.41668100000000       -2.66111500000000       -0.62357700000000
C           18.70326200000000       -3.26020600000000       -1.00013600000000
C           19.63760500000000       -2.34569100000000       -0.83591600000000
N           17.55743100000000       -1.42717200000000       -0.24597000000000
C           18.95462200000000       -1.15179700000000       -0.35228300000000
C           19.54804100000000        0.00022600000000        0.00006400000000
C           18.78474700000000        1.17516400000000        0.47775500000000
C           19.31717700000000        2.18803800000000        1.14975900000000
C           18.27358700000000        3.17705300000000        1.33788900000000
C           17.17310300000000        2.70459600000000        0.76373700000000
N           17.40600700000000        1.41567900000000        0.19283600000000
C           15.89116400000000        3.44976600000000        0.66968600000000
C           15.90865900000000        4.91746300000000        0.88153200000000
C           15.24651600000000        5.48596600000000        1.97979100000000
C           15.28360800000000        6.86731900000000        2.18828700000000
C           15.98796800000000        7.70391800000000        1.30484700000000
N           16.02273800000000        9.12640700000000        1.52151900000000
O           15.41763500000000        9.68011800000000        2.62700100000000
O           16.60646100000000        9.87957200000000        0.71430700000000
C           16.65853000000000        7.12743700000000        0.21005800000000
C           16.62157500000000        5.74554800000000        0.00319500000000
C           14.72904300000000        2.82364600000000        0.40248900000000
C           13.41888000000000        3.45656200000000        0.25944500000000
C           12.55742700000000        2.47701800000000        0.06627600000000
C           13.30883800000000        1.22288400000000        0.07092200000000
N           14.57535300000000        1.41263600000000        0.26524800000000
H           11.58932100000000       -0.12408600000000       -0.06987600000000
H           11.62114900000000       -2.74364700000000       -0.31533100000000
H           13.43791100000000       -4.51886600000000       -0.61063800000000
H           17.04030900000000       -5.29883700000000        1.04566000000000
H           17.14567900000000       -7.71868100000000        0.66880600000000
H           15.43063700000000       -7.17201300000000       -3.25910900000000
H           15.33374900000000       -4.75324700000000       -2.87196800000000
H           18.87612700000000       -4.26828900000000       -1.35406300000000
H           20.69319800000000       -2.48495600000000       -1.02889300000000
H           20.34377900000000        2.27929000000000        1.47718000000000
H           18.38374200000000        4.13356000000000        1.83304400000000
H           14.70548500000000        4.85745400000000        2.67689800000000
H           14.76166700000000        7.28035400000000        3.04196200000000
H           17.21679900000000        7.74370900000000       -0.48225200000000
H           17.14846199999999        5.31976100000000       -0.84227800000000
H           13.17551000000000        4.51012700000000        0.29978000000000
H           11.49090000000000        2.59529000000000       -0.07390800000000
Cu          29.31553500000000       -0.02724900000000       -0.00898900000000
C           32.65228100000000        0.11776200000000       -0.03414700000000
C           31.98908399999999        1.23860900000000        0.26524900000000
C           32.63979100000000        2.48965900000000        0.63530700000000
C           31.69930200000000        3.39405200000000        0.83452100000000
C           30.39388400000000        2.76533000000000        0.58974600000000
N           30.57089000000000        1.39280200000000        0.23670500000000
C           29.20141599999999        3.39185300000000        0.66774400000000
C           29.15403200000000        4.83305000000000        1.00336600000000
C           28.63873100000000        5.25001900000000        2.23788000000000
C           28.57997100000000        6.61001800000000        2.55340000000000
C           29.03275800000000        7.57662200000000        1.63617800000000
N           28.97689400000000        8.97817800000000        1.95858500000000
O           29.42134400000000        9.92130100000000        1.05974200000000
O           28.53725800000000        9.35998600000000        3.06347200000000
C           29.54200100000000        7.15204800000000        0.39617600000000
C           29.60003700000000        5.79146300000000        0.08180900000000
C           27.90840300000000        2.70123900000000        0.41981700000000
C           26.62182200000000        3.39781600000000        0.29536500000000
C           25.68747900000000        2.48844600000000        0.10469900000000
N           27.76765300000000        1.41573600000000        0.30719600000000
C           26.37046200000000        1.20031500000000        0.10538500000000
C           25.77704300000000        0.00022600000000        0.00006400000000
C           26.54033700000000       -1.26810500000000        0.00235000000000
C           26.00790700000000       -2.45905500000000        0.24554000000000
C           27.05149700000000       -3.44645400000000        0.04910300000000
C           28.15198100000000       -2.79318300000000       -0.30600700000000
N           27.91907700000000       -1.38423900000000       -0.35196500000000
C           29.43392000000000       -3.44872100000000       -0.67260400000000
C           29.41642500000000       -4.88877100000000       -1.02654000000000
C           30.07856800000000       -5.82759800000000       -0.22157400000000
C           30.04147600000000       -7.18634700000000       -0.54624000000000
C           29.33711600000000       -7.63065500000000       -1.67891600000000
N           29.30234600000000       -9.03060500000000       -2.01142700000000
O           29.90744900000000       -9.95842800000000       -1.19421700000000
O           28.71862300000000       -9.42614900000000       -3.04215100000000
C           28.66655400000000       -6.68573300000000       -2.47767300000000
C           28.70350900000000       -5.32709900000000       -2.15129300000000
C           30.59604100000000       -2.76809400000000       -0.68553700000000
C           31.90620400000000       -3.30119800000000       -1.05546300000000
C           32.76765700000000       -2.32069000000000       -0.86725000000000
C           32.01624600000000       -1.15979700000000       -0.39269400000000
N           30.74973100000000       -1.40857000000000       -0.28369500000000
H           33.73576300000000        0.14169300000000       -0.01816100000000
H           33.70393500000000        2.66217100000000        0.73651900000000
H           31.88717300000000        4.41860000000000        1.12839100000000
H           28.28477500000000        4.52062200000000        2.95630600000000
H           28.17940500000000        6.90522200000000        3.51428800000000
H           29.89444700000000        7.87124400000000       -0.33203000000000
H           29.99133500000000        5.48378700000000       -0.88007100000000
H           26.44895700000000        4.46505800000000        0.34524900000000
H           24.63188600000000        2.68990900000000       -0.02198000000000
H           24.98130500000000       -2.66641900000000        0.51485700000000
H           26.94134200000000       -4.51883800000000        0.14948200000000
H           30.61959900000000       -5.50632800000000        0.66033900000000
H           30.56341700000000       -7.88934100000000        0.09028100000000
H           28.10828500000000       -6.99745500000000       -3.35055000000000
H           28.17662199999999       -4.61536000000000       -2.77542900000000
H           32.14957400000000       -4.29302000000000       -1.41311400000000
H           33.83418400000000       -2.37776900000000       -1.04155400000000
C           21.92705100000000        0.01239700000000        0.00243100000000
C           20.67478000000000       -0.00678400000000       -0.00191800000000
C           23.24071900000000        0.01163100000000        0.00436300000000
C           24.74385200000000       -0.00678400000000       -0.00191800000000
124
 energy: -246.250468052265 gnorm: 0.514185861029 xtb: 6.5.1 (b24c23e)
Cu          16.01581141102644        0.02649320631671        0.00147192295969
C           12.67351125108065       -0.08176461147223       -0.07409576865115
C           13.34154951080964       -1.24951262291379       -0.21810885892077
C           12.68421178940865       -2.53996729877422       -0.34387463436074
C           13.63372773368065       -3.46081583361309       -0.49884644964072
C           14.92837815374697       -2.77934508282168       -0.48886451880483
N           14.73983594439560       -1.39197163188915       -0.30675681310731
C           16.13574554225938       -3.39237584071811       -0.65394050898578
C           16.17375629745608       -4.85723699835387       -0.88324949669629
C           16.68635052183964       -5.71029900341731        0.10242346450664
C           16.74411207800735       -7.08591869953963       -0.11383876544392
C           16.29126237488802       -7.64065207406352       -1.32787121619152
N           16.34400493443074       -9.07096250275957       -1.56175691484950
O           15.91638276315082       -9.57111555639543       -2.70230347218752
O           16.78067932617337       -9.81101003658890       -0.68412018104992
C           15.78314936602812       -6.77831502642240       -2.31365861591728
C           15.72532983169922       -5.40385163045081       -2.09346856282004
C           17.40874193735656       -2.68118751290300       -0.62691251842237
C           18.68958274357116       -3.27108209761393       -0.99970955205441
C           19.63308453758262       -2.33743468980465       -0.83391427881225
N           17.55915883086246       -1.42636308164094       -0.25009533422812
C           18.92470732120782       -1.17057976090967       -0.35826207867000
C           19.48336342926962        0.01037307152613        0.00539334143255
C           18.75816562976818        1.17677010782281        0.47345023295254
C           19.31529169944584        2.20364341403648        1.15643649556089
C           18.28892024785658        3.17987193767217        1.34089556458041
C           17.16219567427823        2.70104372384409        0.75575487163759
N           17.40400797023226        1.42120807298694        0.19850780698114
C           15.90123698732036        3.44459543639849        0.66963039991247
C           15.91268364505854        4.91621144942039        0.88334899188440
C           15.24747597456885        5.48986335001908        1.97737514924852
C           15.28385670463765        6.86699870713536        2.18748138721488
C           15.98625589250825        7.70767739016824        1.30831107022938
N           16.01844655181676        9.14027242006348        1.53259316576744
O           15.43448228595676        9.65646158110370        2.59396232819148
O           16.59669026820419        9.86552181753822        0.72744833925328
C           16.65687947201621        7.12828465824052        0.21231740601585
C           16.62103023566088        5.74975856360104        0.00679325535438
C           14.72765885130420        2.82278647083437        0.40199846990077
C           13.42531138695028        3.45654831872953        0.26026868889291
C           12.55061852703140        2.46772196508971        0.06474999247078
C           13.29322236655278        1.21487384645927        0.06958094345264
N           14.57745172865823        1.42016237532227        0.26647811482031
H           11.58989091183199       -0.12090249879787       -0.07021240637778
H           11.62141580879678       -2.73884611369995       -0.31463644387249
H           13.44372639751062       -4.51914680182209       -0.61102221292978
H           17.03976450202465       -5.29988457010553        1.04390915950090
H           17.14519693620527       -7.72044066343272        0.66757836200065
H           15.43109064335343       -7.17381150211506       -3.25875798858073
H           15.33446073637412       -4.75433850733660       -2.87068405913020
H           18.87137927781367       -4.27135165550891       -1.35438328415118
H           20.69081807018988       -2.47809880571559       -1.02649233305459
H           20.34315494737632        2.28066870105315        1.47794525650008
H           18.38661515250050        4.13354810778478        1.83428490187619
H           14.70645418497591        4.85848236557183        2.67571855592764
H           14.76226097282655        7.28200475134784        3.04165700281447
H           17.21602291590783        7.74534621717346       -0.48119178190135
H           17.14760333282081        5.32083453854808       -0.84075526873479
H           13.18092947819764        4.50948567735954        0.30033016321668
H           11.48903359098847        2.59120041149327       -0.07452868850194
Cu          29.30953637667234       -0.02450225735851       -0.00837439752786
C           32.65163265160751        0.10386624124371       -0.03797051072146
C           31.98342326385739        1.24060736147366        0.26648939028749
C           32.64083294758350        2.48399248920403        0.63366326130365
C           31.69127049292573        3.39580886186523        0.83538956880039
C           30.39664523234458        2.76067057874821        0.58914376932992
N           30.58534336522256        1.40573144755497        0.23719362047521
C           29.18969200766860        3.39075982904724        0.66581062227622
C           29.15138556355083        4.83449966973040        1.00256141652705
C           28.63873014625914        5.25574084102936        2.23617221731549
C           28.58097282751193        6.61206816794660        2.55148918305663
C           29.03381959826147        7.58157068287531        1.63402789939665
N           28.98107483880472        8.99518892008997        1.95350631180179
O           29.40870061224999        9.88654186595440        1.08372624040633
O           28.54441047652909        9.35219722482364        3.04460141179452
C           29.54193264834547        7.15176002178923        0.39681413198448
C           29.59975722203822        5.79502947878807        0.08557629218415
C           27.91612401882896        2.72247069918153        0.42432591433356
C           26.63668507424011        3.40814161979545        0.30018437363994
C           25.69265231909431        2.47899558901072        0.10327693875551
N           27.76651269283298        1.41684225125836        0.30374212871679
C           26.40517483271360        1.22492101984452        0.10694921836641
C           25.85472236090499       -0.01104957835029        0.00078738524883
C           26.57216244478404       -1.27173056027538       -0.00157148457900
C           26.01034483659285       -2.47575137433944        0.24602147561813
C           27.03675115479867       -3.45045397736316        0.05070773353712
C           28.16286652175883       -2.78748831913521       -0.31206043010668
N           27.92244544888007       -1.39214411161438       -0.34953673709665
C           29.42427660640998       -3.44407486308788       -0.67077985044235
C           29.41243401868293       -4.88829302238479       -1.02441794059717
C           30.07762313844411       -5.83032161693990       -0.22528104809182
C           30.04123420131754       -7.18574359517097       -0.54686218694887
C           29.33882935103672       -7.63545566642122       -1.67711669717155
N           29.30664359288604       -9.04759495618453       -2.00635774489953
O           29.89059565673273       -9.92411125600634       -1.21597848605512
O           28.72839035457110       -9.41805354716134       -3.02469605467987
C           28.66819354806269       -6.68735914750853       -2.47590050893240
C           28.70402939281356       -5.33237433975127       -2.14954129965800
C           30.59732755709121       -2.76721925448303       -0.68564385110622
C           31.89984213904448       -3.30147780460620       -1.05471939958250
C           32.77443395178553       -2.31154388917223       -0.86520553626519
C           32.03187948285540       -1.15170700701529       -0.39089652602961
N           30.74755390642225       -1.41588956607127       -0.28512042691582
H           33.73520781656870        0.13884780701800       -0.01970002104139
H           33.70365195593961        2.65743374388369        0.73535989655969
H           31.88135799854469        4.41900224461503        1.12814269533211
H           28.28531331103461        4.52224866946062        2.95507206159316
H           28.17988666959480        6.90730987473739        3.51380958369984
H           29.89399397584688        7.87277761131193       -0.33103122704721
H           29.99062430824838        5.48431912920085       -0.87847156416072
H           26.45378215871640        4.46806587455923        0.34607588504275
H           24.63439078149932        2.68194051274834       -0.02233716821348
H           24.98196220446988       -2.66745966845019        0.51497452582726
H           26.93846270026079       -4.51932453929074        0.15063656728861
H           30.61863293889749       -5.50684023993244        0.65885712014058
H           30.56282211638889       -7.89075666314061        0.08938184519151
H           28.10906490520048       -6.99937019500190       -3.35018717854846
H           28.17747897972041       -4.61693047245516       -2.77442461959644
H           32.14416883051035       -4.29263221590956       -1.41237277574803
H           33.83603976926806       -2.37375193462813       -1.04060095187418
C           21.97512526104636        0.01596848733945        0.00293705369207
C           20.74999508907574        0.00399628397086       -0.00011397094700
C           23.25746440418682        0.00865105618174        0.00305148814282
C           24.57498936051001       -0.01909946013260       -0.00433643109038
124
 energy: -246.376787645716 gnorm: 0.233211285810 xtb: 6.5.1 (b24c23e)
Cu          16.02241702040675        0.02095059463374       -0.00352396364535
C           12.67580862477479       -0.06490786478946       -0.07236196847498
C           13.34499648492735       -1.25156855180498       -0.21810553322149
C           12.68469328164407       -2.53361940989266       -0.34309224186096
C           13.64305806572774       -3.46212190066410       -0.49931595206004
C           14.92469665156459       -2.77615649119562       -0.48894786106751
N           14.71699116585298       -1.41537305016212       -0.30836674866996
C           16.14904242820104       -3.39179064295178       -0.65608464722307
C           16.17925470562087       -4.86025007428876       -0.88671650823146
C           16.68745724932577       -5.71878022093056        0.09499054659920
C           16.74208720985633       -7.09077160838693       -0.11985198741760
C           16.28911714533459       -7.64167026941571       -1.33321486476177
N           16.33831781573280       -9.07992962599961       -1.57352903019545
O           15.93457169404090       -9.52596548619138       -2.64880242134209
O           16.77291226367907       -9.79051983283768       -0.69962488893964
C           15.78227972604768       -6.78002433209878       -2.31365957633542
C           15.72532080085025       -5.41070578049693       -2.09079852559452
C           17.39820330292895       -2.70792040230606       -0.63043491872007
C           18.67387611568147       -3.28565215425562       -0.99894743182447
C           19.61989362380117       -2.33393466357787       -0.83110378956391
N           17.56190108394517       -1.43303025687958       -0.26097392616121
C           18.90391641551654       -1.17788599020383       -0.36283989221621
C           19.45247050789203        0.02651499384075        0.01400714573187
C           18.73736110801553        1.17999836604037        0.46476562444825
C           19.31269999655584        2.22970512364111        1.16175383803676
C           18.31207190318875        3.18516757752319        1.34039893568896
C           17.15549614609172        2.70005572161783        0.74441962614732
N           17.40329821252092        1.43102818280879        0.21386010996119
C           15.91828852372736        3.43549572631283        0.66848518615328
C           15.92398269410820        4.91235367257631        0.88933228760685
C           15.24991780898395        5.49349458021899        1.97363469615256
C           15.28329551746924        6.86667676270490        2.18633860032978
C           15.98343709937537        7.70780830798036        1.31307521042875
N           16.01342914216191        9.14872014925439        1.54472904650711
O           15.45902170509055        9.61044572656930        2.54336962886689
O           16.58571735780357        9.84483925247594        0.74162623403087
C           16.65330078534535        7.13155460877929        0.21766740906371
C           16.62168389814801        5.75599080294701        0.01454720120782
C           14.72535356509104        2.81942815939376        0.40029271768852
C           13.43127160421087        3.45119131589808        0.26143355559806
C           12.54131567597651        2.45716094863647        0.06396680820881
C           13.27255147509061        1.20837026459828        0.06955579885317
N           14.57373364682129        1.43343780393592        0.26518069798622
H           11.59187826309108       -0.11308015945176       -0.07181953449354
H           11.62228032217897       -2.72724524231463       -0.31303467141422
H           13.45849517102178       -4.52004250453970       -0.61200249273682
H           17.03835409281441       -5.30485519432048        1.03780806473801
H           17.14295618927775       -7.72657499372174        0.66224994533455
H           15.43185850910223       -7.17885891500381       -3.25832170081024
H           15.33613353813698       -4.75776725504775       -2.86723638759867
H           18.86053822219334       -4.28175676781949       -1.35520472582196
H           20.67975977485429       -2.46407028585553       -1.02131459589282
H           20.34102499005965        2.28665149751821        1.48191773069549
H           18.39476579961176        4.13529935971058        1.83851330844338
H           14.70908762062897        4.86099433087734        2.67224214341317
H           14.76345113718362        7.28565106202993        3.04060991286582
H           17.21231442204654        7.75056314584021       -0.47651243660787
H           17.14548773654891        5.32553251237195       -0.83568187847830
H           13.19442366691915        4.50562020383538        0.30130732142352
H           11.48231257068490        2.58217837812866       -0.07600221581816
Cu          29.30148997856471       -0.01754514367585       -0.01101344706151
C           32.64927041673582        0.08767252400973       -0.04270154057471
C           31.97989639843808        1.24248898020924        0.26714751105729
C           32.64023338348762        2.47778868629931        0.63201238060299
C           31.68171156324265        3.39709192533286        0.83536491815010
C           30.39999879901037        2.75727606719953        0.58777114845443
N           30.60795479199654        1.42773347837171        0.24470538165340
C           29.17514458371753        3.38977522960689        0.66347620601107
C           29.14558084300630        4.83813174919086        1.00033256900112
C           28.63762779235777        5.26626747459946        2.23240059287009
C           28.58301604806293        6.61876068065456        2.54768864685330
C           29.03596472990406        7.58447634330755        1.62944742846395
N           28.98677734056982        9.00790399016707        1.94596239255682
O           29.39050968970997        9.82460219978635        1.11638386448524
O           28.55217315933301        9.33899512915053        3.02254398075340
C           29.54278480495133        7.15324217087144        0.39747105940675
C           29.59968985729912        5.80018530473468        0.09065089681654
C           27.92463835215661        2.74575647706244        0.43067394704050
C           26.65099928702454        3.42065168087928        0.30604770105674
C           25.70253494407761        2.47651082299458        0.10453617123814
N           27.75594134268545        1.42382526743893        0.29433860706663
C           26.41032210905734        1.22865529193308        0.10597914353928
C           25.85329367624609       -0.02908742704191        0.00260998089235
C           26.58063211919191       -1.26703633731542       -0.01282479437503
C           26.01014211055668       -2.50215951330876        0.24143495966230
C           27.01271496620841       -3.45437700040869        0.04834459193925
C           28.16845326822806       -2.78057211822820       -0.32223296088830
N           27.91711549317525       -1.40453284034401       -0.33720223356118
C           29.40640033614371       -3.43456927572490       -0.66835885826661
C           29.40098137754659       -4.88673036606345       -1.01733050090010
C           30.07511901809504       -5.83218346702806       -0.23011156822279
C           30.04177033173314       -7.18496906627373       -0.54779922043086
C           29.34164472584713       -7.63734271753497       -1.67274023664928
N           29.31165434168829       -9.05996930036408       -1.99826847813938
O           29.86606630004600       -9.86247611670486       -1.24562298650655
O           28.73937018067903       -9.40418950055601       -3.00380077250960
C           28.67178619131965       -6.69236770020680       -2.47214149089548
C           28.70339760579272       -5.34099064106872       -2.14466528807851
C           30.59946218625430       -2.76320757764043       -0.68595198591945
C           31.89370384273563       -3.29688524796605       -1.05160760768308
C           32.78368312718877       -2.30141822329256       -0.86191450307677
C           32.05246822450152       -1.14569703277974       -0.38847079062580
N           30.75115395478859       -1.42757670951593       -0.29138896824852
H           33.73319108616921        0.13224731016661       -0.02408988465371
H           33.70268507694214        2.64609878291001        0.73250623172617
H           31.86646384176275        4.42011835452208        1.12754807872872
H           28.28671227987043        4.52912231784947        2.95129605612192
H           28.18214261824959        6.91496406951583        3.51113808018748
H           29.89322160462612        7.87723179459522       -0.32871266256378
H           29.98893456510787        5.48615829294490       -0.87398255196552
H           26.46490761022083        4.47785345603192        0.34926563394785
H           24.64383038249801        2.66963461825862       -0.02280895082044
H           24.98292877064417       -2.67645081751398        0.51685631940119
H           26.93055746265676       -4.52220214692733        0.15387665152939
H           30.61598549555112       -5.50783938228917        0.65468864136302
H           30.56162630098065       -7.89371601911761        0.08703458381051
H           28.11277906490722       -7.00594805792931       -3.34778501571882
H           28.17958596299588       -4.62317404610810       -2.77148337282404
H           32.13057046141677       -4.28937476638992       -1.40998659197672
H           33.84271667778052       -2.36481194215520       -1.03857129612929
C           22.01272269082146        0.02277942641789        0.00398309434486
C           20.78721113990702        0.02218396692838        0.00608148488994
C           23.34170961970718        0.00144817582235        0.00103819649876
C           24.51005241834476       -0.03668974358463       -0.00308658786584
124
 energy: -246.410160123918 gnorm: 0.145289600837 xtb: 6.5.1 (b24c23e)
Cu          16.02478975615480        0.01440742519559       -0.01239148057091
C           12.67677011730880       -0.05277198084270       -0.07156440828607
C           13.34389252402230       -1.25586330079418       -0.21774737900827
C           12.68355878744096       -2.53024205614843       -0.34187838131028
C           13.64767790384341       -3.46510397054147       -0.50030936038142
C           14.91676547315482       -2.77941014718944       -0.48937526050751
N           14.69544692249292       -1.43890311457350       -0.31012037996729
C           16.15169360846540       -3.39946819351023       -0.65957699500620