      -----------------------------------------------------------      
     |                   =====================                   |     
     |                           x T B                           |     
     |                   =====================                   |     
     |                         S. Grimme                         |     
     |          Mulliken Center for Theoretical Chemistry        |     
     |                    University of Bonn                     |     
      -----------------------------------------------------------      

   * xtb version 6.5.1 (b24c23e) compiled by 'conda@728c89f4b128' on 2022-07-12

   xtb is free software: you can redistribute it and/or modify it under
   the terms of the GNU Lesser General Public License as published by
   the Free Software Foundation, either version 3 of the License, or
   (at your option) any later version.
   
   xtb is distributed in the hope that it will be useful,
   but WITHOUT ANY WARRANTY; without even the implied warranty of
   MERCHANTABILITY or FITNESS FOR A PARTICULAR PURPOSE.  See the
   GNU Lesser General Public License for more details.
   
   Cite this work as:
   * C. Bannwarth, E. Caldeweyher, S. Ehlert, A. Hansen, P. Pracht,
     J. Seibert, S. Spicher, S. Grimme, WIREs Comput. Mol. Sci., 2020, 11,
     e01493. DOI: 10.1002/wcms.1493
   
   for GFN2-xTB:
   * C. Bannwarth, S. Ehlert and S. Grimme., J. Chem. Theory Comput., 2019,
     15, 1652-1671. DOI: 10.1021/acs.jctc.8b01176
   for GFN1-xTB:
   * S. Grimme, C. Bannwarth, P. Shushkov, J. Chem. Theory Comput., 2017,
     13, 1989-2009. DOI: 10.1021/acs.jctc.7b00118
   for GFN0-xTB:
   * P. Pracht, E. Caldeweyher, S. Ehlert, S. Grimme, ChemRxiv, 2019, preprint.
     DOI: 10.26434/chemrxiv.8326202.v1
   for GFN-FF:
   * S. Spicher and S. Grimme, Angew. Chem. Int. Ed., 2020, 59, 15665-15673.
     DOI: 10.1002/anie.202004239
   
   for ALPB and GBSA implicit solvation:
   * S. Ehlert, M. Stahn, S. Spicher, S. Grimme, J. Chem. Theory Comput.,
     2021, 17, 4250-4261. DOI: 10.1021/acs.jctc.1c00471
   
   for DFT-D4:
   * E. Caldeweyher, C. Bannwarth and S. Grimme, J. Chem. Phys., 2017,
     147, 034112. DOI: 10.1063/1.4993215
   * E. Caldeweyher, S. Ehlert, A. Hansen, H. Neugebauer, S. Spicher,
     C. Bannwarth and S. Grimme, J. Chem. Phys., 2019, 150, 154122.
     DOI: 10.1063/1.5090222
   * E. Caldeweyher, J.-M. Mewes, S. Ehlert and S. Grimme, Phys. Chem. Chem. Phys.
     2020, 22, 8499-8512. DOI: 10.1039/D0CP00502A
   
   for sTDA-xTB:
   * S. Grimme and C. Bannwarth, J. Chem. Phys., 2016, 145, 054103.
     DOI: 10.1063/1.4959605
   
   in the mass-spec context:
   * V. Asgeirsson, C. Bauer and S. Grimme, Chem. Sci., 2017, 8, 4879.
     DOI: 10.1039/c7sc00601b
   * J. Koopman and S. Grimme, ACS Omega 2019, 4, 12, 15120-15133.
     DOI: 10.1021/acsomega.9b02011
   
   for metadynamics refer to:
   * S. Grimme, J. Chem. Theory Comput., 2019, 155, 2847-2862
     DOI: 10.1021/acs.jctc.9b00143
   
   for SPH calculations refer to:
   * S. Spicher and S. Grimme, J. Chem. Theory Comput., 2021, 17, 1701-1714
     DOI: 10.1021/acs.jctc.0c01306
   
   with help from (in alphabetical order)
   P. Atkinson, C. Bannwarth, F. Bohle, G. Brandenburg, E. Caldeweyher
   M. Checinski, S. Dohm, S. Ehlert, S. Ehrlich, I. Gerasimov, C. Hölzer
   A. Katbashev, J. Koopman, C. Lavigne, S. Lehtola, F. März, M. Müller,
   F. Musil, H. Neugebauer, J. Pisarek, C. Plett, P. Pracht, F. Pultar,
   J. Seibert, P. Shushkov, S. Spicher, M. Stahn, M. Steiner, T. Strunk,
   J. Stückrath, T. Rose, and J. Unsleber
   
 * started run on 2022/07/29 at 23:53:45.382     

           -------------------------------------------------
          |                Calculation Setup                |
           -------------------------------------------------

          program call               : xtb Fe_PhCN_C4_3.xyz --gfn 1 --opt -T 48
          hostname                   : cx3-15-13.cx3.hpc.ic.ac.uk
          coordinate file            : Fe_PhCN_C4_3.xyz
          omp threads                :                     1

   ID    Z sym.   atoms
    1   26 Fe     1, 59, 125
    2    6 C      2-6, 8-13, 15-19, 21-26, 28-33, 35-40, 60-64, 66-71, 73-77,
                  79-84, 86-91, 93-98, 117-124, 126-130, 132-137, 139-143,
                  145-150, 152-157, 159-164
    3    7 N      7, 14, 20, 27, 34, 41, 65, 72, 78, 85, 92, 99, 131, 138,
                  144, 151, 158, 165
    4    1 H      42-58, 100-116, 166-181

molecular fragmentation (1/2 indicates fragments):
111111111111111111111111111111111111111111111111111111111122222222222222
222222222222222222222222222222222222222222222222222222222222222222222222
2222222222222222222222222222222222222
# atoms in fragment 1/2:    58   123
 fragment masses (1/2) :      565.39     1225.85
CMA distance (Bohr)    :  39.399
constraining FC (au)   :  0.0500
########################################################################
[WARNING] Please study the warnings concerning your input carefully
-1- prog_main_parseArguments: Unknown option '-T' provided
########################################################################

           -------------------------------------------------
          |                 G F N 1 - x T B                 |
           -------------------------------------------------

        Reference                      10.1021/acs.jctc.7b00118
      * Hamiltonian:
        H0-scaling (s, p, d)           1.850000    2.250000    2.000000
        zeta-weighting                 0.000000
      * Dispersion:
        s8                             2.400000
        a1                             0.630000
        a2                             5.000000
        s9                             0.000000
      * Repulsion:
        kExp                           1.500000
        rExp                           1.000000
      * Coulomb:
        alpha                          2.000000
        third order                    atomic
        anisotropic                    false
      * Halogen bond correction:
        rad-scale                      1.300000
        damping                        0.440000


          ...................................................
          :                      SETUP                      :
          :.................................................:
          :  # basis functions                 642          :
          :  # atomic orbitals                 639          :
          :  # shells                          365          :
          :  # electrons                       604          :
          :  # halogen bonds                     0          :
          :  max. iterations                   250          :
          :  Hamiltonian                  GFN1-xTB          :
          :  restarted?                      false          :
          :  GBSA solvation                  false          :
          :  PC potential                    false          :
          :  electronic temp.          300.0000000     K    :
          :  accuracy                    1.0000000          :
          :  -> integral cutoff          0.2500000E+02      :
          :  -> integral neglect         0.1000000E-07      :
          :  -> SCF convergence          0.1000000E-05 Eh   :
          :  -> wf. convergence          0.2000000E-04 e    :
          :  Broyden damping             0.4000000          :
          ...................................................

 iter      E             dE          RMSdq      gap      omega  full diag
   1   -297.2115623 -0.297212E+03  0.123E+01    0.08       0.0  T
   2   -149.3099873  0.147902E+03  0.141E+01    0.09       1.0  T
   3   -193.3957954 -0.440858E+02  0.107E+01    0.08       1.0  T
   4    249.8845230  0.443280E+03  0.146E+01    0.09       1.0  T
   5    721.1528533  0.471268E+03  0.176E+01    0.04       1.0  T
   6   -119.3907718 -0.840544E+03  0.109E+01    0.01       1.0  T
   7    -39.3080871  0.800827E+02  0.105E+01    0.04       1.0  T
   8    -28.7800656  0.105280E+02  0.105E+01    0.07       1.0  T
   9   -295.7905450 -0.267010E+03  0.577E+00    0.08       1.0  T
  10   -315.1479841 -0.193574E+02  0.469E+00    0.09       1.0  T
  11   -316.9715171 -0.182353E+01  0.445E+00    0.03       1.0  T
  12   -309.0885433  0.788297E+01  0.499E+00    0.02       1.0  T
  13   -307.0425336  0.204601E+01  0.507E+00    0.01       1.0  T
  14   -295.5703610  0.114722E+02  0.536E+00    0.11       1.0  T
  15   -308.4418128 -0.128715E+02  0.439E+00    0.01       1.0  T
  16   -319.3184190 -0.108766E+02  0.294E+00    0.08       1.0  T
  17   -323.5609073 -0.424249E+01  0.266E+00    0.01       1.0  T
  18   -301.8094268  0.217515E+02  0.506E+00    0.20       1.0  T
  19   -306.0048438 -0.419542E+01  0.531E+00    0.06       1.0  T
  20   -305.4949304  0.509913E+00  0.536E+00    0.04       1.0  T
  21   -307.0623084 -0.156738E+01  0.520E+00    0.07       1.0  T
  22   -313.3468847 -0.628458E+01  0.452E+00    0.07       1.0  T
  23   -324.8608490 -0.115140E+02  0.238E+00    0.03       1.0  T
  24   -302.5828529  0.222780E+02  0.542E+00    0.10       1.0  T
  25   -299.8991188  0.268373E+01  0.552E+00    0.27       1.0  T
  26   -300.6005198 -0.701401E+00  0.545E+00    0.26       1.0  T
  27   -321.6787184 -0.210782E+02  0.317E+00    0.09       1.0  T
  28   -325.9702554 -0.429154E+01  0.242E+00    0.04       1.0  T
  29   -305.8443416  0.201259E+02  0.495E+00    0.11       1.0  T
  30   -320.2693298 -0.144250E+02  0.339E+00    0.02       1.0  T
  31   -321.6608235 -0.139149E+01  0.314E+00    0.08       1.0  T
  32   -323.7436290 -0.208281E+01  0.269E+00    0.01       1.0  T
  33   -326.7242966 -0.298067E+01  0.211E+00    0.02       1.0  T
  34   -321.7189510  0.500535E+01  0.299E+00    0.03       1.0  T
  35   -318.8957884  0.282316E+01  0.346E+00    0.05       1.0  T
  36   -326.2261065 -0.733032E+01  0.214E+00    0.03       1.0  T
  37   -327.3013536 -0.107525E+01  0.181E+00    0.04       1.0  T
  38   -324.8576224  0.244373E+01  0.241E+00    0.05       1.0  T
  39   -324.6507972  0.206825E+00  0.244E+00    0.04       1.0  T
  40   -326.5035549 -0.185276E+01  0.203E+00    0.04       1.0  T
  41   -329.0323858 -0.252883E+01  0.121E+00    0.01       1.0  T
  42   -328.3159548  0.716431E+00  0.150E+00    0.03       1.0  T
  43   -325.4701762  0.284578E+01  0.228E+00    0.05       1.0  T
  44   -327.7112620 -0.224109E+01  0.166E+00    0.00       1.0  T
  45   -329.5488290 -0.183757E+01  0.941E-01    0.01       1.0  T
  46   -324.9701569  0.457867E+01  0.237E+00    0.00       1.0  T
  47   -328.6372179 -0.366706E+01  0.133E+00    0.00       1.0  T
  48   -328.8217905 -0.184573E+00  0.127E+00    0.03       1.0  T
  49   -329.7501143 -0.928324E+00  0.759E-01    0.01       1.0  T
  50   -329.2157001  0.534414E+00  0.107E+00    0.03       1.0  T
  51   -329.0660940  0.149606E+00  0.112E+00    0.04       1.0  T
  52   -330.2165333 -0.115044E+01  0.137E-01    0.02       1.0  T
  53   -329.0027511  0.121378E+01  0.115E+00    0.00       1.0  T
  54   -329.8258966 -0.823145E+00  0.652E-01    0.01       1.0  T
  55   -330.2247883 -0.398892E+00  0.137E-01    0.02       1.0  T
  56   -329.7122757  0.512513E+00  0.752E-01    0.01       1.0  T
  57   -329.9384143 -0.226139E+00  0.557E-01    0.01       1.0  T
  58   -330.1786476 -0.240233E+00  0.264E-01    0.01       1.0  T
  59   -330.0592834  0.119364E+00  0.440E-01    0.01       1.0  T
  60   -330.1352176 -0.759342E-01  0.343E-01    0.01       1.0  T
  61   -330.0997368  0.354808E-01  0.396E-01    0.02       1.0  T
  62   -330.1956906 -0.959538E-01  0.231E-01    0.02       1.0  T
  63   -330.1930124  0.267822E-02  0.234E-01    0.02       1.0  T
  64   -330.2429107 -0.498983E-01  0.323E-02    0.02       1.0  T
  65   -330.2413624  0.154822E-02  0.509E-02    0.02       1.0  T
  66   -330.2366755  0.468695E-02  0.870E-02    0.02       1.0  T
  67   -330.2397386 -0.306308E-02  0.663E-02    0.02       1.0  T
  68   -330.2420651 -0.232654E-02  0.441E-02    0.02       1.0  T
  69   -330.2434048 -0.133966E-02  0.230E-02    0.02       1.0  T
  70   -330.2436226 -0.217830E-03  0.173E-02    0.02       1.0  T
  71   -330.2435549  0.677069E-04  0.193E-02    0.02       1.0  T
  72   -330.2438420 -0.287134E-03  0.809E-03    0.02       1.0  T
  73   -330.2438481 -0.603909E-05  0.769E-03    0.02       1.0  T
  74   -330.2438992 -0.510823E-04  0.171E-03    0.02       4.3  T
  75   -330.2438963  0.286439E-05  0.254E-03    0.02       2.9  T
  76   -330.2438860  0.103118E-04  0.418E-03    0.02       1.8  T
  77   -330.2438906 -0.460636E-05  0.357E-03    0.02       2.1  T
  78   -330.2439015 -0.109010E-04  0.120E-03    0.02       6.2  T
  79   -330.2439017 -0.247777E-06  0.104E-03    0.02       7.2  T
  80   -330.2439011  0.612753E-06  0.131E-03    0.02       5.7  T
  81   -330.2438994  0.174744E-05  0.188E-03    0.02       4.0  T
  82   -330.2439007 -0.131535E-05  0.145E-03    0.02       5.1  T
  83   -330.2439026 -0.192855E-05  0.175E-04    0.02      42.4  T
  84   -330.2439026 -0.100947E-07  0.134E-04    0.02      55.4  T
  85   -330.2439026  0.530559E-08  0.152E-04    0.02      48.9  T

   *** convergence criteria satisfied after 85 iterations ***

         #    Occupation            Energy/Eh            Energy/eV
      -------------------------------------------------------------
         1        2.0000           -0.7895238             -21.4840
       ...           ...                  ...                  ...
       296        1.9984           -0.3891882             -10.5904
       297        1.9973           -0.3886979             -10.5770
       298        1.9972           -0.3886598             -10.5760
       299        1.9960           -0.3883061             -10.5663
       300        1.3664           -0.3831376             -10.4257
       301        1.3226           -0.3830431             -10.4231
       302        1.3002           -0.3829959             -10.4218 (HOMO)
       303        0.8692           -0.3821574             -10.3990 (LUMO)
       304        0.8030           -0.3820281             -10.3955
       305        0.3518           -0.3809402             -10.3659
       306                         -0.3608150              -9.8183
       307                         -0.3466443              -9.4327
       ...                                ...                  ...
       639                          1.6631879              45.2576
      -------------------------------------------------------------
                  HL-Gap            0.0008385 Eh            0.0228 eV
             Fermi-level           -0.3824074 Eh          -10.4058 eV

 SCC (total)                   0 d,  0 h,  0 min, 20.466 sec
 SCC setup                      ...        0 min,  0.016 sec (  0.078%)
 Dispersion                     ...        0 min,  0.013 sec (  0.065%)
 classical contributions        ...        0 min,  0.004 sec (  0.019%)
 integral evaluation            ...        0 min,  0.397 sec (  1.941%)
 iterations                     ...        0 min, 19.136 sec ( 93.505%)
 molecular gradient             ...        0 min,  0.854 sec (  4.175%)
 printout                       ...        0 min,  0.045 sec (  0.218%)

         :::::::::::::::::::::::::::::::::::::::::::::::::::::
         ::                     SUMMARY                     ::
         :::::::::::::::::::::::::::::::::::::::::::::::::::::
         :: total energy            -324.811388242285 Eh    ::
         :: gradient norm              0.962987865362 Eh/a0 ::
         :: HOMO-LUMO gap              0.022815944751 eV    ::
         ::.................................................::
         :: SCC energy              -330.243902630741 Eh    ::
         :: -> electrostatic           0.249999204721 Eh    ::
         :: repulsion energy           5.598335700598 Eh    ::
         :: dispersion energy         -0.165821312142 Eh    ::
         :: halogen bond corr.         0.000000000000 Eh    ::
         :: add. restraining           0.000000000000 Eh    ::
         :: total charge               0.000000000028 e     ::
         :::::::::::::::::::::::::::::::::::::::::::::::::::::

      ----------------------------------------------------------- 
     |                   =====================                   |
     |                        A N C O P T                        |
     |                   =====================                   |
     |               Approximate Normal Coordinate               |
     |                Rational Function Optimizer                |
      ----------------------------------------------------------- 

          ...................................................
          :                      SETUP                      :
          :.................................................:
          :   optimization level            normal          :
          :   max. optcycles                   543          :
          :   ANC micro-cycles                  20          :
          :   degrees of freedom               537          :
          :.................................................:
          :   RF solver                   davidson          :
          :   write xtbopt.log                true          :
          :   linear?                        false          :
          :   energy convergence         0.5000000E-05 Eh   :
          :   grad. convergence          0.1000000E-02 Eh/α :
          :   maximium RF displ.         1.0000000          :
          :   Hlow (freq-cutoff)         0.1000000E-01      :
          :   Hmax (freq-cutoff)         5.0000000          :
          :   S6 in model hess.         20.0000000          :
          ...................................................

generating ANC from model Hessian ...
Using Lindh-Hessian (1995)
 Shifting diagonal of input Hessian by    1.0064298530593950E-002
 Lowest  eigenvalues of input Hessian
    0.010000    0.010036    0.010046    0.010050    0.010054    0.010057
    0.010058    0.010061    0.000000    0.000000    0.000000    0.000000
    0.000000    0.000000    0.010087    0.010103    0.010155    0.010194
 Highest eigenvalues
    2.536501    2.536503    2.536510    2.536526    2.900472    2.993987


........................................................................
.............................. CYCLE    1 ..............................
........................................................................
   1   -330.2439026 -0.330244E+03  0.503E-05    0.02       0.0  T
   2   -330.2437804  0.122288E-03  0.113E-02    0.02       1.0  T
   3   -330.2439020 -0.121590E-03  0.875E-04    0.02       8.5  T
   4   -330.2438559  0.460569E-04  0.690E-03    0.02       1.1  T
   5   -330.2438957 -0.398388E-04  0.266E-03    0.02       2.8  T
   6   -330.2439023 -0.660598E-05  0.554E-04    0.02      13.4  T
   7   -330.2439015  0.825642E-06  0.107E-03    0.02       6.9  T
   8   -330.2439025 -0.994006E-06  0.382E-04    0.02      19.4  T
   9   -330.2439026 -0.122545E-06  0.150E-04    0.02      49.4  T
  10   -330.2439026  0.391992E-08  0.162E-04    0.02      45.9  T
     SCC iter.                  ...        0 min,  1.878 sec
     gradient                   ...        0 min,  0.832 sec
 * total energy  :  -324.8113882 Eh     change        0.4593403E-08 Eh
   gradient norm :     0.9629876 Eh/α   predicted     0.0000000E+00 (-100.00%)
   displ. norm   :     0.4937788 α      lambda       -0.4022473E+00
   maximum displ.:     0.2015887 α      in ANC's #536, #412, #354, ...

........................................................................
.............................. CYCLE    2 ..............................
........................................................................
   1   -330.2459751 -0.330246E+03  0.371E-01    0.01       0.0  T
   2   -322.3209329  0.792504E+01  0.289E+00    0.10       1.0  T
   3   -324.0619309 -0.174100E+01  0.255E+00    0.03       1.0  T
   4   -316.6997133  0.736222E+01  0.368E+00    0.05       1.0  T
   5   -326.4406261 -0.974091E+01  0.202E+00    0.00       1.0  T
   6   -326.2037481  0.236878E+00  0.202E+00    0.02       1.0  T
   7   -328.0388799 -0.183513E+01  0.155E+00    0.01       1.0  T
   8   -329.7349207 -0.169604E+01  0.805E-01    0.02       1.0  T
   9   -329.6738888  0.610319E-01  0.859E-01    0.01       1.0  T
  10   -329.3113507  0.362538E+00  0.104E+00    0.01       1.0  T
  11   -329.5403469 -0.228996E+00  0.899E-01    0.03       1.0  T
  12   -328.0645030  0.147584E+01  0.151E+00    0.04       1.0  T
  13   -330.0024541 -0.193795E+01  0.605E-01    0.01       1.0  T
  14   -330.2219933 -0.219539E+00  0.365E-01    0.01       1.0  T
  15   -330.3291536 -0.107160E+00  0.163E-01    0.01       1.0  T
  16   -330.3450312 -0.158776E-01  0.948E-02    0.01       1.0  T
  17   -330.3526545 -0.762332E-02  0.378E-02    0.01       1.0  T
  18   -330.3445552  0.809936E-02  0.981E-02    0.00       1.0  T
  19   -330.3532735 -0.871835E-02  0.269E-02    0.01       1.0  T
  20   -330.3529601  0.313459E-03  0.318E-02    0.01       1.0  T
  21   -330.3538689 -0.908806E-03  0.103E-02    0.01       1.0  T
  22   -330.3532755  0.593375E-03  0.267E-02    0.01       1.0  T
  23   -330.3539699 -0.694401E-03  0.935E-04    0.01       8.0  T
  24   -330.3538087  0.161210E-03  0.128E-02    0.01       1.0  T
  25   -330.3539261 -0.117429E-03  0.683E-03    0.01       1.1  T
  26   -330.3539575 -0.314050E-04  0.363E-03    0.01       2.0  T
  27   -330.3539689 -0.113421E-04  0.135E-03    0.01       5.5  T
  28   -330.3539704 -0.154741E-05  0.489E-04    0.01      15.2  T
  29   -330.3539705 -0.136725E-06  0.309E-04    0.01      24.0  T
  30   -330.3539706 -0.526243E-07  0.209E-04    0.01      35.5  T
  31   -330.3539706 -0.247367E-07  0.137E-04    0.01      54.3  T
  32   -330.3539706 -0.322524E-08  0.124E-04    0.01      59.8  T
     SCC iter.                  ...        0 min,  6.569 sec
     gradient                   ...        0 min,  0.902 sec
 * total energy  :  -325.1018552 Eh     change       -0.2904669E+00 Eh
   gradient norm :     0.4497083 Eh/α   predicted    -0.2501938E+00 ( -13.86%)
   displ. norm   :     0.5507425 α      lambda       -0.1981080E+00
   maximum displ.:     0.1263665 α      in ANC's #412, #135, #536, ...

........................................................................
.............................. CYCLE    3 ..............................
........................................................................
   1   -330.4544815 -0.330454E+03  0.286E-01    0.04       0.0  T
   2   -323.7656881  0.668879E+01  0.289E+00    0.06       1.0  T
   3   -318.4795063  0.528618E+01  0.350E+00    0.03       1.0  T
   4   -327.9855959 -0.950609E+01  0.163E+00    0.02       1.0  T
   5   -318.2738269  0.971177E+01  0.348E+00    0.03       1.0  T
   6   -321.2626873 -0.298886E+01  0.307E+00    0.02       1.0  T
   7   -328.8978810 -0.763519E+01  0.130E+00    0.01       1.0  T
   8   -326.8234204  0.207446E+01  0.193E+00    0.03       1.0  T
   9   -328.0424288 -0.121901E+01  0.160E+00    0.03       1.0  T
  10   -325.4148471  0.262758E+01  0.228E+00    0.01       1.0  T
  11   -329.8762729 -0.446143E+01  0.796E-01    0.01       1.0  T
  12   -328.2009945  0.167528E+01  0.154E+00    0.01       1.0  T
  13   -330.4166008 -0.221561E+01  0.316E-01    0.00       1.0  T
  14   -330.2695315  0.147069E+00  0.496E-01    0.01       1.0  T
  15   -330.3247063 -0.551747E-01  0.440E-01    0.01       1.0  T
  16   -330.0690208  0.255685E+00  0.667E-01    0.01       1.0  T
  17   -330.1428333 -0.738124E-01  0.613E-01    0.01       1.0  T
  18   -330.2252926 -0.824593E-01  0.538E-01    0.02       1.0  T
  19   -330.3826688 -0.157376E+00  0.364E-01    0.00       1.0  T
  20   -330.3850302 -0.236136E-02  0.364E-01    0.01       1.0  T
  21   -330.4718968 -0.868666E-01  0.208E-01    0.00       1.0  T
  22   -330.4984975 -0.266007E-01  0.125E-01    0.01       1.0  T
  23   -330.5108623 -0.123649E-01  0.525E-02    0.01       1.0  T
  24   -330.5131068 -0.224452E-02  0.218E-02    0.01       1.0  T
  25   -330.5131514 -0.445733E-04  0.207E-02    0.01       1.0  T
  26   -330.5133922 -0.240771E-03  0.136E-02    0.01       1.0  T
  27   -330.5134777 -0.854800E-04  0.964E-03    0.01       1.0  T
  28   -330.5135614 -0.837550E-04  0.222E-03    0.01       3.4  T
  29   -330.5135460  0.153895E-04  0.445E-03    0.01       1.7  T
  30   -330.5135450  0.106130E-05  0.468E-03    0.01       1.6  T
  31   -330.5135474 -0.243063E-05  0.428E-03    0.01       1.7  T
  32   -330.5135634 -0.159664E-04  0.143E-03    0.01       5.2  T
  33   -330.5135637 -0.344244E-06  0.128E-03    0.01       5.8  T
  34   -330.5135631  0.644030E-06  0.152E-03    0.01       4.9  T
  35   -330.5135650 -0.198681E-05  0.678E-04    0.01      11.0  T
  36   -330.5135654 -0.335291E-06  0.288E-04    0.01      25.8  T
  37   -330.5135654 -0.500073E-07  0.216E-04    0.01      34.4  T
  38   -330.5135654  0.516510E-07  0.305E-04    0.01      24.4  T
  39   -330.5135655 -0.900797E-07  0.374E-05    0.01     198.6  T
  40   -330.5135655 -0.140358E-08  0.683E-06    0.01    1088.1  T
     SCC iter.                  ...        0 min,  8.433 sec
     gradient                   ...        0 min,  0.924 sec
 * total energy  :  -325.2154443 Eh     change       -0.1135891E+00 Eh
   gradient norm :     0.2448916 Eh/α   predicted    -0.1290988E+00 (  13.65%)
   displ. norm   :     0.6562191 α      lambda       -0.9526082E-01
   maximum displ.:     0.1984878 α      in ANC's #113, #205, #135, ...

........................................................................
.............................. CYCLE    4 ..............................
........................................................................
   1   -330.5111885 -0.330511E+03  0.147E-01    0.04       0.0  T
   2   -326.0622951  0.444889E+01  0.240E+00    0.04       1.0  T
   3   -327.9862096 -0.192391E+01  0.164E+00    0.04       1.0  T
   4   -326.7600016  0.122621E+01  0.195E+00    0.04       1.0  T
   5   -318.8167159  0.794329E+01  0.341E+00    0.01       1.0  T
   6   -329.4380971 -0.106214E+02  0.106E+00    0.02       1.0  T
   7   -322.6201800  0.681792E+01  0.281E+00    0.00       1.0  T
   8   -329.8886556 -0.726848E+01  0.800E-01    0.02       1.0  T
   9   -326.0225014  0.386615E+01  0.212E+00    0.03       1.0  T
  10   -330.4061340 -0.438363E+01  0.348E-01    0.01       1.0  T
  11   -330.3174941  0.886399E-01  0.454E-01    0.00       1.0  T
  12   -329.1167614  0.120073E+01  0.121E+00    0.03       1.0  T
  13   -329.9914401 -0.874679E+00  0.749E-01    0.00       1.0  T
  14   -330.2087516 -0.217312E+00  0.578E-01    0.01       1.0  T
  15   -330.4811150 -0.272363E+00  0.216E-01    0.02       1.0  T
  16   -330.1582283  0.322887E+00  0.609E-01    0.00       1.0  T
  17   -330.4461889 -0.287961E+00  0.287E-01    0.02       1.0  T
  18   -330.3154362  0.130753E+00  0.459E-01    0.01       1.0  T
  19   -330.5164466 -0.201010E+00  0.962E-02    0.02       1.0  T
  20   -330.5084600  0.798659E-02  0.131E-01    0.03       1.0  T
  21   -330.5212306 -0.127706E-01  0.665E-02    0.03       1.0  T
  22   -330.5229344 -0.170377E-02  0.536E-02    0.03       1.0  T
  23   -330.5234518 -0.517469E-03  0.480E-02    0.03       1.0  T
  24   -330.5228098  0.641994E-03  0.544E-02    0.03       1.0  T
  25   -330.5249151 -0.210521E-02  0.273E-02    0.03       1.0  T
  26   -330.5252507 -0.335657E-03  0.196E-02    0.03       1.0  T
  27   -330.5255672 -0.316461E-03  0.712E-03    0.03       1.0  T
  28   -330.5254644  0.102728E-03  0.126E-02    0.03       1.0  T
  29   -330.5255878 -0.123331E-03  0.536E-03    0.03       1.4  T
  30   -330.5255779  0.991749E-05  0.628E-03    0.03       1.2  T
  31   -330.5255982 -0.203030E-04  0.424E-03    0.03       1.8  T
  32   -330.5256141 -0.159495E-04  0.112E-03    0.03       6.6  T
  33   -330.5256142 -0.121459E-06  0.106E-03    0.03       7.0  T
  34   -330.5256151 -0.832651E-06  0.510E-04    0.03      14.6  T
  35   -330.5256153 -0.231069E-06  0.124E-04    0.03      60.0  T
  36   -330.5256153 -0.954714E-08  0.774E-05    0.03      96.0  T
     SCC iter.                  ...        0 min,  7.312 sec
     gradient                   ...        0 min,  0.913 sec
 * total energy  :  -325.2901227 Eh     change       -0.7467839E-01 Eh
   gradient norm :     0.1222575 Eh/α   predicted    -0.6814575E-01 (  -8.75%)
   displ. norm   :     0.8129836 α      lambda       -0.7544870E-01
   maximum displ.:     0.2694774 α      in ANC's #113, #135, #60, ...

........................................................................
.............................. CYCLE    5 ..............................
........................................................................
   1   -330.5368116 -0.330537E+03  0.121E-01    0.06       0.0  T
   2   -326.6289975  0.390781E+01  0.231E+00    0.03       1.0  T
   3   -327.5770313 -0.948034E+00  0.176E+00    0.05       1.0  T
   4   -328.6781794 -0.110115E+01  0.139E+00    0.04       1.0  T
   5   -327.8835241  0.794655E+00  0.169E+00    0.01       1.0  T
   6   -329.7599770 -0.187645E+01  0.902E-01    0.00       1.0  T
   7   -328.8830986  0.876878E+00  0.131E+00    0.03       1.0  T
   8   -330.3864872 -0.150339E+01  0.415E-01    0.04       1.0  T
   9   -326.9838772  0.340261E+01  0.192E+00    0.01       1.0  T
  10   -325.2421750  0.174170E+01  0.234E+00    0.01       1.0  T
  11   -329.6918251 -0.444965E+01  0.945E-01    0.00       1.0  T
  12   -329.5352502  0.156575E+00  0.100E+00    0.01       1.0  T
  13   -330.5099616 -0.974711E+00  0.187E-01    0.05       1.0  T
  14   -330.2423145  0.267647E+00  0.559E-01    0.02       1.0  T
  15   -330.5291586 -0.286844E+00  0.130E-01    0.06       1.0  T
  16   -330.5050545  0.241042E-01  0.205E-01    0.05       1.0  T
  17   -330.5040507  0.100377E-02  0.207E-01    0.05       1.0  T
  18   -330.5418763 -0.378256E-01  0.497E-02    0.05       1.0  T
  19   -330.5334077  0.846859E-02  0.107E-01    0.05       1.0  T
  20   -330.5396249 -0.621722E-02  0.704E-02    0.05       1.0  T
  21   -330.5402930 -0.668070E-03  0.662E-02    0.05       1.0  T
  22   -330.5386034  0.168960E-02  0.792E-02    0.05       1.0  T
  23   -330.5389349 -0.331464E-03  0.772E-02    0.05       1.0  T
  24   -330.5402217 -0.128681E-02  0.672E-02    0.06       1.0  T
  25   -330.5427517 -0.253002E-02  0.407E-02    0.06       1.0  T
  26   -330.5436711 -0.919396E-03  0.252E-02    0.06       1.0  T
  27   -330.5440818 -0.410708E-03  0.136E-02    0.06       1.0  T
  28   -330.5441240 -0.421667E-04  0.119E-02    0.06       1.0  T
  29   -330.5441951 -0.711108E-04  0.806E-03    0.06       1.0  T
  30   -330.5441745  0.205569E-04  0.921E-03    0.06       1.0  T
  31   -330.5442528 -0.782244E-04  0.893E-04    0.06       8.3  T
  32   -330.5442495  0.324287E-05  0.202E-03    0.06       3.7  T
  33   -330.5442533 -0.379440E-05  0.320E-04    0.06      23.2  T
  34   -330.5442534 -0.902597E-07  0.116E-04    0.06      63.8  T
  35   -330.5442534  0.525631E-08  0.132E-04    0.06      56.5  T
     SCC iter.                  ...        0 min,  6.696 sec
     gradient                   ...        0 min,  0.813 sec
 * total energy  :  -325.3513112 Eh     change       -0.6118849E-01 Eh
   gradient norm :     0.0853760 Eh/α   predicted    -0.6265842E-01 (   2.40%)
   displ. norm   :     0.8043116 α      lambda       -0.4759477E-01
   maximum displ.:     0.2887796 α      in ANC's #113, #60, #61, ...

........................................................................
.............................. CYCLE    6 ..............................
........................................................................
   1   -330.5573966 -0.330557E+03  0.111E-01    0.06       0.0  T
   2   -317.7570194  0.128004E+02  0.355E+00    0.03       1.0  T
   3   -318.5083370 -0.751318E+00  0.344E+00    0.02       1.0  T
   4   -318.0249075  0.483430E+00  0.355E+00    0.03       1.0  T
   5   -329.3130430 -0.112881E+02  0.113E+00    0.01       1.0  T
   6   -319.1863739  0.101267E+02  0.335E+00    0.01       1.0  T
   7   -327.9250007 -0.873863E+01  0.167E+00    0.05       1.0  T
   8   -325.7355637  0.218944E+01  0.220E+00    0.00       1.0  T
   9   -328.7449126 -0.300935E+01  0.137E+00    0.01       1.0  T
  10   -326.7495999  0.199531E+01  0.195E+00    0.03       1.0  T
  11   -328.6871755 -0.193758E+01  0.140E+00    0.04       1.0  T
  12   -326.9926679  0.169451E+01  0.192E+00    0.01       1.0  T
  13   -330.1378050 -0.314514E+01  0.657E-01    0.03       1.0  T
  14   -330.1974470 -0.596420E-01  0.607E-01    0.03       1.0  T
  15   -330.4196835 -0.222237E+00  0.382E-01    0.04       1.0  T
  16   -330.5418064 -0.122123E+00  0.148E-01    0.07       1.0  T
  17   -330.4685149  0.732915E-01  0.312E-01    0.05       1.0  T
  18   -330.5519642 -0.834493E-01  0.107E-01    0.07       1.0  T
  19   -330.5588051 -0.684089E-02  0.703E-02    0.07       1.0  T
  20   -330.5591457 -0.340619E-03  0.674E-02    0.07       1.0  T
  21   -330.5628954 -0.374970E-02  0.255E-02    0.07       1.0  T
  22   -330.5628772  0.181896E-04  0.277E-02    0.07       1.0  T
  23   -330.5634495 -0.572246E-03  0.126E-02    0.07       1.0  T
  24   -330.5636103 -0.160833E-03  0.237E-03    0.07       3.1  T
  25   -330.5635893  0.209849E-04  0.514E-03    0.07       1.4  T
  26   -330.5636144 -0.250264E-04  0.525E-04    0.07      14.2  T
  27   -330.5636093  0.503235E-05  0.238E-03    0.07       3.1  T
  28   -330.5636119 -0.257467E-05  0.171E-03    0.07       4.3  T
  29   -330.5636126 -0.686986E-06  0.148E-03    0.07       5.0  T
  30   -330.5636117  0.889921E-06  0.177E-03    0.07       4.2  T
  31   -330.5636135 -0.181765E-05  0.108E-03    0.07       6.9  T
  32   -330.5636133  0.225516E-06  0.117E-03    0.07       6.4  T
  33   -330.5636142 -0.945044E-06  0.558E-04    0.07      13.3  T
  34   -330.5636145 -0.262806E-06  0.184E-04    0.07      40.3  T
  35   -330.5636145 -0.486318E-08  0.163E-04    0.07      45.5  T
     SCC iter.                  ...        0 min,  7.609 sec
     gradient                   ...        0 min,  0.928 sec
 * total energy  :  -325.3845076 Eh     change       -0.3319647E-01 Eh
   gradient norm :     0.0736096 Eh/α   predicted    -0.3919276E-01 (  18.06%)
   displ. norm   :     0.6961130 α      lambda       -0.2763276E-01
   maximum displ.:     0.3216636 α      in ANC's #61, #60, #113, ...

........................................................................
.............................. CYCLE    7 ..............................
........................................................................
   1   -330.6080941 -0.330608E+03  0.442E-02    0.08       0.0  T
   2   -326.2309470  0.437715E+01  0.214E+00    0.06       1.0  T
   3   -325.8619250  0.369022E+00  0.221E+00    0.06       1.0  T
   4   -328.5205304 -0.265861E+01  0.153E+00    0.01       1.0  T
   5   -329.7331489 -0.121262E+01  0.954E-01    0.01       1.0  T
   6   -330.4605399 -0.727391E+00  0.395E-01    0.06       1.0  T
   7   -330.3501793  0.110361E+00  0.511E-01    0.04       1.0  T
   8   -330.5589495 -0.208770E+00  0.229E-01    0.08       1.0  T
   9   -330.5792412 -0.202917E-01  0.178E-01    0.07       1.0  T
  10   -330.5802693 -0.102814E-02  0.175E-01    0.07       1.0  T
  11   -330.6014544 -0.211851E-01  0.929E-02    0.07       1.0  T
  12   -330.6026460 -0.119156E-02  0.870E-02    0.07       1.0  T
  13   -330.6063534 -0.370745E-02  0.617E-02    0.07       1.0  T
  14   -330.6066436 -0.290149E-03  0.581E-02    0.07       1.0  T
  15   -330.6017484  0.489513E-02  0.920E-02    0.07       1.0  T
  16   -330.5989535  0.279492E-02  0.105E-01    0.07       1.0  T
  17   -330.6037693 -0.481577E-02  0.782E-02    0.07       1.0  T
  18   -330.6089307 -0.516145E-02  0.296E-02    0.08       1.0  T
  19   -330.6096396 -0.708810E-03  0.128E-02    0.08       1.0  T
  20   -330.6093732  0.266316E-03  0.208E-02    0.08       1.0  T
  21   -330.6093367  0.365157E-04  0.216E-02    0.08       1.0  T
  22   -330.6096237 -0.286991E-03  0.130E-02    0.08       1.0  T
  23   -330.6097521 -0.128370E-03  0.613E-03    0.08       1.2  T
  24   -330.6097816 -0.295624E-04  0.277E-03    0.08       2.7  T
  25   -330.6097880 -0.635974E-05  0.112E-03    0.08       6.7  T
  26   -330.6097892 -0.116530E-05  0.274E-04    0.08      27.1  T
  27   -330.6097892 -0.659683E-07  0.902E-05    0.08      82.4  T
  28   -330.6097892 -0.250668E-08  0.743E-05    0.08     100.0  T
     SCC iter.                  ...        0 min,  6.013 sec
     gradient                   ...        0 min,  0.943 sec
 * total energy  :  -325.4063874 Eh     change       -0.2187979E-01 Eh
   gradient norm :     0.0482783 Eh/α   predicted    -0.2051144E-01 (  -6.25%)
   displ. norm   :     0.8412495 α      lambda       -0.2586737E-01
   maximum displ.:     0.3814422 α      in ANC's #60, #61, #24, ...

........................................................................
.............................. CYCLE    8 ..............................
........................................................................
   1   -330.6609520 -0.330661E+03  0.624E-02    0.09       0.0  T
   2   -318.3668078  0.122941E+02  0.354E+00    0.01       1.0  T
   3   -328.7345401 -0.103677E+02  0.144E+00    0.02       1.0  T
   4   -329.6082404 -0.873700E+00  0.106E+00    0.05       1.0  T
   5   -330.5768723 -0.968632E+00  0.297E-01    0.06       1.0  T
   6   -329.6024719  0.974400E+00  0.106E+00    0.01       1.0  T
   7   -329.7565025 -0.154031E+00  0.969E-01    0.01       1.0  T
   8   -329.8572357 -0.100733E+00  0.894E-01    0.01       1.0  T
   9   -329.7433812  0.113855E+00  0.962E-01    0.02       1.0  T
  10   -328.9082369  0.835144E+00  0.133E+00    0.00       1.0  T
  11   -330.5661405 -0.165790E+01  0.310E-01    0.06       1.0  T
  12   -330.6625851 -0.964446E-01  0.435E-02    0.09       1.0  T
  13   -330.5989881  0.635970E-01  0.262E-01    0.07       1.0  T
  14   -330.5595532  0.394350E-01  0.331E-01    0.07       1.0  T
  15   -330.6294581 -0.699049E-01  0.193E-01    0.08       1.0  T
  16   -330.6465585 -0.171005E-01  0.141E-01    0.08       1.0  T
  17   -330.6435192  0.303937E-02  0.152E-01    0.08       1.0  T
  18   -330.6434124  0.106726E-03  0.153E-01    0.08       1.0  T
  19   -330.6596594 -0.162470E-01  0.735E-02    0.08       1.0  T
  20   -330.6612853 -0.162582E-02  0.588E-02    0.08       1.0  T
  21   -330.6600643  0.122099E-02  0.685E-02    0.08       1.0  T
  22   -330.6594351  0.629204E-03  0.733E-02    0.08       1.0  T
  23   -330.6605736 -0.113854E-02  0.640E-02    0.08       1.0  T
  24   -330.6624631 -0.188954E-02  0.452E-02    0.08       1.0  T
  25   -330.6622960  0.167141E-03  0.467E-02    0.08       1.0  T
  26   -330.6627285 -0.432551E-03  0.419E-02    0.08       1.0  T
  27   -330.6637653 -0.103678E-02  0.268E-02    0.08       1.0  T
  28   -330.6641846 -0.419272E-03  0.170E-02    0.08       1.0  T
  29   -330.6643928 -0.208161E-03  0.855E-03    0.09       1.0  T
  30   -330.6644509 -0.581354E-04  0.334E-03    0.09       2.2  T
  31   -330.6644585 -0.758042E-05  0.166E-03    0.09       4.5  T
  32   -330.6644608 -0.229790E-05  0.556E-04    0.09      13.4  T
  33   -330.6644610 -0.259580E-06  0.158E-04    0.09      47.2  T
  34   -330.6644611 -0.168519E-07  0.745E-05    0.09      99.7  T
     SCC iter.                  ...        0 min,  7.226 sec
     gradient                   ...        0 min,  0.921 sec
 * total energy  :  -325.4212219 Eh     change       -0.1483449E-01 Eh
   gradient norm :     0.0532019 Eh/α   predicted    -0.2208689E-01 (  48.89%)
   displ. norm   :     0.7835317 α      lambda       -0.2199479E-01
   maximum displ.:     0.3476988 α      in ANC's #61, #60, #32, ...

........................................................................
.............................. CYCLE    9 ..............................
........................................................................
   1   -330.7045397 -0.330705E+03  0.105E-01    0.07       0.0  T
   2   -314.0721046  0.166324E+02  0.407E+00    0.04       1.0  T
   3   -319.1189646 -0.504686E+01  0.338E+00    0.00       1.0  T
   4   -322.6801284 -0.356116E+01  0.284E+00    0.00       1.0  T
   5   -329.5728803 -0.689275E+01  0.108E+00    0.02       1.0  T
   6   -319.0867710  0.104861E+02  0.338E+00    0.01       1.0  T
   7   -321.1516370 -0.206487E+01  0.307E+00    0.01       1.0  T
   8   -327.9914724 -0.683984E+01  0.165E+00    0.02       1.0  T
   9   -330.2800715 -0.228860E+01  0.657E-01    0.04       1.0  T
  10   -328.7964287  0.148364E+01  0.140E+00    0.01       1.0  T
  11   -330.2466416 -0.145021E+01  0.703E-01    0.04       1.0  T
  12   -330.6397828 -0.393141E+00  0.270E-01    0.08       1.0  T
  13   -330.7061161 -0.663333E-01  0.791E-02    0.09       1.0  T
  14   -330.6549953  0.511208E-01  0.248E-01    0.08       1.0  T
  15   -330.6704556 -0.154603E-01  0.205E-01    0.08       1.0  T
  16   -330.7065130 -0.360574E-01  0.817E-02    0.09       1.0  T
  17   -330.7076405 -0.112758E-02  0.724E-02    0.09       1.0  T
  18   -330.7111892 -0.354865E-02  0.414E-02    0.09       1.0  T
  19   -330.7117024 -0.513228E-03  0.343E-02    0.09       1.0  T
  20   -330.7114257  0.276684E-03  0.386E-02    0.09       1.0  T
  21   -330.7118782 -0.452495E-03  0.318E-02    0.09       1.0  T
  22   -330.7118892 -0.110032E-04  0.314E-02    0.09       1.0  T
  23   -330.7119002 -0.109856E-04  0.312E-02    0.09       1.0  T
  24   -330.7122435 -0.343280E-03  0.245E-02    0.09       1.0  T
  25   -330.7124180 -0.174493E-03  0.203E-02    0.09       1.0  T
  26   -330.7125655 -0.147482E-03  0.158E-02    0.09       1.0  T
  27   -330.7127379 -0.172452E-03  0.811E-03    0.09       1.0  T
  28   -330.7127741 -0.361781E-04  0.519E-03    0.09       1.4  T
  29   -330.7127857 -0.115640E-04  0.382E-03    0.09       1.9  T
  30   -330.7127962 -0.105588E-04  0.191E-03    0.09       3.9  T
  31   -330.7127994 -0.315897E-05  0.612E-04    0.09      12.1  T
  32   -330.7127997 -0.331287E-06  0.199E-04    0.09      37.4  T
  33   -330.7127997 -0.349288E-07  0.667E-05    0.09     111.4  T
     SCC iter.                  ...        0 min,  6.520 sec
     gradient                   ...        0 min,  0.838 sec
 * total energy  :  -325.4340192 Eh     change       -0.1279729E-01 Eh
   gradient norm :     0.0651563 Eh/α   predicted    -0.1774895E-01 (  38.69%)
   displ. norm   :     0.6866510 α      lambda       -0.1791462E-01
   maximum displ.:     0.3077917 α      in ANC's #61, #60, #24, ...

........................................................................
.............................. CYCLE   10 ..............................
........................................................................
   1   -330.7372586 -0.330737E+03  0.891E-02    0.08       0.0  T
   2   -317.1476966  0.135896E+02  0.369E+00    0.01       1.0  T
   3   -326.9950592 -0.984736E+01  0.198E+00    0.02       1.0  T
   4   -318.6743407  0.832072E+01  0.345E+00    0.00       1.0  T
   5   -329.5378863 -0.108635E+02  0.110E+00    0.02       1.0  T
   6   -319.2987063  0.102392E+02  0.335E+00    0.02       1.0  T
   7   -325.1008510 -0.580214E+01  0.236E+00    0.02       1.0  T
   8   -330.3491126 -0.524826E+01  0.640E-01    0.04       1.0  T
   9   -330.0526243  0.296488E+00  0.838E-01    0.03       1.0  T
  10   -329.8517801  0.200844E+00  0.966E-01    0.02       1.0  T
  11   -329.7982242  0.535560E-01  0.990E-01    0.02       1.0  T
  12   -329.8781736 -0.799494E-01  0.948E-01    0.02       1.0  T
  13   -330.6452430 -0.767069E+00  0.317E-01    0.07       1.0  T
  14   -330.7041597 -0.589167E-01  0.209E-01    0.07       1.0  T
  15   -330.7359462 -0.317865E-01  0.837E-02    0.09       1.0  T
  16   -330.7247644  0.111818E-01  0.139E-01    0.08       1.0  T
  17   -330.7364101 -0.116458E-01  0.795E-02    0.09       1.0  T
  18   -330.7386326 -0.222248E-02  0.640E-02    0.09       1.0  T
  19   -330.7181909  0.204417E-01  0.159E-01    0.09       1.0  T
  20   -330.7355768 -0.173859E-01  0.863E-02    0.09       1.0  T
  21   -330.7384336 -0.285673E-02  0.680E-02    0.09       1.0  T
  22   -330.7386068 -0.173187E-03  0.656E-02    0.09       1.0  T
  23   -330.7412663 -0.265954E-02  0.390E-02    0.09       1.0  T
  24   -330.7423057 -0.103939E-02  0.195E-02    0.09       1.0  T
  25   -330.7425436 -0.237901E-03  0.108E-02    0.09       1.0  T
  26   -330.7426433 -0.997292E-04  0.243E-03    0.09       3.1  T
  27   -330.7426465 -0.321573E-05  0.101E-03    0.09       7.3  T
  28   -330.7426448  0.175821E-05  0.157E-03    0.09       4.7  T
  29   -330.7426472 -0.240472E-05  0.404E-04    0.09      18.4  T
  30   -330.7426473 -0.117468E-06  0.239E-04    0.09      31.0  T
  31   -330.7426471  0.236772E-06  0.582E-04    0.09      12.8  T
  32   -330.7426471 -0.532297E-07  0.517E-04    0.09      14.4  T
  33   -330.7426473 -0.162606E-06  0.249E-04    0.09      29.9  T
  34   -330.7426473 -0.218235E-07  0.176E-04    0.09      42.2  T
  35   -330.7426473 -0.170941E-07  0.106E-04    0.09      70.1  T
     SCC iter.                  ...        0 min,  6.540 sec
     gradient                   ...        0 min,  0.950 sec
 * total energy  :  -325.4448051 Eh     change       -0.1078593E-01 Eh
   gradient norm :     0.0586693 Eh/α   predicted    -0.1318059E-01 (  22.20%)
   displ. norm   :     0.7085157 α      lambda       -0.1323798E-01
   maximum displ.:     0.2918708 α      in ANC's #60, #24, #21, ...

........................................................................
.............................. CYCLE   11 ..............................
........................................................................
   1   -330.7855157 -0.330786E+03  0.416E-02    0.10       0.0  T
   2   -319.1279739  0.116575E+02  0.344E+00    0.03       1.0  T
   3   -328.6790642 -0.955109E+01  0.150E+00    0.01       1.0  T
   4   -330.1407955 -0.146173E+01  0.824E-01    0.03       1.0  T
   5   -330.5894951 -0.448700E+00  0.456E-01    0.07       1.0  T
   6   -330.4680270  0.121468E+00  0.581E-01    0.06       1.0  T
   7   -330.7459790 -0.277952E+00  0.208E-01    0.10       1.0  T
   8   -330.6575896  0.883894E-01  0.361E-01    0.08       1.0  T
   9   -330.6962859 -0.386962E-01  0.306E-01    0.08       1.0  T
  10   -330.7737780 -0.774921E-01  0.117E-01    0.10       1.0  T
  11   -330.7810868 -0.730882E-02  0.757E-02    0.09       1.0  T
  12   -330.7834662 -0.237942E-02  0.600E-02    0.09       1.0  T
  13   -330.7846146 -0.114834E-02  0.490E-02    0.09       1.0  T
  14   -330.7857895 -0.117492E-02  0.334E-02    0.10       1.0  T
  15   -330.7850329  0.756554E-03  0.433E-02    0.09       1.0  T
  16   -330.7867563 -0.172340E-02  0.109E-02    0.09       1.0  T
  17   -330.7868212 -0.648468E-04  0.730E-03    0.09       1.0  T
  18   -330.7867998  0.213740E-04  0.849E-03    0.10       1.0  T
  19   -330.7868264 -0.266187E-04  0.649E-03    0.10       1.1  T
  20   -330.7868373 -0.108324E-04  0.550E-03    0.10       1.4  T
  21   -330.7868497 -0.124409E-04  0.396E-03    0.10       1.9  T
  22   -330.7868569 -0.721220E-05  0.259E-03    0.10       2.9  T
  23   -330.7868610 -0.405253E-05  0.135E-03    0.10       5.5  T
  24   -330.7868622 -0.123808E-05  0.629E-04    0.10      11.8  T
  25   -330.7868622 -0.349534E-07  0.578E-04    0.10      12.9  T
  26   -330.7868624 -0.183729E-06  0.366E-04    0.10      20.3  T
  27   -330.7868625 -0.954086E-07  0.181E-04    0.10      41.1  T
  28   -330.7868625 -0.201960E-07  0.107E-04    0.10      69.4  T
     SCC iter.                  ...        0 min,  5.790 sec
     gradient                   ...        0 min,  0.731 sec
 * total energy  :  -325.4545718 Eh     change       -0.9766658E-02 Eh
   gradient norm :     0.0325012 Eh/α   predicted    -0.9941689E-02 (   1.79%)
   displ. norm   :     0.8355791 α      lambda       -0.1474845E-01
   maximum displ.:     0.2991169 α      in ANC's #24, #17, #32, ...

........................................................................
.............................. CYCLE   12 ..............................
........................................................................
   1   -330.8231512 -0.330823E+03  0.510E-02    0.10       0.0  T
   2   -318.9658347  0.118573E+02  0.347E+00    0.02       1.0  T
   3   -326.5343878 -0.756855E+01  0.210E+00    0.01       1.0  T
   4   -330.3771743 -0.384279E+01  0.717E-01    0.03       1.0  T
   5   -330.4010696 -0.238953E-01  0.663E-01    0.05       1.0  T
   6   -328.5128282  0.188824E+01  0.155E+00    0.02       1.0  T
   7   -330.5933096 -0.208048E+01  0.487E-01    0.07       1.0  T
   8   -329.9414438  0.651866E+00  0.961E-01    0.02       1.0  T
   9   -329.9347943  0.664953E-02  0.960E-01    0.03       1.0  T
  10   -330.6488854 -0.714091E+00  0.433E-01    0.08       1.0  T
  11   -330.6144025  0.344829E-01  0.461E-01    0.07       1.0  T
  12   -330.7502190 -0.135816E+00  0.281E-01    0.08       1.0  T
  13   -330.8112675 -0.610486E-01  0.121E-01    0.09       1.0  T
  14   -330.8029198  0.834771E-02  0.154E-01    0.09       1.0  T
  15   -330.8195469 -0.166271E-01  0.782E-02    0.09       1.0  T
  16   -330.8235140 -0.396714E-02  0.435E-02    0.09       1.0  T
  17   -330.8240473 -0.533299E-03  0.361E-02    0.09       1.0  T
  18   -330.8247345 -0.687155E-03  0.218E-02    0.09       1.0  T
  19   -330.8249077 -0.173175E-03  0.143E-02    0.09       1.0  T
  20   -330.8246503  0.257375E-03  0.203E-02    0.09       1.0  T
  21   -330.8245235  0.126743E-03  0.233E-02    0.09       1.0  T
  22   -330.8244570  0.665014E-04  0.248E-02    0.09       1.0  T
  23   -330.8244683 -0.112987E-04  0.245E-02    0.09       1.0  T
  24   -330.8245631 -0.947453E-04  0.219E-02    0.09       1.0  T
  25   -330.8248698 -0.306677E-03  0.115E-02    0.10       1.0  T
  26   -330.8249747 -0.104895E-03  0.503E-03    0.10       1.5  T
  27   -330.8249842 -0.951013E-05  0.404E-03    0.10       1.8  T
  28   -330.8249823  0.190497E-05  0.429E-03    0.10       1.7  T
  29   -330.8249816  0.679887E-06  0.436E-03    0.10       1.7  T
  30   -330.8249861 -0.447991E-05  0.374E-03    0.10       2.0  T
  31   -330.8249932 -0.717151E-05  0.248E-03    0.10       3.0  T
  32   -330.8249981 -0.484446E-05  0.988E-04    0.10       7.5  T
  33   -330.8249988 -0.732253E-06  0.444E-04    0.10      16.7  T
  34   -330.8249990 -0.152356E-06  0.183E-04    0.10      40.6  T
  35   -330.8249990 -0.278135E-07  0.518E-05    0.10     143.6  T
     SCC iter.                  ...        0 min,  7.998 sec
     gradient                   ...        0 min,  0.934 sec
 * total energy  :  -325.4587035 Eh     change       -0.4131724E-02 Eh
   gradient norm :     0.0637366 Eh/α   predicted    -0.1252286E-01 ( 203.09%)
   displ. norm   :     0.5742568 α      lambda       -0.1405724E-01
   maximum displ.:     0.2614194 α      in ANC's #24, #21, #32, ...

........................................................................
.............................. CYCLE   13 ..............................
........................................................................
   1   -330.8492301 -0.330849E+03  0.583E-02    0.08       0.0  T
   2   -329.9476954  0.901535E+00  0.992E-01    0.05       1.0  T
   3   -326.8009462  0.314675E+01  0.206E+00    0.01       1.0  T
   4   -320.2384481  0.656250E+01  0.324E+00    0.04       1.0  T
   5   -330.8301601 -0.105917E+02  0.152E-01    0.09       1.0  T
   6   -330.8480626 -0.179025E-01  0.666E-02    0.08       1.0  T
   7   -330.6784183  0.169644E+00  0.416E-01    0.07       1.0  T
   8   -330.7745804 -0.961621E-01  0.280E-01    0.06       1.0  T
   9   -330.8403536 -0.657732E-01  0.114E-01    0.11       1.0  T
  10   -330.8406715 -0.317832E-03  0.105E-01    0.10       1.0  T
  11   -330.8500863 -0.941479E-02  0.369E-02    0.09       1.0  T
  12   -330.8510343 -0.948057E-03  0.196E-02    0.10       1.0  T
  13   -330.8497967  0.123766E-02  0.414E-02    0.10       1.0  T
  14   -330.8513821 -0.158547E-02  0.639E-03    0.10       1.2  T
  15   -330.8512811  0.101059E-03  0.124E-02    0.10       1.0  T
  16   -330.8512960 -0.149504E-04  0.115E-02    0.10       1.0  T
  17   -330.8513285 -0.324704E-04  0.996E-03    0.09       1.0  T
  18   -330.8513083  0.202020E-04  0.109E-02    0.09       1.0  T
  19   -330.8513368 -0.285052E-04  0.940E-03    0.09       1.0  T
  20   -330.8513719 -0.351357E-04  0.711E-03    0.09       1.0  T
  21   -330.8513925 -0.206156E-04  0.533E-03    0.09       1.4  T
  22   -330.8514039 -0.113650E-04  0.400E-03    0.09       1.9  T
  23   -330.8514133 -0.944252E-05  0.238E-03    0.09       3.1  T
  24   -330.8514181 -0.471336E-05  0.645E-04    0.09      11.5  T
  25   -330.8514183 -0.268040E-06  0.321E-04    0.09      23.1  T
  26   -330.8514183  0.471142E-07  0.390E-04    0.09      19.1  T
  27   -330.8514184 -0.740786E-07  0.266E-04    0.09      27.9  T
  28   -330.8514184 -0.612042E-07  0.691E-05    0.09     107.6  T
  29   -330.8514184 -0.407334E-08  0.197E-05    0.09     376.9  T
     SCC iter.                  ...        0 min,  5.450 sec
     gradient                   ...        0 min,  0.918 sec
 * total energy  :  -325.4686512 Eh     change       -0.9947654E-02 Eh
   gradient norm :     0.0233713 Eh/α   predicted    -0.9346459E-02 (  -6.04%)
   displ. norm   :     0.7856437 α      lambda       -0.8061416E-02
   maximum displ.:     0.3985662 α      in ANC's #24, #21, #32, ...

........................................................................
.............................. CYCLE   14 ..............................
........................................................................
   1   -330.8766587 -0.330877E+03  0.292E-02    0.09       0.0  T
   2   -330.7591804  0.117478E+00  0.376E-01    0.12       1.0  T
   3   -326.7407100  0.401847E+01  0.204E+00    0.00       1.0  T
   4   -330.8744262 -0.413372E+01  0.531E-02    0.09       1.0  T
   5   -329.4107309  0.146370E+01  0.124E+00    0.00       1.0  T
   6   -330.8367898 -0.142606E+01  0.200E-01    0.09       1.0  T
   7   -330.8066347  0.301551E-01  0.271E-01    0.06       1.0  T
   8   -330.8639469 -0.573122E-01  0.119E-01    0.10       1.0  T
   9   -330.8533848  0.105621E-01  0.158E-01    0.09       1.0  T
  10   -330.8711772 -0.177924E-01  0.804E-02    0.10       1.0  T
  11   -330.8768367 -0.565950E-02  0.203E-02    0.09       1.0  T
  12   -330.8768884 -0.517384E-04  0.193E-02    0.09       1.0  T
  13   -330.8769560 -0.675991E-04  0.176E-02    0.09       1.0  T
  14   -330.8771486 -0.192552E-03  0.806E-03    0.09       1.0  T
  15   -330.8771411  0.745203E-05  0.838E-03    0.09       1.0  T
  16   -330.8771420 -0.853534E-06  0.832E-03    0.09       1.0  T
  17   -330.8771965 -0.545608E-04  0.412E-03    0.09       1.8  T
  18   -330.8772053 -0.877725E-05  0.251E-03    0.09       3.0  T
  19   -330.8772092 -0.390962E-05  0.116E-03    0.09       6.4  T
  20   -330.8772092  0.175763E-07  0.111E-03    0.09       6.7  T
  21   -330.8772090  0.165168E-06  0.117E-03    0.09       6.4  T
  22   -330.8772094 -0.391336E-06  0.975E-04    0.09       7.6  T
  23   -330.8772096 -0.164039E-06  0.883E-04    0.09       8.4  T
  24   -330.8772098 -0.241606E-06  0.724E-04    0.09      10.3  T
  25   -330.8772102 -0.344030E-06  0.400E-04    0.09      18.6  T
  26   -330.8772103 -0.770002E-07  0.274E-04    0.09      27.2  T
  27   -330.8772103 -0.191668E-07  0.231E-04    0.09      32.1  T
  28   -330.8772103 -0.299958E-07  0.145E-04    0.09      51.4  T
  29   -330.8772103 -0.137458E-07  0.770E-05    0.09      96.6  T
     SCC iter.                  ...        0 min,  5.778 sec
     gradient                   ...        0 min,  0.872 sec
 * total energy  :  -325.4753685 Eh     change       -0.6717380E-02 Eh
   gradient norm :     0.0185690 Eh/α   predicted    -0.6518611E-02 (  -2.96%)
   displ. norm   :     0.8595860 α      lambda       -0.7618095E-02
   maximum displ.:     0.4398405 α      in ANC's #24, #21, #32, ...

........................................................................
.............................. CYCLE   15 ..............................
........................................................................
   1   -330.9026958 -0.330903E+03  0.349E-02    0.08       0.0  T
   2   -327.2564659  0.364623E+01  0.196E+00    0.01       1.0  T
   3   -329.3510959 -0.209463E+01  0.126E+00    0.01       1.0  T
   4   -330.2499283 -0.898832E+00  0.838E-01    0.05       1.0  T
   5   -330.8304446 -0.580516E+00  0.277E-01    0.06       1.0  T
   6   -330.5416032  0.288841E+00  0.608E-01    0.05       1.0  T
   7   -330.8481731 -0.306570E+00  0.247E-01    0.10       1.0  T
   8   -330.8112128  0.369603E-01  0.304E-01    0.06       1.0  T
   9   -330.8725008 -0.612880E-01  0.180E-01    0.08       1.0  T
  10   -330.8983824 -0.258816E-01  0.732E-02    0.08       1.0  T
  11   -330.9026748 -0.429235E-02  0.332E-02    0.09       1.0  T
  12   -330.9018587  0.816039E-03  0.437E-02    0.09       1.0  T
  13   -330.9033772 -0.151842E-02  0.190E-02    0.09       1.0  T
  14   -330.9035330 -0.155885E-03  0.141E-02    0.09       1.0  T
  15   -330.9036663 -0.133219E-03  0.800E-03    0.09       1.0  T
  16   -330.9037020 -0.357555E-04  0.532E-03    0.09       1.4  T
  17   -330.9037173 -0.152548E-04  0.358E-03    0.09       2.1  T
  18   -330.9037205 -0.318058E-05  0.306E-03    0.09       2.4  T
  19   -330.9037201  0.361137E-06  0.308E-03    0.09       2.4  T
  20   -330.9037239 -0.383277E-05  0.228E-03    0.09       3.3  T
  21   -330.9037278 -0.384158E-05  0.982E-04    0.09       7.6  T
  22   -330.9037286 -0.854525E-06  0.196E-04    0.09      37.9  T
  23   -330.9037286  0.598181E-07  0.316E-04    0.09      23.5  T
  24   -330.9037286  0.555360E-08  0.322E-04    0.09      23.1  T
  25   -330.9037286 -0.192916E-07  0.287E-04    0.09      25.9  T
  26   -330.9037286 -0.238090E-07  0.238E-04    0.09      31.2  T
  27   -330.9037286 -0.324955E-07  0.149E-04    0.09      49.9  T
     SCC iter.                  ...        0 min,  4.193 sec
     gradient                   ...        0 min,  0.747 sec
 * total energy  :  -325.4815264 Eh     change       -0.6157871E-02 Eh
   gradient norm :     0.0210632 Eh/α   predicted    -0.6623510E-02 (   7.56%)
   displ. norm   :     0.8388634 α      lambda       -0.7244910E-02
   maximum displ.:     0.4535458 α      in ANC's #24, #21, #32, ...

........................................................................
.............................. CYCLE   16 ..............................
........................................................................
   1   -330.9250795 -0.330925E+03  0.370E-02    0.08       0.0  T
   2   -327.8468276  0.307825E+01  0.181E+00    0.01       1.0  T
   3   -329.8962613 -0.204943E+01  0.102E+00    0.02       1.0  T
   4   -330.9092318 -0.101297E+01  0.149E-01    0.12       1.0  T
   5   -330.8648561  0.443757E-01  0.260E-01    0.06       1.0  T
   6   -330.6957394  0.169117E+00  0.479E-01    0.04       1.0  T
   7   -330.9049258 -0.209186E+00  0.154E-01    0.10       1.0  T
   8   -330.9041077  0.818084E-03  0.149E-01    0.08       1.0  T
   9   -330.9195329 -0.154252E-01  0.852E-02    0.09       1.0  T
  10   -330.9257911 -0.625814E-02  0.262E-02    0.09       1.0  T
  11   -330.9237559  0.203516E-02  0.522E-02    0.08       1.0  T
  12   -330.9247808 -0.102492E-02  0.402E-02    0.08       1.0  T
  13   -330.9259786 -0.119774E-02  0.203E-02    0.09       1.0  T
  14   -330.9262733 -0.294772E-03  0.108E-02    0.09       1.0  T
  15   -330.9263239 -0.505359E-04  0.804E-03    0.09       1.0  T
  16   -330.9263547 -0.308672E-04  0.564E-03    0.09       1.3  T
  17   -330.9263828 -0.280894E-04  0.148E-03    0.09       5.0  T
  18   -330.9263806  0.218050E-05  0.208E-03    0.09       3.6  T
  19   -330.9263820 -0.138307E-05  0.171E-03    0.09       4.4  T
  20   -330.9263841 -0.203325E-05  0.881E-04    0.09       8.4  T
  21   -330.9263847 -0.651523E-06  0.307E-04    0.09      24.2  T
  22   -330.9263847 -0.167244E-07  0.275E-04    0.09      27.1  T
  23   -330.9263847 -0.162810E-07  0.240E-04    0.09      31.0  T
  24   -330.9263848 -0.203991E-07  0.190E-04    0.09      39.0  T
  25   -330.9263848 -0.960262E-08  0.161E-04    0.09      46.3  T
     SCC iter.                  ...        0 min,  4.033 sec
     gradient                   ...        0 min,  0.753 sec
 * total energy  :  -325.4872785 Eh     change       -0.5752117E-02 Eh
   gradient norm :     0.0169423 Eh/α   predicted    -0.6171552E-02 (   7.29%)
   displ. norm   :     0.8388720 α      lambda       -0.6729560E-02
   maximum displ.:     0.4598444 α      in ANC's #24, #21, #32, ...

........................................................................
.............................. CYCLE   17 ..............................
........................................................................
   1   -330.9436339 -0.330944E+03  0.504E-02    0.08       0.0  T
   2   -327.7196081  0.322403E+01  0.186E+00    0.01       1.0  T
   3   -329.7517959 -0.203219E+01  0.110E+00    0.01       1.0  T
   4   -330.9252710 -0.117348E+01  0.164E-01    0.12       1.0  T
   5   -330.9073734  0.178976E-01  0.209E-01    0.05       1.0  T
   6   -330.7391092  0.168264E+00  0.456E-01    0.05       1.0  T
   7   -330.9353652 -0.196256E+00  0.113E-01    0.10       1.0  T
   8   -330.9306677  0.469757E-02  0.124E-01    0.07       1.0  T
   9   -330.9382334 -0.756577E-02  0.895E-02    0.08       1.0  T
  10   -330.9446615 -0.642808E-02  0.385E-02    0.09       1.0  T
  11   -330.9437402  0.921303E-03  0.487E-02    0.08       1.0  T
  12   -330.9449464 -0.120622E-02  0.330E-02    0.08       1.0  T
  13   -330.9455580 -0.611615E-03  0.219E-02    0.08       1.0  T
  14   -330.9458916 -0.333553E-03  0.117E-02    0.08       1.0  T
  15   -330.9459648 -0.732326E-04  0.786E-03    0.08       1.0  T
  16   -330.9459888 -0.239581E-04  0.603E-03    0.08       1.2  T
  17   -330.9460202 -0.314181E-04  0.181E-03    0.08       4.1  T
  18   -330.9460153  0.485410E-05  0.287E-03    0.08       2.6  T
  19   -330.9460183 -0.298915E-05  0.227E-03    0.08       3.3  T
  20   -330.9460220 -0.365210E-05  0.113E-03    0.08       6.6  T
  21   -330.9460226 -0.642550E-06  0.779E-04    0.08       9.5  T
  22   -330.9460227 -0.936560E-07  0.706E-04    0.08      10.5  T
  23   -330.9460231 -0.339201E-06  0.376E-04    0.08      19.8  T
  24   -330.9460232 -0.117771E-06  0.142E-04    0.08      52.3  T
  25   -330.9460232 -0.180135E-07  0.225E-05    0.08     329.6  T
     SCC iter.                  ...        0 min,  3.950 sec
     gradient                   ...        0 min,  0.760 sec
 * total energy  :  -325.4924613 Eh     change       -0.5182796E-02 Eh
   gradient norm :     0.0244033 Eh/α   predicted    -0.5732605E-02 (  10.61%)
   displ. norm   :     0.8314880 α      lambda       -0.5794387E-02
   maximum displ.:     0.4619685 α      in ANC's #24, #21, #32, ...

........................................................................
.............................. CYCLE   18 ..............................
........................................................................
   1   -330.9603823 -0.330960E+03  0.378E-02    0.07       0.0  T
   2   -324.6804178  0.627996E+01  0.253E+00    0.01       1.0  T
   3   -320.4218921  0.425853E+01  0.323E+00    0.03       1.0  T
   4   -330.8300449 -0.104082E+02  0.384E-01    0.10       1.0  T
   5   -330.6339181  0.196127E+00  0.620E-01    0.02       1.0  T
   6   -328.6955056  0.193841E+01  0.152E+00    0.01       1.0  T
   7   -330.6636561 -0.196815E+01  0.561E-01    0.07       1.0  T
   8   -330.6618725  0.178361E-02  0.553E-01    0.03       1.0  T
   9   -330.9038370 -0.241964E+00  0.242E-01    0.08       1.0  T
  10   -330.9594917 -0.556547E-01  0.463E-02    0.08       1.0  T
  11   -330.9504259  0.906572E-02  0.108E-01    0.08       1.0  T
  12   -330.9612793 -0.108533E-01  0.200E-02    0.08       1.0  T
  13   -330.9604312  0.848107E-03  0.352E-02    0.08       1.0  T
  14   -330.9610469 -0.615756E-03  0.254E-02    0.08       1.0  T
  15   -330.9609428  0.104134E-03  0.275E-02    0.08       1.0  T
  16   -330.9612727 -0.329885E-03  0.210E-02    0.08       1.0  T
  17   -330.9614489 -0.176270E-03  0.162E-02    0.08       1.0  T
  18   -330.9614003  0.486467E-04  0.175E-02    0.08       1.0  T
  19   -330.9615212 -0.120952E-03  0.133E-02    0.08       1.0  T
  20   -330.9615479 -0.266208E-04  0.121E-02    0.08       1.0  T
  21   -330.9615680 -0.201518E-04  0.111E-02    0.08       1.0  T
  22   -330.9616161 -0.480764E-04  0.847E-03    0.08       1.0  T
  23   -330.9616584 -0.422747E-04  0.511E-03    0.08       1.5  T
  24   -330.9616704 -0.119918E-04  0.363E-03    0.08       2.0  T
  25   -330.9616784 -0.807113E-05  0.214E-03    0.08       3.5  T
  26   -330.9616823 -0.385933E-05  0.677E-04    0.08      11.0  T
  27   -330.9616827 -0.393526E-06  0.198E-04    0.08      37.6  T
  28   -330.9616827 -0.291687E-07  0.883E-05    0.08      84.2  T
     SCC iter.                  ...        0 min,  4.430 sec
     gradient                   ...        0 min,  0.748 sec
 * total energy  :  -325.4975246 Eh     change       -0.5063297E-02 Eh
   gradient norm :     0.0208121 Eh/α   predicted    -0.4900240E-02 (  -3.22%)
   displ. norm   :     0.8668069 α      lambda       -0.5273330E-02
   maximum displ.:     0.4986725 α      in ANC's #24, #21, #32, ...

........................................................................
.............................. CYCLE   19 ..............................
........................................................................
   1   -330.9678169 -0.330968E+03  0.304E-02    0.07       0.0  T
   2   -328.1343526  0.283346E+01  0.174E+00    0.01       1.0  T
   3   -330.6110588 -0.247671E+01  0.634E-01    0.07       1.0  T
   4   -328.9948288  0.161623E+01  0.143E+00    0.01       1.0  T
   5   -330.9627273 -0.196790E+01  0.777E-02    0.07       1.0  T
   6   -330.9502099  0.125174E-01  0.137E-01    0.07       1.0  T
   7   -330.9625985 -0.123886E-01  0.780E-02    0.08       1.0  T
   8   -330.9673836 -0.478509E-02  0.354E-02    0.07       1.0  T
   9   -330.9684980 -0.111443E-02  0.779E-03    0.08       1.0  T
  10   -330.9671846  0.131346E-02  0.376E-02    0.07       1.0  T
  11   -330.9684912 -0.130662E-02  0.704E-03    0.07       1.1  T
  12   -330.9684156  0.756528E-04  0.115E-02    0.07       1.0  T
  13   -330.9685365 -0.120897E-03  0.279E-03    0.07       2.7  T
  14   -330.9685334  0.306958E-05  0.332E-03    0.07       2.2  T
  15   -330.9685397 -0.627817E-05  0.206E-03    0.07       3.6  T
  16   -330.9685424 -0.274767E-05  0.110E-03    0.07       6.7  T
  17   -330.9685429 -0.464272E-06  0.810E-04    0.07       9.2  T
  18   -330.9685432 -0.303547E-06  0.575E-04    0.07      12.9  T
  19   -330.9685434 -0.213790E-06  0.320E-04    0.07      23.2  T
  20   -330.9685435 -0.723413E-07  0.161E-04    0.07      46.2  T
  21   -330.9685435 -0.173736E-07  0.918E-05    0.07      81.0  T
     SCC iter.                  ...        0 min,  3.818 sec
     gradient                   ...        0 min,  0.925 sec
 * total energy  :  -325.5018929 Eh     change       -0.4368267E-02 Eh
   gradient norm :     0.0285544 Eh/α   predicted    -0.4617737E-02 (   5.71%)
   displ. norm   :     0.8612408 α      lambda       -0.5428052E-02
   maximum displ.:     0.4670895 α      in ANC's #24, #32, #21, ...

........................................................................
.............................. CYCLE   20 ..............................
........................................................................
   1   -330.9881197 -0.330988E+03  0.206E-02    0.07       0.0  T
   2   -327.1140136  0.387411E+01  0.199E+00    0.00       1.0  T
   3   -330.9171322 -0.380312E+01  0.298E-01    0.13       1.0  T
   4   -330.4015908  0.515541E+00  0.773E-01    0.02       1.0  T
   5   -330.9236145 -0.522024E+00  0.258E-01    0.05       1.0  T
   6   -329.9919159  0.931699E+00  0.998E-01    0.02       1.0  T
   7   -330.9347651 -0.942849E+00  0.242E-01    0.09       1.0  T
   8   -330.9484190 -0.136539E-01  0.203E-01    0.07       1.0  T
   9   -330.9742293 -0.258103E-01  0.117E-01    0.07       1.0  T
  10   -330.9834285 -0.919915E-02  0.730E-02    0.06       1.0  T
  11   -330.9758640  0.756445E-02  0.113E-01    0.06       1.0  T
  12   -330.9811454 -0.528133E-02  0.861E-02    0.06       1.0  T
  13   -330.9838614 -0.271601E-02  0.682E-02    0.07       1.0  T
  14   -330.9871418 -0.328040E-02  0.362E-02    0.07       1.0  T
  15   -330.9879526 -0.810779E-03  0.223E-02    0.07       1.0  T
  16   -330.9883692 -0.416605E-03  0.843E-03    0.07       1.0  T
  17   -330.9884198 -0.505820E-04  0.453E-03    0.07       1.6  T
  18   -330.9884348 -0.150840E-04  0.214E-03    0.07       3.5  T
  19   -330.9884337  0.112139E-05  0.240E-03    0.07       3.1  T
  20   -330.9884369 -0.323071E-05  0.149E-03    0.07       5.0  T
  21   -330.9884375 -0.573387E-06  0.125E-03    0.07       5.9  T
  22   -330.9884377 -0.200666E-06  0.115E-03    0.07       6.4  T
  23   -330.9884380 -0.302309E-06  0.997E-04    0.07       7.5  T
  24   -330.9884385 -0.508245E-06  0.647E-04    0.07      11.5  T
  25   -330.9884389 -0.345672E-06  0.183E-04    0.07      40.6  T
  26   -330.9884389  0.113158E-08  0.179E-04    0.07      41.6  T
     SCC iter.                  ...        0 min,  4.719 sec
     gradient                   ...        0 min,  0.870 sec
 * total energy  :  -325.5055693 Eh     change       -0.3676401E-02 Eh
   gradient norm :     0.0362231 Eh/α   predicted    -0.4727122E-02 (  28.58%)
   displ. norm   :     0.7905686 α      lambda       -0.4535644E-02
   maximum displ.:     0.4501274 α      in ANC's #24, #21, #32, ...
 * RMSD in coord.:     0.8511602 α      energy gain  -0.6941811E+00 Eh

generating ANC from model Hessian ...
Using Lindh-Hessian (1995)
 Shifting diagonal of input Hessian by    1.0029435989872848E-002
 Lowest  eigenvalues of input Hessian
    0.010000    0.010011    0.010013    0.010018    0.010021    0.010023
    0.000000    0.000000    0.000000    0.000000    0.000000    0.000000
    0.010043    0.010082    0.010089    0.010134    0.010157    0.010167
 Highest eigenvalues
    2.595370    2.595585    2.601234    2.605975    2.805763    2.806940


........................................................................
.............................. CYCLE   21 ..............................
........................................................................
   1   -331.0005196 -0.331001E+03  0.183E-02    0.07       0.0  T
   2   -330.4177439  0.582776E+00  0.810E-01    0.02       1.0  T
   3   -329.9993529  0.418391E+00  0.103E+00    0.04       1.0  T
   4   -330.9788619 -0.979509E+00  0.154E-01    0.07       1.0  T
   5   -330.2750000  0.703862E+00  0.868E-01    0.03       1.0  T
   6   -330.9667307 -0.691731E+00  0.190E-01    0.08       1.0  T
   7   -330.9921483 -0.254176E-01  0.937E-02    0.07       1.0  T
   8   -330.9935844 -0.143615E-02  0.854E-02    0.06       1.0  T
   9   -330.9964478 -0.286342E-02  0.650E-02    0.06       1.0  T
  10   -331.0003031 -0.385523E-02  0.211E-02    0.06       1.0  T
  11   -330.9982351  0.206798E-02  0.500E-02    0.06       1.0  T
  12   -330.9986030 -0.367897E-03  0.463E-02    0.07       1.0  T
  13   -330.9983288  0.274180E-03  0.490E-02    0.07       1.0  T
  14   -330.9996695 -0.134066E-02  0.322E-02    0.07       1.0  T
  15   -331.0006138 -0.944363E-03  0.916E-03    0.07       1.0  T
  16   -331.0006730 -0.591247E-04  0.531E-03    0.07       1.4  T
  17   -331.0006734 -0.436648E-06  0.530E-03    0.07       1.4  T
  18   -331.0006571  0.162921E-04  0.663E-03    0.07       1.1  T
  19   -331.0006788 -0.216672E-04  0.461E-03    0.07       1.6  T
  20   -331.0006912 -0.124623E-04  0.288E-03    0.07       2.6  T
  21   -331.0006961 -0.487049E-05  0.179E-03    0.07       4.2  T
  22   -331.0006971 -0.100565E-05  0.146E-03    0.07       5.1  T
  23   -331.0006987 -0.156196E-05  0.680E-04    0.07      10.9  T
  24   -331.0006991 -0.439129E-06  0.539E-05    0.07     137.9  T
  25   -331.0006991 -0.255670E-08  0.125E-05    0.07     594.7  T
     SCC iter.                  ...        0 min,  4.857 sec
     gradient                   ...        0 min,  0.867 sec
 * total energy  :  -325.5089904 Eh     change       -0.3421093E-02 Eh
   gradient norm :     0.0214809 Eh/α   predicted     0.0000000E+00 (-100.00%)
   displ. norm   :     0.3053428 α      lambda       -0.1567767E-02
   maximum displ.:     0.2404704 α      in ANC's #27, #15, #14, ...

........................................................................
.............................. CYCLE   22 ..............................
........................................................................
   1   -331.0015693 -0.331002E+03  0.177E-02    0.07       0.0  T
   2   -321.0324820  0.996909E+01  0.319E+00    0.02       1.0  T
   3   -330.8896753 -0.985719E+01  0.343E-01    0.03       1.0  T
   4   -329.6733498  0.121633E+01  0.117E+00    0.02       1.0  T
   5   -330.7967494 -0.112340E+01  0.475E-01    0.09       1.0  T
   6   -330.5823755  0.214374E+00  0.659E-01    0.05       1.0  T
   7   -330.9545582 -0.372183E+00  0.233E-01    0.10       1.0  T
   8   -330.8132823  0.141276E+00  0.434E-01    0.03       1.0  T
   9   -330.8880843 -0.748020E-01  0.343E-01    0.04       1.0  T
  10   -331.0010090 -0.112925E+00  0.292E-02    0.07       1.0  T
  11   -331.0014057 -0.396744E-03  0.213E-02    0.07       1.0  T
  12   -330.9999141  0.149159E-02  0.455E-02    0.07       1.0  T
  13   -331.0009505 -0.103638E-02  0.312E-02    0.07       1.0  T
  14   -331.0014090 -0.458455E-03  0.220E-02    0.07       1.0  T
  15   -331.0016923 -0.283292E-03  0.136E-02    0.07       1.0  T
  16   -331.0015454  0.146822E-03  0.188E-02    0.07       1.0  T
  17   -331.0016410 -0.955569E-04  0.156E-02    0.07       1.0  T
  18   -331.0017050 -0.639998E-04  0.133E-02    0.07       1.0  T
  19   -331.0017703 -0.653063E-04  0.102E-02    0.07       1.0  T
  20   -331.0018207 -0.503540E-04  0.700E-03    0.07       1.1  T
  21   -331.0018467 -0.260020E-04  0.455E-03    0.07       1.6  T
  22   -331.0018588 -0.121591E-04  0.274E-03    0.07       2.7  T
  23   -331.0018617 -0.289554E-05  0.203E-03    0.07       3.7  T
  24   -331.0018628 -0.107505E-05  0.166E-03    0.07       4.5  T
  25   -331.0018630 -0.224817E-06  0.155E-03    0.07       4.8  T
  26   -331.0018639 -0.866886E-06  0.119E-03    0.07       6.3  T
  27   -331.0018648 -0.946366E-06  0.554E-04    0.07      13.4  T
  28   -331.0018651 -0.262042E-06  0.652E-05    0.07     114.0  T
  29   -331.0018651 -0.296427E-08  0.244E-05    0.07     304.4  T
     SCC iter.                  ...        0 min,  5.626 sec
     gradient                   ...        0 min,  0.960 sec
 * total energy  :  -325.5102629 Eh     change       -0.1272495E-02 Eh
   gradient norm :     0.0083041 Eh/α   predicted    -0.8578659E-03 ( -32.58%)
   displ. norm   :     0.5475429 α      lambda       -0.2197197E-02
   maximum displ.:     0.4030265 α      in ANC's #27, #15, #14, ...

........................................................................
.............................. CYCLE   23 ..............................
........................................................................
   1   -331.0042930 -0.331004E+03  0.321E-02    0.06       0.0  T
   2   -319.1100563  0.118942E+02  0.348E+00    0.01       1.0  T
   3   -329.6901796 -0.105801E+02  0.117E+00    0.04       1.0  T
   4   -330.5767339 -0.886554E+00  0.659E-01    0.02       1.0  T
   5   -330.8917589 -0.315025E+00  0.361E-01    0.10       1.0  T
   6   -329.3992048  0.149255E+01  0.129E+00    0.00       1.0  T
   7   -329.8547038 -0.455499E+00  0.108E+00    0.02       1.0  T
   8   -327.8237948  0.203091E+01  0.179E+00    0.00       1.0  T
   9   -330.5375977 -0.271380E+01  0.689E-01    0.05       1.0  T
  10   -330.9884762 -0.450878E+00  0.130E-01    0.06       1.0  T
  11   -330.9770557  0.114205E-01  0.168E-01    0.05       1.0  T
  12   -330.9981712 -0.211156E-01  0.855E-02    0.06       1.0  T
  13   -330.9998648 -0.169361E-02  0.744E-02    0.06       1.0  T
  14   -331.0041461 -0.428123E-02  0.355E-02    0.07       1.0  T
  15   -331.0036667  0.479344E-03  0.424E-02    0.07       1.0  T
  16   -331.0034483  0.218424E-03  0.449E-02    0.07       1.0  T
  17   -331.0033786  0.696656E-04  0.457E-02    0.07       1.0  T
  18   -331.0033684  0.101970E-04  0.459E-02    0.07       1.0  T
  19   -331.0034294 -0.609631E-04  0.452E-02    0.07       1.0  T
  20   -331.0041725 -0.743111E-03  0.352E-02    0.07       1.0  T
  21   -331.0049058 -0.733235E-03  0.207E-02    0.07       1.0  T
  22   -331.0052096 -0.303828E-03  0.945E-03    0.07       1.0  T
  23   -331.0052767 -0.671360E-04  0.386E-03    0.07       1.9  T
  24   -331.0052878 -0.110580E-04  0.168E-03    0.07       4.4  T
  25   -331.0052895 -0.168913E-05  0.103E-03    0.07       7.2  T
  26   -331.0052901 -0.648377E-06  0.638E-04    0.07      11.7  T
  27   -331.0052904 -0.245995E-06  0.411E-04    0.07      18.1  T
  28   -331.0052905 -0.929984E-07  0.276E-04    0.07      27.0  T
  29   -331.0052905 -0.459439E-07  0.150E-04    0.07      49.5  T
  30   -331.0052905 -0.130725E-07  0.471E-05    0.07     157.7  T
     SCC iter.                  ...        0 min,  5.989 sec
     gradient                   ...        0 min,  0.729 sec
 * total energy  :  -325.5119164 Eh     change       -0.1653504E-02 Eh
   gradient norm :     0.0210193 Eh/α   predicted    -0.1427963E-02 ( -13.64%)
   displ. norm   :     0.6065712 α      lambda       -0.2236345E-02
   maximum displ.:     0.4295876 α      in ANC's #27, #15, #14, ...

........................................................................
.............................. CYCLE   24 ..............................
........................................................................
   1   -331.0123066 -0.331012E+03  0.252E-02    0.06       0.0  T
   2   -319.3704845  0.116418E+02  0.344E+00    0.01       1.0  T
   3   -330.0644952 -0.106940E+02  0.989E-01    0.01       1.0  T
   4   -330.7847919 -0.720297E+00  0.480E-01    0.04       1.0  T
   5   -329.7104745  0.107432E+01  0.117E+00    0.01       1.0  T
   6   -330.0391706 -0.328696E+00  0.100E+00    0.02       1.0  T
   7   -330.7219036 -0.682733E+00  0.547E-01    0.07       1.0  T
   8   -330.7745683 -0.526648E-01  0.510E-01    0.02       1.0  T
   9   -330.9140666 -0.139498E+00  0.316E-01    0.03       1.0  T
  10   -330.9763140 -0.622474E-01  0.193E-01    0.05       1.0  T
  11   -330.9685914  0.772260E-02  0.210E-01    0.05       1.0  T
  12   -331.0127892 -0.441977E-01  0.134E-02    0.06       1.0  T
  13   -330.9975319  0.152573E-01  0.127E-01    0.06       1.0  T
  14   -331.0100539 -0.125220E-01  0.554E-02    0.07       1.0  T
  15   -331.0099284  0.125443E-03  0.568E-02    0.07       1.0  T
  16   -331.0096161  0.312371E-03  0.593E-02    0.07       1.0  T
  17   -331.0100472 -0.431158E-03  0.548E-02    0.07       1.0  T
  18   -331.0127780 -0.273080E-02  0.124E-02    0.07       1.0  T
  19   -331.0127228  0.551882E-04  0.145E-02    0.06       1.0  T
  20   -331.0127670 -0.441810E-04  0.127E-02    0.06       1.0  T
  21   -331.0128744 -0.107365E-03  0.708E-03    0.07       1.0  T
  22   -331.0129052 -0.307873E-04  0.411E-03    0.07       1.8  T
  23   -331.0129110 -0.577624E-05  0.305E-03    0.07       2.4  T
  24   -331.0129152 -0.422721E-05  0.199E-03    0.07       3.7  T
  25   -331.0129162 -0.106487E-05  0.156E-03    0.07       4.7  T
  26   -331.0129170 -0.769951E-06  0.122E-03    0.07       6.1  T
  27   -331.0129180 -0.937929E-06  0.686E-04    0.07      10.8  T
  28   -331.0129182 -0.203303E-06  0.504E-04    0.07      14.7  T
  29   -331.0129183 -0.193838E-06  0.233E-04    0.07      31.9  T
  30   -331.0129184 -0.497368E-07  0.544E-05    0.07     136.6  T
[...]
   124   6 C    3.909 --   123 C    2.459    80 C    1.191   122 C    0.194
   125  26 Fe   3.047 --   144 N    0.648   151 N    0.647   165 N    0.647
                           131 N    0.647
   126   6 C    3.902 --   127 C    1.245   164 C    1.244   120 C    1.211
   127   6 C    3.904 --   131 N    1.249   126 C    1.245   128 C    1.191
   128   6 C    3.959 --   129 C    1.634   127 C    1.191   166 H    0.973
   129   6 C    3.957 --   128 C    1.634   130 C    1.182   167 H    0.973
   130   6 C    3.915 --   132 C    1.324   131 N    1.205   129 C    1.182
   131   7 N    3.366 --   127 C    1.249   130 C    1.205   125 Fe   0.647
   132   6 C    3.911 --   130 C    1.324   141 C    1.320   133 C    1.029
   133   6 C    3.963 --   140 C    1.385   134 C    1.385   132 C    1.029
   134   6 C    3.987 --   135 C    1.463   133 C    1.385   168 H    0.971
                           139 C    0.102
   135   6 C    3.993 --   134 C    1.463   136 C    1.365   169 H    0.972
                           140 C    0.102
   136   6 C    3.985 --   139 C    1.365   135 C    1.365   137 C    1.097
   137   6 C    3.958 --   138 N    2.821   136 C    1.097
   138   7 N    2.974 --   137 C    2.821
   139   6 C    3.993 --   140 C    1.463   136 C    1.365   170 H    0.972
                           134 C    0.102
   140   6 C    3.987 --   139 C    1.463   133 C    1.385   171 H    0.971
                           135 C    0.102
   141   6 C    3.915 --   132 C    1.320   144 N    1.208   142 C    1.182
   142   6 C    3.959 --   143 C    1.635   141 C    1.182   172 H    0.973
   143   6 C    3.959 --   142 C    1.635   145 C    1.190   173 H    0.973
   144   7 N    3.367 --   145 C    1.245   141 C    1.208   125 Fe   0.648
   145   6 C    3.906 --   146 C    1.252   144 N    1.245   143 C    1.190
   146   6 C    3.904 --   147 C    1.252   145 C    1.252   122 C    1.197
   147   6 C    3.906 --   146 C    1.252   151 N    1.245   148 C    1.190
   148   6 C    3.959 --   149 C    1.635   147 C    1.190   174 H    0.973
   149   6 C    3.959 --   148 C    1.635   150 C    1.183   175 H    0.973
   150   6 C    3.915 --   152 C    1.319   151 N    1.208   149 C    1.183
   151   7 N    3.367 --   147 C    1.245   150 C    1.208   125 Fe   0.647
   152   6 C    3.911 --   161 C    1.324   150 C    1.319   153 C    1.030
   153   6 C    3.963 --   160 C    1.385   154 C    1.385   152 C    1.030
   154   6 C    3.987 --   155 C    1.463   153 C    1.385   176 H    0.971
                           159 C    0.102
   155   6 C    3.993 --   154 C    1.463   156 C    1.365   177 H    0.972
                           160 C    0.102
   156   6 C    3.984 --   159 C    1.365   155 C    1.365   157 C    1.097
   157   6 C    3.958 --   158 N    2.821   156 C    1.097
   158   7 N    2.974 --   157 C    2.821
   159   6 C    3.993 --   160 C    1.463   156 C    1.365   178 H    0.972
                           154 C    0.102
   160   6 C    3.987 --   159 C    1.463   153 C    1.385   179 H    0.971
                           155 C    0.102
   161   6 C    3.915 --   152 C    1.324   165 N    1.204   162 C    1.182
   162   6 C    3.957 --   163 C    1.634   161 C    1.182   180 H    0.973
   163   6 C    3.959 --   162 C    1.634   164 C    1.191   181 H    0.973
   164   6 C    3.904 --   165 N    1.250   126 C    1.244   163 C    1.191
   165   7 N    3.366 --   164 C    1.250   161 C    1.204   125 Fe   0.647
   166   1 H    1.001 --   128 C    0.973
   167   1 H    1.003 --   129 C    0.973
   168   1 H    1.003 --   134 C    0.971
   169   1 H    1.000 --   135 C    0.972
   170   1 H    1.000 --   139 C    0.972
   171   1 H    1.003 --   140 C    0.971
   172   1 H    1.004 --   142 C    0.973
   173   1 H    1.001 --   143 C    0.973
   174   1 H    1.001 --   148 C    0.973
   175   1 H    1.004 --   149 C    0.973
   176   1 H    1.003 --   154 C    0.971
   177   1 H    1.000 --   155 C    0.972
   178   1 H    1.000 --   159 C    0.972
   179   1 H    1.003 --   160 C    0.971
   180   1 H    1.004 --   162 C    0.973
   181   1 H    1.002 --   163 C    0.973
 ---------------------------------------------------------------------------

Topologies differ in total number of bonds
Writing topology from bond orders to xtbtopo.mol

 dipole moment from electron density (au)
     X       Y       Z   
  -0.3931   0.0089   0.1810  total (Debye):    1.100

           -------------------------------------------------
          |                Geometry Summary                 |
           -------------------------------------------------

      molecular mass/u    :     1791.2340776
   center of mass at/Å    :       47.2240607       0.0190134      -0.0049417
  moments of inertia/u·Å² :        0.3931417E+05   0.2172503E+06   0.2507586E+06
rotational constants/cm⁻¹ :        0.4287928E-03   0.7759542E-04   0.6722654E-04

 * 180 selected distances

     #   Z          #   Z                                           value/Å
     2   6 C        3   6 C                                       1.3797603
     3   6 C        4   6 C                                       1.4318052
     4   6 C        5   6 C                                       1.3538126
     5   6 C        6   6 C                                       1.4346807
     3   6 C        7   7 N                                       1.3703098
     6   6 C        7   7 N                                       1.3682392
     6   6 C        8   6 C                                       1.3912471
     9   6 C       10   6 C                                       1.3967235
    10   6 C       11   6 C                                       1.3832986
    11   6 C       12   6 C                                       1.3980592
    13   6 C       14   7 N                                       1.1506849
    12   6 C       15   6 C                                       1.3980297
     9   6 C       16   6 C                                       1.3966743
    15   6 C       16   6 C                                       1.3833472
     8   6 C       17   6 C                                       1.3878671
    17   6 C       18   6 C                                       1.4329069
    18   6 C       19   6 C                                       1.3548495
    17   6 C       20   7 N                                       1.3742818
    19   6 C       21   6 C                                       1.4294406
    20   7 N       21   6 C                                       1.3628116
    21   6 C       22   6 C                                       1.4009210
    22   6 C       23   6 C                                       1.4008879
    23   6 C       24   6 C                                       1.4293287
    24   6 C       25   6 C                                       1.3548581
    25   6 C       26   6 C                                       1.4329810
    23   6 C       27   7 N                                       1.3626807
    26   6 C       27   7 N                                       1.3747551
    26   6 C       28   6 C                                       1.3877850
    29   6 C       30   6 C                                       1.3967780
    30   6 C       31   6 C                                       1.3833145
    31   6 C       32   6 C                                       1.3980765
    33   6 C       34   7 N                                       1.1507584
    32   6 C       35   6 C                                       1.3980523
    29   6 C       36   6 C                                       1.3968067
    35   6 C       36   6 C                                       1.3832937
    28   6 C       37   6 C                                       1.3915642
    37   6 C       38   6 C                                       1.4346308
    38   6 C       39   6 C                                       1.3538371
     2   6 C       40   6 C                                       1.3796209
    39   6 C       40   6 C                                       1.4318190
    37   6 C       41   7 N                                       1.3679226
    40   6 C       41   7 N                                       1.3705260
     2   6 C       42   1 H                                       1.0841560
     4   6 C       43   1 H                                       1.0783479
     5   6 C       44   1 H                                       1.0778884
    10   6 C       45   1 H                                       1.0841252
    11   6 C       46   1 H                                       1.0837040
    15   6 C       47   1 H                                       1.0837022
    16   6 C       48   1 H                                       1.0841364
    18   6 C       49   1 H                                       1.0777771
    19   6 C       50   1 H                                       1.0780703
    24   6 C       51   1 H                                       1.0780759
    25   6 C       52   1 H                                       1.0777724
    30   6 C       53   1 H                                       1.0841424
    31   6 C       54   1 H                                       1.0837149
    35   6 C       55   1 H                                       1.0837309
    36   6 C       56   1 H                                       1.0841428
    38   6 C       57   1 H                                       1.0778995
    39   6 C       58   1 H                                       1.0783508
    60   6 C       61   6 C                                       1.3793036
    61   6 C       62   6 C                                       1.4318044
    62   6 C       63   6 C                                       1.3534645
    63   6 C       64   6 C                                       1.4347380 (max)
    61   6 C       65   7 N                                       1.3703932
    64   6 C       65   7 N                                       1.3686712
    64   6 C       66   6 C                                       1.3902981
    67   6 C       68   6 C                                       1.3966825
    68   6 C       69   6 C                                       1.3833348
    69   6 C       70   6 C                                       1.3980788
    71   6 C       72   7 N                                       1.1506397
    70   6 C       73   6 C                                       1.3980489
    67   6 C       74   6 C                                       1.3965146
    73   6 C       74   6 C                                       1.3834518
    66   6 C       75   6 C                                       1.3877430
    75   6 C       76   6 C                                       1.4329320
    76   6 C       77   6 C                                       1.3543302
    75   6 C       78   7 N                                       1.3742038
    77   6 C       79   6 C                                       1.4296043
    78   7 N       79   6 C                                       1.3639810
    79   6 C       80   6 C                                       1.3987709
    80   6 C       81   6 C                                       1.3988010
    81   6 C       82   6 C                                       1.4294812
    82   6 C       83   6 C                                       1.3543509
    83   6 C       84   6 C                                       1.4330286
    81   6 C       85   7 N                                       1.3638748
    84   6 C       85   7 N                                       1.3745959
    84   6 C       86   6 C                                       1.3876991
    87   6 C       88   6 C                                       1.3967358
    88   6 C       89   6 C                                       1.3833021
    89   6 C       90   6 C                                       1.3980136
    91   6 C       92   7 N                                       1.1508254
    90   6 C       93   6 C                                       1.3980642
    87   6 C       94   6 C                                       1.3966057
    93   6 C       94   6 C                                       1.3833854
    86   6 C       95   6 C                                       1.3906667
    95   6 C       96   6 C                                       1.4346986
    96   6 C       97   6 C                                       1.3535228
    60   6 C       98   6 C                                       1.3791688
    97   6 C       98   6 C                                       1.4317957
    95   6 C       99   7 N                                       1.3683396
    98   6 C       99   7 N                                       1.3705751
    60   6 C      100   1 H                                       1.0841488
    62   6 C      101   1 H                                       1.0783568
    63   6 C      102   1 H                                       1.0778854
    68   6 C      103   1 H                                       1.0841508
    69   6 C      104   1 H                                       1.0837291
    73   6 C      105   1 H                                       1.0837241
    74   6 C      106   1 H                                       1.0841384
    76   6 C      107   1 H                                       1.0777424
    77   6 C      108   1 H                                       1.0780472
    82   6 C      109   1 H                                       1.0780544
    83   6 C      110   1 H                                       1.0777123
    88   6 C      111   1 H                                       1.0841347
    89   6 C      112   1 H                                       1.0837197
    93   6 C      113   1 H                                       1.0837119
    94   6 C      114   1 H                                       1.0841209
    96   6 C      115   1 H                                       1.0778999
    97   6 C      116   1 H                                       1.0783615
   117   6 C      118   6 C                                       1.2243622
   119   6 C      120   6 C                                       1.2245528
   121   6 C      122   6 C                                       1.2233076
   123   6 C      124   6 C                                       1.2230218
   126   6 C      127   6 C                                       1.4012002
   127   6 C      128   6 C                                       1.4288893
   128   6 C      129   6 C                                       1.3552103
   129   6 C      130   6 C                                       1.4321934
   127   6 C      131   7 N                                       1.3625800
   130   6 C      131   7 N                                       1.3735321
   130   6 C      132   6 C                                       1.3889559
   133   6 C      134   6 C                                       1.3966675
   134   6 C      135   6 C                                       1.3833211
   135   6 C      136   6 C                                       1.3980009
   137   6 C      138   7 N                                       1.1506054
   136   6 C      139   6 C                                       1.3980124
   133   6 C      140   6 C                                       1.3965705
   139   6 C      140   6 C                                       1.3833985
   132   6 C      141   6 C                                       1.3896601
   141   6 C      142   6 C                                       1.4321921
   142   6 C      143   6 C                                       1.3550652
   141   6 C      144   7 N                                       1.3730707
   143   6 C      145   6 C                                       1.4289710
   144   7 N      145   6 C                                       1.3634554
   145   6 C      146   6 C                                       1.3998879
   146   6 C      147   6 C                                       1.3998166
   147   6 C      148   6 C                                       1.4288635
   148   6 C      149   6 C                                       1.3551246
   149   6 C      150   6 C                                       1.4321717
   147   6 C      151   7 N                                       1.3635456
   150   6 C      151   7 N                                       1.3729604
   150   6 C      152   6 C                                       1.3898541
   153   6 C      154   6 C                                       1.3967747
   154   6 C      155   6 C                                       1.3832441
   155   6 C      156   6 C                                       1.3980028
   157   6 C      158   7 N                                       1.1506497
   156   6 C      159   6 C                                       1.3979754
   153   6 C      160   6 C                                       1.3965958
   159   6 C      160   6 C                                       1.3834071
   152   6 C      161   6 C                                       1.3889912
   161   6 C      162   6 C                                       1.4321897
   162   6 C      163   6 C                                       1.3552089
   126   6 C      164   6 C                                       1.4014709
   163   6 C      164   6 C                                       1.4288372
   161   6 C      165   7 N                                       1.3736980
   164   6 C      165   7 N                                       1.3624377
   128   6 C      166   1 H                                       1.0780267
   129   6 C      167   1 H                                       1.0777200
   134   6 C      168   1 H                                       1.0841143
   135   6 C      169   1 H                                       1.0836920
   139   6 C      170   1 H                                       1.0836754
   140   6 C      171   1 H                                       1.0841034
   142   6 C      172   1 H                                       1.0776841
   143   6 C      173   1 H                                       1.0779957
   148   6 C      174   1 H                                       1.0779867
   149   6 C      175   1 H                                       1.0776696 (min)
   154   6 C      176   1 H                                       1.0841049
   155   6 C      177   1 H                                       1.0836724
   159   6 C      178   1 H                                       1.0836681
   160   6 C      179   1 H                                       1.0840897
   162   6 C      180   1 H                                       1.0777038
   163   6 C      181   1 H                                       1.0780130

 * 3 distinct bonds (by element types)

   Z      Z             #   av. dist./Å        max./Å        min./Å
   1 H    6 C          50     1.0810659     1.0841560     1.0776696
   6 C    6 C         100     1.3903745     1.4347380     1.2230218
   6 C    7 N          30     1.3251868     1.3747551     1.1506054


optimized geometry written to: xtbopt.xyz


           -------------------------------------------------
          | TOTAL ENERGY             -325.522974172064 Eh   |
          | GRADIENT NORM               0.000749127050 Eh/α |
          | HOMO-LUMO GAP               0.054072340063 eV   |
           -------------------------------------------------

------------------------------------------------------------------------
 * finished run on 2022/07/29 at 23:59:45.072     
------------------------------------------------------------------------
 total:
 * wall-time:     0 d,  0 h,  5 min, 59.690 sec
 *  cpu-time:     0 d,  0 h,  5 min, 57.501 sec
 * ratio c/w:     0.994 speedup
 SCF:
 * wall-time:     0 d,  0 h,  0 min, 20.467 sec
 *  cpu-time:     0 d,  0 h,  0 min, 20.298 sec
 * ratio c/w:     0.992 speedup
 ANC optimizer:
 * wall-time:     0 d,  0 h,  5 min, 38.909 sec
 *  cpu-time:     0 d,  0 h,  5 min, 36.896 sec
 * ratio c/w:     0.994 speedup

