      -----------------------------------------------------------      
     |                   =====================                   |     
     |                           x T B                           |     
     |                   =====================                   |     
     |                         S. Grimme                         |     
     |          Mulliken Center for Theoretical Chemistry        |     
     |                    University of Bonn                     |     
      -----------------------------------------------------------      

   * xtb version 6.5.1 (b24c23e) compiled by 'conda@728c89f4b128' on 2022-07-12

   xtb is free software: you can redistribute it and/or modify it under
   the terms of the GNU Lesser General Public License as published by
   the Free Software Foundation, either version 3 of the License, or
   (at your option) any later version.
   
   xtb is distributed in the hope that it will be useful,
   but WITHOUT ANY WARRANTY; without even the implied warranty of
   MERCHANTABILITY or FITNESS FOR A PARTICULAR PURPOSE.  See the
   GNU Lesser General Public License for more details.
   
   Cite this work as:
   * C. Bannwarth, E. Caldeweyher, S. Ehlert, A. Hansen, P. Pracht,
     J. Seibert, S. Spicher, S. Grimme, WIREs Comput. Mol. Sci., 2020, 11,
     e01493. DOI: 10.1002/wcms.1493
   
   for GFN2-xTB:
   * C. Bannwarth, S. Ehlert and S. Grimme., J. Chem. Theory Comput., 2019,
     15, 1652-1671. DOI: 10.1021/acs.jctc.8b01176
   for GFN1-xTB:
   * S. Grimme, C. Bannwarth, P. Shushkov, J. Chem. Theory Comput., 2017,
     13, 1989-2009. DOI: 10.1021/acs.jctc.7b00118
   for GFN0-xTB:
   * P. Pracht, E. Caldeweyher, S. Ehlert, S. Grimme, ChemRxiv, 2019, preprint.
     DOI: 10.26434/chemrxiv.8326202.v1
   for GFN-FF:
   * S. Spicher and S. Grimme, Angew. Chem. Int. Ed., 2020, 59, 15665-15673.
     DOI: 10.1002/anie.202004239
   
   for ALPB and GBSA implicit solvation:
   * S. Ehlert, M. Stahn, S. Spicher, S. Grimme, J. Chem. Theory Comput.,
     2021, 17, 4250-4261. DOI: 10.1021/acs.jctc.1c00471
   
   for DFT-D4:
   * E. Caldeweyher, C. Bannwarth and S. Grimme, J. Chem. Phys., 2017,
     147, 034112. DOI: 10.1063/1.4993215
   * E. Caldeweyher, S. Ehlert, A. Hansen, H. Neugebauer, S. Spicher,
     C. Bannwarth and S. Grimme, J. Chem. Phys., 2019, 150, 154122.
     DOI: 10.1063/1.5090222
   * E. Caldeweyher, J.-M. Mewes, S. Ehlert and S. Grimme, Phys. Chem. Chem. Phys.
     2020, 22, 8499-8512. DOI: 10.1039/D0CP00502A
   
   for sTDA-xTB:
   * S. Grimme and C. Bannwarth, J. Chem. Phys., 2016, 145, 054103.
     DOI: 10.1063/1.4959605
   
   in the mass-spec context:
   * V. Asgeirsson, C. Bauer and S. Grimme, Chem. Sci., 2017, 8, 4879.
     DOI: 10.1039/c7sc00601b
   * J. Koopman and S. Grimme, ACS Omega 2019, 4, 12, 15120-15133.
     DOI: 10.1021/acsomega.9b02011
   
   for metadynamics refer to:
   * S. Grimme, J. Chem. Theory Comput., 2019, 155, 2847-2862
     DOI: 10.1021/acs.jctc.9b00143
   
   for SPH calculations refer to:
   * S. Spicher and S. Grimme, J. Chem. Theory Comput., 2021, 17, 1701-1714
     DOI: 10.1021/acs.jctc.0c01306
   
   with help from (in alphabetical order)
   P. Atkinson, C. Bannwarth, F. Bohle, G. Brandenburg, E. Caldeweyher
   M. Checinski, S. Dohm, S. Ehlert, S. Ehrlich, I. Gerasimov, C. Hölzer
   A. Katbashev, J. Koopman, C. Lavigne, S. Lehtola, F. März, M. Müller,
   F. Musil, H. Neugebauer, J. Pisarek, C. Plett, P. Pracht, F. Pultar,
   J. Seibert, P. Shushkov, S. Spicher, M. Stahn, M. Steiner, T. Strunk,
   J. Stückrath, T. Rose, and J. Unsleber
   
 * started run on 2022/07/27 at 08:56:04.957     

           -------------------------------------------------
          |                Calculation Setup                |
           -------------------------------------------------

          program call               : xtb xtbopt.xyz --gfn 1 --vipea
          hostname                   : cx3-6-14.cx3.hpc.ic.ac.uk
          coordinate file            : xtbopt.xyz
          omp threads                :                     1

   ID    Z sym.   atoms
    1    6 C      1-5, 7-10, 12-16, 18-23, 25-28, 30-35, 56-60, 62-65, 67-71,
                  73-78, 80-83, 85-90, 111-157, 159-162, 164-168, 170-175,
                  177-180, 182-187, 207-211, 213-216, 218-222, 224-229,
                  231-234, 236-241, 261-265, 267-270, 272-276, 278-283,
                  285-288, 290-295, 315-319, 321-324, 326-330, 332-337,
                  339-342, 344-349, 369-373, 375-378, 380-384, 386-391,
                  393-396, 398-403, 423-427, 429-432, 434-438, 440-445,
                  447-450, 452-457
    2    7 N      6, 11, 17, 24, 29, 36, 61, 66, 72, 79, 84, 91, 158, 163,
                  169, 176, 181, 188, 212, 217, 223, 230, 235, 242, 266, 271,
                  277, 284, 289, 296, 320, 325, 331, 338, 343, 350, 374, 379,
                  385, 392, 397, 404, 428, 433, 439, 446, 451, 458
    3    1 H      37-55, 92-110, 189-206, 243-260, 297-314, 351-368, 405-422,
                  459-476

           -------------------------------------------------
          |                 I P E A - x T B                 |
           -------------------------------------------------

        Reference                      10.1039/c7sc00601b
      * Hamiltonian:
        H0-scaling (s, p, d)           2.150000    2.300000    2.000000
        zeta-weighting                 0.000000
      * Dispersion:
        s8                             2.400000
        a1                             0.630000
        a2                             5.000000
        s9                             0.000000
      * Repulsion:
        kExp                           1.500000
        rExp                           1.000000
      * Coulomb:
        alpha                          1.000000
        third order                    atomic
        anisotropic                    false
      * Halogen bond correction:
        rad-scale                      1.300000
        damping                        0.440000


          ...................................................
          :                      SETUP                      :
          :.................................................:
          :  # basis functions                1942          :
          :  # atomic orbitals                1942          :
          :  # shells                         1282          :
          :  # electrons                      1514          :
          :  # halogen bonds                     0          :
          :  max. iterations                   250          :
          :  Hamiltonian                  GFN1-xTB          :
          :  restarted?                      false          :
          :  GBSA solvation                  false          :
          :  PC potential                    false          :
          :  electronic temp.          300.0000000     K    :
          :  accuracy                    1.0000000          :
          :  -> integral cutoff          0.2500000E+02      :
          :  -> integral neglect         0.1000000E-07      :
          :  -> SCF convergence          0.1000000E-05 Eh   :
          :  -> wf. convergence          0.2000000E-04 e    :
          :  Broyden damping             0.4000000          :
          ...................................................

 iter      E             dE          RMSdq      gap      omega  full diag
   1   -959.2468453 -0.959247E+03  0.103E+01    0.58       0.0  T
   2   -959.5605496 -0.313704E+00  0.642E+00    1.10       1.0  T
   3   -940.7148917  0.188457E+02  0.518E+00    0.13       1.0  T
   4   -962.6507283 -0.219358E+02  0.991E-01    1.01       1.0  T
   5   -963.6813517 -0.103062E+01  0.265E-01    0.92       1.0  T
   6   -963.7489504 -0.675986E-01  0.103E-01    0.93       1.0  T
   7   -963.7566081 -0.765769E-02  0.506E-02    0.92       1.0  T
   8   -963.7578743 -0.126622E-02  0.331E-02    0.92       1.0  T
   9   -963.7582728 -0.398463E-03  0.211E-02    0.92       1.0  T
  10   -963.7585893 -0.316498E-03  0.484E-03    0.92       1.0  T
  11   -963.7586044 -0.151832E-04  0.237E-03    0.92       1.9  T
  12   -963.7586087 -0.426959E-05  0.114E-03    0.92       4.0  T
  13   -963.7586097 -0.100091E-05  0.464E-04    0.92       9.9  T
  14   -963.7586098 -0.118744E-06  0.244E-04    0.92      18.8  T
  15   -963.7586099 -0.311255E-07  0.121E-04    0.92      38.0  T
  16   -963.7586099 -0.123721E-07  0.570E-05    0.92      80.5  T

   *** convergence criteria satisfied after 16 iterations ***

         #    Occupation            Energy/Eh            Energy/eV
      -------------------------------------------------------------
         1        2.0000           -1.0522721             -28.6338
       ...           ...                  ...                  ...
       751        2.0000           -0.3886217             -10.5749
       752        2.0000           -0.3853577             -10.4861
       753        2.0000           -0.3816981             -10.3865
       754        2.0000           -0.3778222             -10.2811
       755        2.0000           -0.3740120             -10.1774
       756        2.0000           -0.3707314             -10.0881
       757        2.0000           -0.3687452             -10.0341 (HOMO)
       758                         -0.3349286              -9.1139 (LUMO)
       759                         -0.3319583              -9.0330
       760                         -0.3281237              -8.9287
       761                         -0.3238870              -8.8134
       762                         -0.3197204              -8.7000
       ...                                ...                  ...
      1942                        550.5369667           14980.8734
      -------------------------------------------------------------
                  HL-Gap            0.0338166 Eh            0.9202 eV
             Fermi-level           -0.3518006 Eh           -9.5730 eV

 SCC (total)                   0 d,  0 h,  0 min, 37.921 sec
 SCC setup                      ...        0 min,  0.039 sec (  0.102%)
 Dispersion                     ...        0 min,  0.035 sec (  0.092%)
 classical contributions        ...        0 min,  0.007 sec (  0.019%)
 integral evaluation            ...        0 min,  1.858 sec (  4.900%)
 iterations                     ...        0 min, 32.773 sec ( 86.425%)
 molecular gradient             ...        0 min,  2.783 sec (  7.340%)
 printout                       ...        0 min,  0.426 sec (  1.122%)

         :::::::::::::::::::::::::::::::::::::::::::::::::::::
         ::                     SUMMARY                     ::
         :::::::::::::::::::::::::::::::::::::::::::::::::::::
         :: total energy            -943.773863621828 Eh    ::
         :: gradient norm              0.121708534417 Eh/a0 ::
         :: HOMO-LUMO gap              0.920196733174 eV    ::
         ::.................................................::
         :: SCC energy              -963.758609868357 Eh    ::
         :: -> electrostatic           0.730535824148 Eh    ::
         :: repulsion energy          20.397655408591 Eh    ::
         :: dispersion energy         -0.412909162063 Eh    ::
         :: halogen bond corr.         0.000000000000 Eh    ::
         :: add. restraining           0.000000000000 Eh    ::
         :: total charge               0.000000000024 e     ::
         :::::::::::::::::::::::::::::::::::::::::::::::::::::

           ------------------------------------------------- 
          |        vertical delta SCC IP calculation        |
           ------------------------------------------------- 
   1   -963.3732218 -0.963373E+03  0.419E-02    0.92       0.0  T
   2   -963.3719072  0.131462E-02  0.437E-02    0.89       1.0  T
   3   -963.3749443 -0.303708E-02  0.264E-02    0.92       1.0  T
   4   -963.3758748 -0.930536E-03  0.188E-02    0.91       1.0  T
   5   -963.3754807  0.394046E-03  0.162E-02    0.91       1.0  T
   6   -963.3756487 -0.167938E-03  0.142E-02    0.91       1.0  T
   7   -963.3764407 -0.791988E-03  0.467E-03    0.92       1.0  T
   8   -963.3764667 -0.260096E-04  0.171E-03    0.92       2.7  T
   9   -963.3764697 -0.305991E-05  0.827E-04    0.92       5.5  T
  10   -963.3764702 -0.488876E-06  0.424E-04    0.92      10.8  T
  11   -963.3764704 -0.164019E-06  0.136E-04    0.92      33.6  T
  12   -963.3764704 -0.240123E-07  0.603E-05    0.92      76.0  T
     SCC iter.                  ...        0 min, 24.403 sec
     gradient                   ...        0 min,  2.775 sec
------------------------------------------------------------------------
empirical IP shift (eV):    4.8455
delta SCC IP (eV):    5.5530
------------------------------------------------------------------------
           ------------------------------------------------- 
          |        vertical delta SCC EA calculation        |
           ------------------------------------------------- 
   1   -964.0680138 -0.964068E+03  0.747E-02    0.08       0.0  T
   2   -964.0712208 -0.320699E-02  0.668E-02    0.02       1.0  T
   3   -964.0763854 -0.516461E-02  0.416E-02    0.07       1.0  T
   4   -964.0779056 -0.152024E-02  0.304E-02    0.04       1.0  T
   5   -964.0780459 -0.140282E-03  0.200E-02    0.05       1.0  T
   6   -964.0749090  0.313687E-02  0.292E-02    0.07       1.0  T
   7   -964.0788525 -0.394345E-02  0.882E-03    0.05       1.0  T
   8   -964.0790366 -0.184081E-03  0.337E-03    0.05       1.4  T
   9   -964.0790486 -0.120085E-04  0.183E-03    0.04       2.5  T
  10   -964.0790520 -0.343884E-05  0.480E-04    0.04       9.6  T
  11   -964.0790522 -0.215068E-06  0.254E-04    0.04      18.0  T
  12   -964.0790523 -0.533105E-07  0.115E-04    0.04      40.0  T
  13   -964.0790523 -0.957834E-08  0.540E-05    0.04      84.9  T
     SCC iter.                  ...        0 min, 26.585 sec
     gradient                   ...        0 min,  2.832 sec
------------------------------------------------------------------------
empirical EA shift (eV):    4.8455
delta SCC EA (eV):    3.8742
------------------------------------------------------------------------
           -------------------------------------------------
          |                Property Printout                |
           -------------------------------------------------

    * Orbital Energies and Occupations

         #    Occupation            Energy/Eh            Energy/eV
      -------------------------------------------------------------
         1        2.0000           -1.0282501             -27.9801
       ...           ...                  ...                  ...
       746        2.0000           -0.3702329             -10.0746
       747        2.0000           -0.3701893             -10.0734
       748        2.0000           -0.3701400             -10.0720
       749        2.0000           -0.3701284             -10.0717
       750        2.0000           -0.3635522              -9.8928
       751        2.0000           -0.3626873              -9.8692
       752        2.0000           -0.3590645              -9.7706
       753        2.0000           -0.3550303              -9.6609
       754        2.0000           -0.3508437              -9.5469
       755        2.0000           -0.3466152              -9.4319
       756        2.0000           -0.3425824              -9.3221
       757        2.0000           -0.3394604              -9.2372
       758        0.6971           -0.3056249              -8.3165 (HOMO)
       759        0.2882           -0.3039738              -8.2715 (LUMO)
       760        0.0144           -0.3008212              -8.1858
       761        0.0003           -0.2969755              -8.0811
       762        0.0000           -0.2935762              -7.9886
       763        0.0000           -0.2921497              -7.9498
       764        0.0000           -0.2913671              -7.9285
       765                         -0.2892021              -7.8696
       766                         -0.2876123              -7.8263
       767                         -0.2869701              -7.8089
       768                         -0.2860282              -7.7832
       769                         -0.2859810              -7.7819
       ...                                ...                  ...
      1942                        550.5657676           14981.6571
      -------------------------------------------------------------
                  HL-Gap            0.0016512 Eh            0.0449 eV
             Fermi-level           -0.3137187 Eh           -8.5367 eV

  Mulliken/CM5 charges         n(s)   n(p)   n(d)
     1C    -0.01958 -0.06041   1.090  2.930  0.000
     2C     0.06370  0.12410   1.105  2.831  0.000
     3C    -0.03226 -0.07758   1.081  2.951  0.000
     4C    -0.03006 -0.07499   1.075  2.955  0.000
     5C     0.06529  0.12931   1.100  2.835  0.000
     6N    -0.15735 -0.51031   1.311  3.846  0.000
     7C     0.01131  0.01723   1.089  2.899  0.000
     8C     0.02340  0.01693   1.099  2.878  0.000
     9C    -0.01490 -0.06261   1.080  2.935  0.000
    10C     0.05563  0.08030   1.128  2.816  0.000
    11N    -0.25360 -0.44946   1.376  3.878  0.000
    12C     0.05496  0.07967   1.128  2.817  0.000
    13C    -0.01655 -0.06419   1.078  2.939  0.000
    14C     0.06164  0.12973   1.117  2.822  0.000
    15C    -0.03526 -0.08125   1.084  2.952  0.000
    16C    -0.03613 -0.08157   1.090  2.946  0.000
    17N    -0.28318 -0.46981   1.293  3.991  0.000
    18C     0.06600  0.13687   1.130  2.804  0.000
    19C     0.01934  0.02653   1.085  2.896  0.000
    20C     0.06797  0.13291   1.109  2.823  0.000
    21C    -0.03114 -0.07558   1.079  2.952  0.000
    22C    -0.03012 -0.07507   1.074  2.956  0.000
    23C     0.06440  0.12779   1.098  2.838  0.000
    24N    -0.15528 -0.50749   1.313  3.842  0.000
    25C     0.01066  0.01663   1.089  2.900  0.000
    26C     0.02330  0.01684   1.099  2.878  0.000
    27C    -0.01622 -0.06388   1.078  2.938  0.000
    28C     0.05512  0.07983   1.128  2.817  0.000
    29N    -0.25389 -0.44973   1.376  3.878  0.000
    30C     0.05518  0.07985   1.128  2.816  0.000
    31C    -0.01546 -0.06316   1.080  2.936  0.000
    32C     0.06305  0.13250   1.120  2.817  0.000
    33C    -0.03543 -0.08140   1.085  2.950  0.000
    34C    -0.03742 -0.08381   1.091  2.946  0.000
    35C     0.06070  0.12639   1.125  2.814  0.000
    36N    -0.28550 -0.47253   1.292  3.993  0.000
    37H     0.03216  0.09119   0.968  0.000  0.000
    38H     0.04325  0.09994   0.957  0.000  0.000
    39H     0.03569  0.09444   0.964  0.000  0.000
    40H     0.16554  0.37385   0.834  0.000  0.000
    41H     0.03011  0.08826   0.970  0.000  0.000
    42H     0.03346  0.09939   0.967  0.000  0.000
    43H     0.03245  0.09837   0.968  0.000  0.000
    44H     0.02957  0.08770   0.970  0.000  0.000
    45H     0.02648  0.08529   0.974  0.000  0.000
    46H     0.02843  0.08651   0.972  0.000  0.000
    47H     0.03829  0.09641   0.962  0.000  0.000
    48H     0.03595  0.09478   0.964  0.000  0.000
    49H     0.16434  0.37261   0.836  0.000  0.000
    50H     0.03011  0.08824   0.970  0.000  0.000
    51H     0.03289  0.09881   0.967  0.000  0.000
    52H     0.03260  0.09852   0.967  0.000  0.000
    53H     0.02928  0.08744   0.971  0.000  0.000
    54H     0.02598  0.08469   0.974  0.000  0.000
    55H     0.03317  0.08961   0.967  0.000  0.000
    56C    -0.01962 -0.06045   1.089  2.930  0.000
    57C     0.06370  0.12410   1.105  2.831  0.000
    58C    -0.03228 -0.07760   1.081  2.951  0.000
    59C    -0.03006 -0.07500   1.075  2.955  0.000
    60C     0.06527  0.12929   1.100  2.835  0.000
    61N    -0.15736 -0.51033   1.311  3.846  0.000
    62C     0.01128  0.01721   1.089  2.899  0.000
    63C     0.02340  0.01692   1.099  2.878  0.000
    64C    -0.01491 -0.06262   1.080  2.935  0.000
    65C     0.05560  0.08027   1.128  2.816  0.000
    66N    -0.25360 -0.44946   1.376  3.878  0.000
    67C     0.05497  0.07969   1.128  2.817  0.000
    68C    -0.01653 -0.06417   1.078  2.939  0.000
    69C     0.06161  0.12970   1.117  2.822  0.000
    70C    -0.03526 -0.08125   1.084  2.952  0.000
    71C    -0.03615 -0.08160   1.090  2.946  0.000
    72N    -0.28316 -0.46982   1.292  3.991  0.000
    73C     0.06599  0.13685   1.130  2.804  0.000
    74C     0.01934  0.02654   1.085  2.895  0.000
    75C     0.06792  0.13286   1.109  2.823  0.000
    76C    -0.03119 -0.07562   1.079  2.952  0.000
    77C    -0.03014 -0.07509   1.074  2.956  0.000
    78C     0.06437  0.12776   1.098  2.838  0.000
    79N    -0.15527 -0.50750   1.313  3.842  0.000
    80C     0.01063  0.01660   1.089  2.900  0.000
    81C     0.02328  0.01682   1.099  2.878  0.000
    82C    -0.01620 -0.06385   1.078  2.938  0.000
    83C     0.05511  0.07981   1.128  2.817  0.000
    84N    -0.25390 -0.44974   1.376  3.878  0.000
    85C     0.05517  0.07985   1.128  2.816  0.000
    86C    -0.01546 -0.06318   1.080  2.936  0.000
    87C     0.06304  0.13248   1.120  2.817  0.000
    88C    -0.03542 -0.08140   1.085  2.950  0.000
    89C    -0.03743 -0.08382   1.091  2.946  0.000
    90C     0.06070  0.12639   1.125  2.814  0.000
    91N    -0.28553 -0.47255   1.292  3.993  0.000
    92H     0.03215  0.09117   0.968  0.000  0.000
    93H     0.04323  0.09991   0.957  0.000  0.000
    94H     0.03564  0.09440   0.964  0.000  0.000
    95H     0.16552  0.37384   0.834  0.000  0.000
    96H     0.03002  0.08818   0.970  0.000  0.000
    97H     0.03339  0.09931   0.967  0.000  0.000
    98H     0.03248  0.09840   0.968  0.000  0.000
    99H     0.02961  0.08774   0.970  0.000  0.000
   100H     0.02648  0.08528   0.974  0.000  0.000
   101H     0.02847  0.08656   0.972  0.000  0.000
   102H     0.03829  0.09640   0.962  0.000  0.000
   103H     0.03592  0.09474   0.964  0.000  0.000
   104H     0.16431  0.37259   0.836  0.000  0.000
   105H     0.03014  0.08828   0.970  0.000  0.000
   106H     0.03287  0.09879   0.967  0.000  0.000
   107H     0.03259  0.09851   0.967  0.000  0.000
   108H     0.02922  0.08739   0.971  0.000  0.000
   109H     0.02596  0.08468   0.974  0.000  0.000
   110H     0.03316  0.08960   0.967  0.000  0.000
   111C    -0.01265 -0.01275   1.077  2.936  0.000
   112C    -0.01490 -0.01500   1.075  2.940  0.000
   113C    -0.01708 -0.01785   1.062  2.955  0.000
   114C    -0.01634 -0.01797   1.091  2.925  0.000
   115C    -0.01908 -0.01982   1.060  2.959  0.000
   116C    -0.01407 -0.01566   1.094  2.920  0.000
   117C    -0.01376 -0.01386   1.076  2.938  0.000
   118C    -0.01436 -0.01446   1.075  2.939  0.000
   119C    -0.01804 -0.01878   1.061  2.957  0.000
   120C    -0.01576 -0.01734   1.092  2.924  0.000
   121C    -0.01852 -0.01926   1.061  2.958  0.000
   122C    -0.01507 -0.01666   1.093  2.923  0.000
   123C    -0.01388 -0.01399   1.076  2.938  0.000
   124C    -0.01381 -0.01392   1.076  2.938  0.000
   125C    -0.01820 -0.01894   1.061  2.957  0.000
   126C    -0.01520 -0.01679   1.092  2.923  0.000
   127C    -0.01805 -0.01879   1.061  2.957  0.000
   128C    -0.01519 -0.01678   1.092  2.923  0.000
   129C    -0.01371 -0.01381   1.076  2.938  0.000
   130C    -0.01371 -0.01381   1.076  2.938  0.000
   131C    -0.01800 -0.01875   1.061  2.957  0.000
   132C    -0.01507 -0.01667   1.092  2.923  0.000
   133C    -0.01800 -0.01875   1.061  2.957  0.000
   134C    -0.01507 -0.01667   1.092  2.923  0.000
   135C    -0.01380 -0.01390   1.076  2.938  0.000
   136C    -0.01388 -0.01399   1.076  2.938  0.000
   137C    -0.01803 -0.01878   1.061  2.957  0.000
   138C    -0.01520 -0.01680   1.092  2.923  0.000
   139C    -0.01820 -0.01894   1.061  2.957  0.000
   140C    -0.01520 -0.01679   1.092  2.923  0.000
   141C    -0.01435 -0.01445   1.075  2.939  0.000
   142C    -0.01378 -0.01388   1.076  2.938  0.000
   143C    -0.01851 -0.01925   1.061  2.958  0.000
   144C    -0.01509 -0.01668   1.093  2.923  0.000
   145C    -0.01806 -0.01880   1.061  2.957  0.000
   146C    -0.01575 -0.01733   1.092  2.924  0.000
   147C    -0.01487 -0.01498   1.075  2.940  0.000
   148C    -0.01264 -0.01274   1.077  2.936  0.000
   149C    -0.01906 -0.01980   1.060  2.959  0.000
   150C    -0.01406 -0.01564   1.094  2.920  0.000
   151C    -0.01707 -0.01784   1.062  2.955  0.000
   152C    -0.01631 -0.01794   1.091  2.925  0.000
   153C     0.01664  0.02388   1.083  2.901  0.000
   154C     0.06740  0.13233   1.109  2.823  0.000
   155C    -0.03325 -0.07769   1.078  2.955  0.000
   156C    -0.03091 -0.07582   1.074  2.957  0.000
   157C     0.06281  0.12627   1.095  2.842  0.000
   158N    -0.15486 -0.50728   1.313  3.842  0.000
   159C     0.01343  0.01926   1.091  2.896  0.000
   160C     0.02399  0.01745   1.099  2.877  0.000
   161C    -0.01476 -0.06247   1.080  2.935  0.000
   162C     0.05550  0.08019   1.129  2.816  0.000
   163N    -0.25383 -0.44972   1.376  3.878  0.000
   164C     0.05507  0.07979   1.128  2.817  0.000
   165C    -0.01600 -0.06366   1.078  2.938  0.000
   166C     0.06048  0.12851   1.115  2.824  0.000
   167C    -0.03571 -0.08168   1.084  2.952  0.000
   168C    -0.03722 -0.08267   1.090  2.948  0.000
   169N    -0.28296 -0.46921   1.292  3.991  0.000
   170C     0.06570  0.13661   1.130  2.805  0.000
   171C     0.01804  0.02529   1.084  2.898  0.000
   172C     0.06758  0.13255   1.109  2.823  0.000
   173C    -0.03251 -0.07695   1.078  2.954  0.000
   174C    -0.03067 -0.07559   1.074  2.957  0.000
   175C     0.06306  0.12650   1.096  2.841  0.000
   176N    -0.15451 -0.50695   1.313  3.842  0.000
   177C     0.01331  0.01915   1.091  2.896  0.000
   178C     0.02394  0.01740   1.099  2.877  0.000
   179C    -0.01483 -0.06255   1.080  2.935  0.000
   180C     0.05546  0.08015   1.128  2.816  0.000
   181N    -0.25377 -0.44966   1.376  3.878  0.000
   182C     0.05520  0.07992   1.128  2.817  0.000
   183C    -0.01589 -0.06355   1.078  2.938  0.000
   184C     0.06063  0.12871   1.115  2.824  0.000
   185C    -0.03560 -0.08158   1.084  2.952  0.000
   186C    -0.03747 -0.08293   1.089  2.948  0.000
   187C     0.06558  0.13641   1.130  2.805  0.000
   188N    -0.28348 -0.46968   1.292  3.992  0.000
   189H     0.03625  0.09433   0.964  0.000  0.000
   190H     0.03443  0.09331   0.966  0.000  0.000
   191H     0.16439  0.37236   0.836  0.000  0.000
   192H     0.02987  0.08801   0.970  0.000  0.000
   193H     0.03284  0.09877   0.967  0.000  0.000
   194H     0.03229  0.09822   0.968  0.000  0.000
   195H     0.02989  0.08799   0.970  0.000  0.000
   196H     0.02535  0.08418   0.975  0.000  0.000
   197H     0.02713  0.08516   0.973  0.000  0.000
   198H     0.03744  0.09552   0.963  0.000  0.000
   199H     0.03497  0.09386   0.965  0.000  0.000
   200H     0.16430  0.37227   0.836  0.000  0.000
   201H     0.02965  0.08779   0.970  0.000  0.000
   202H     0.03267  0.09860   0.967  0.000  0.000
   203H     0.03258  0.09850   0.967  0.000  0.000
   204H     0.03009  0.08821   0.970  0.000  0.000
   205H     0.02523  0.08408   0.975  0.000  0.000
   206H     0.02665  0.08469   0.973  0.000  0.000
   207C     0.01753  0.02477   1.084  2.899  0.000
   208C     0.06754  0.13250   1.109  2.823  0.000
   209C    -0.03277 -0.07721   1.078  2.955  0.000
   210C    -0.03072 -0.07564   1.074  2.957  0.000
   211C     0.06296  0.12640   1.096  2.841  0.000
   212N    -0.15460 -0.50705   1.313  3.842  0.000
   213C     0.01348  0.01932   1.091  2.896  0.000
   214C     0.02396  0.01743   1.099  2.877  0.000
   215C    -0.01477 -0.06249   1.080  2.935  0.000
   216C     0.05550  0.08018   1.128  2.816  0.000
   217N    -0.25377 -0.44967   1.376  3.878  0.000
   218C     0.05517  0.07989   1.128  2.817  0.000
   219C    -0.01590 -0.06356   1.078  2.938  0.000
   220C     0.06057  0.12860   1.115  2.824  0.000
   221C    -0.03562 -0.08160   1.084  2.952  0.000
   222C    -0.03727 -0.08272   1.090  2.948  0.000
   223N    -0.28304 -0.46931   1.292  3.991  0.000
   224C     0.06570  0.13660   1.130  2.805  0.000
   225C     0.01773  0.02497   1.084  2.899  0.000
   226C     0.06762  0.13260   1.109  2.823  0.000
   227C    -0.03259 -0.07703   1.078  2.954  0.000
   228C    -0.03061 -0.07553   1.074  2.957  0.000
   229C     0.06301  0.12645   1.096  2.841  0.000
   230N    -0.15457 -0.50703   1.313  3.842  0.000
   231C     0.01349  0.01933   1.091  2.896  0.000
   232C     0.02396  0.01742   1.099  2.877  0.000
   233C    -0.01480 -0.06251   1.080  2.935  0.000
   234C     0.05548  0.08016   1.128  2.816  0.000
   235N    -0.25376 -0.44965   1.376  3.878  0.000
   236C     0.05521  0.07992   1.128  2.817  0.000
   237C    -0.01587 -0.06354   1.078  2.938  0.000
   238C     0.06053  0.12857   1.115  2.824  0.000
   239C    -0.03569 -0.08167   1.084  2.952  0.000
   240C    -0.03741 -0.08286   1.090  2.948  0.000
   241C     0.06561  0.13649   1.130  2.805  0.000
   242N    -0.28310 -0.46934   1.292  3.991  0.000
   243H     0.03703  0.09512   0.963  0.000  0.000
   244H     0.03476  0.09363   0.965  0.000  0.000
   245H     0.16436  0.37235   0.836  0.000  0.000
   246H     0.02975  0.08789   0.970  0.000  0.000
   247H     0.03276  0.09869   0.967  0.000  0.000
   248H     0.03245  0.09838   0.968  0.000  0.000
   249H     0.03002  0.08814   0.970  0.000  0.000
   250H     0.02533  0.08417   0.975  0.000  0.000
   251H     0.02696  0.08500   0.973  0.000  0.000
   252H     0.03729  0.09538   0.963  0.000  0.000
   253H     0.03492  0.09380   0.965  0.000  0.000
   254H     0.16436  0.37235   0.836  0.000  0.000
   255H     0.02970  0.08784   0.970  0.000  0.000
   256H     0.03270  0.09862   0.967  0.000  0.000
   257H     0.03254  0.09847   0.967  0.000  0.000
   258H     0.03008  0.08821   0.970  0.000  0.000
   259H     0.02521  0.08404   0.975  0.000  0.000
   260H     0.02672  0.08475   0.973  0.000  0.000
   261C     0.01803  0.02527   1.084  2.898  0.000
   262C     0.06765  0.13262   1.109  2.823  0.000
   263C    -0.03244 -0.07688   1.078  2.954  0.000
   264C    -0.03052 -0.07545   1.074  2.957  0.000
   265C     0.06319  0.12664   1.096  2.841  0.000
   266N    -0.15449 -0.50695   1.313  3.842  0.000
   267C     0.01355  0.01939   1.091  2.896  0.000
   268C     0.02393  0.01739   1.099  2.877  0.000
   269C    -0.01477 -0.06249   1.080  2.935  0.000
   270C     0.05554  0.08022   1.128  2.816  0.000
   271N    -0.25365 -0.44954   1.376  3.878  0.000
   272C     0.05523  0.07995   1.128  2.816  0.000
   273C    -0.01588 -0.06354   1.078  2.938  0.000
   274C     0.06074  0.12877   1.115  2.824  0.000
   275C    -0.03553 -0.08152   1.084  2.952  0.000
   276C    -0.03715 -0.08261   1.090  2.948  0.000
   277N    -0.28291 -0.46919   1.292  3.991  0.000
   278C     0.06579  0.13670   1.130  2.805  0.000
   279C     0.01797  0.02521   1.084  2.898  0.000
   280C     0.06766  0.13263   1.109  2.823  0.000
   281C    -0.03242 -0.07686   1.078  2.954  0.000
   282C    -0.03048 -0.07540   1.074  2.957  0.000
   283C     0.06320  0.12664   1.096  2.841  0.000
   284N    -0.15452 -0.50698   1.313  3.842  0.000
   285C     0.01356  0.01940   1.091  2.895  0.000
   286C     0.02393  0.01739   1.099  2.877  0.000
   287C    -0.01477 -0.06249   1.080  2.935  0.000
   288C     0.05554  0.08022   1.128  2.816  0.000
   289N    -0.25365 -0.44954   1.376  3.878  0.000
   290C     0.05524  0.07996   1.128  2.816  0.000
   291C    -0.01588 -0.06354   1.078  2.938  0.000
   292C     0.06073  0.12876   1.115  2.824  0.000
   293C    -0.03555 -0.08154   1.084  2.952  0.000
   294C    -0.03717 -0.08263   1.090  2.948  0.000
   295C     0.06573  0.13663   1.130  2.805  0.000
   296N    -0.28290 -0.46916   1.292  3.991  0.000
   297H     0.03739  0.09548   0.963  0.000  0.000
   298H     0.03504  0.09390   0.965  0.000  0.000
   299H     0.16447  0.37246   0.836  0.000  0.000
   300H     0.02979  0.08794   0.970  0.000  0.000
   301H     0.03285  0.09878   0.967  0.000  0.000
   302H     0.03261  0.09854   0.967  0.000  0.000
   303H     0.03013  0.08826   0.970  0.000  0.000
   304H     0.02547  0.08432   0.975  0.000  0.000
   305H     0.02709  0.08515   0.973  0.000  0.000
   306H     0.03743  0.09551   0.963  0.000  0.000
   307H     0.03508  0.09395   0.965  0.000  0.000
   308H     0.16447  0.37246   0.836  0.000  0.000
   309H     0.02979  0.08793   0.970  0.000  0.000
   310H     0.03284  0.09877   0.967  0.000  0.000
   311H     0.03263  0.09855   0.967  0.000  0.000
   312H     0.03014  0.08826   0.970  0.000  0.000
   313H     0.02545  0.08428   0.975  0.000  0.000
   314H     0.02706  0.08509   0.973  0.000  0.000
   315C     0.01797  0.02521   1.084  2.898  0.000
   316C     0.06765  0.13262   1.109  2.823  0.000
   317C    -0.03242 -0.07686   1.078  2.954  0.000
   318C    -0.03049 -0.07541   1.074  2.957  0.000
   319C     0.06320  0.12664   1.096  2.841  0.000
   320N    -0.15452 -0.50698   1.313  3.842  0.000
   321C     0.01356  0.01940   1.091  2.895  0.000
   322C     0.02393  0.01739   1.099  2.877  0.000
   323C    -0.01477 -0.06249   1.080  2.935  0.000
   324C     0.05554  0.08022   1.128  2.816  0.000
   325N    -0.25365 -0.44954   1.376  3.878  0.000
   326C     0.05524  0.07996   1.128  2.816  0.000
   327C    -0.01588 -0.06354   1.078  2.938  0.000
   328C     0.06073  0.12875   1.115  2.824  0.000
   329C    -0.03556 -0.08155   1.084  2.952  0.000
   330C    -0.03717 -0.08263   1.090  2.948  0.000
   331N    -0.28289 -0.46915   1.292  3.991  0.000
   332C     0.06576  0.13666   1.130  2.805  0.000
   333C     0.01803  0.02527   1.084  2.898  0.000
   334C     0.06763  0.13259   1.109  2.823  0.000
   335C    -0.03244 -0.07688   1.078  2.954  0.000
   336C    -0.03052 -0.07544   1.074  2.957  0.000
   337C     0.06319  0.12664   1.096  2.841  0.000
   338N    -0.15450 -0.50696   1.313  3.842  0.000
   339C     0.01354  0.01938   1.091  2.896  0.000
   340C     0.02393  0.01739   1.099  2.877  0.000
   341C    -0.01477 -0.06250   1.080  2.935  0.000
   342C     0.05554  0.08022   1.128  2.816  0.000
   343N    -0.25365 -0.44955   1.376  3.878  0.000
   344C     0.05523  0.07995   1.128  2.816  0.000
   345C    -0.01589 -0.06354   1.078  2.938  0.000
   346C     0.06075  0.12877   1.115  2.824  0.000
   347C    -0.03553 -0.08152   1.084  2.952  0.000
   348C    -0.03715 -0.08261   1.090  2.948  0.000
   349C     0.06579  0.13670   1.130  2.805  0.000
   350N    -0.28292 -0.46919   1.292  3.991  0.000
   351H     0.03742  0.09550   0.963  0.000  0.000
   352H     0.03508  0.09394   0.965  0.000  0.000
   353H     0.16447  0.37246   0.836  0.000  0.000
   354H     0.02979  0.08793   0.970  0.000  0.000
   355H     0.03284  0.09877   0.967  0.000  0.000
   356H     0.03263  0.09855   0.967  0.000  0.000
   357H     0.03014  0.08827   0.970  0.000  0.000
   358H     0.02544  0.08429   0.975  0.000  0.000
   359H     0.02707  0.08512   0.973  0.000  0.000
   360H     0.03739  0.09546   0.963  0.000  0.000
   361H     0.03504  0.09390   0.965  0.000  0.000
   362H     0.16447  0.37246   0.836  0.000  0.000
   363H     0.02979  0.08793   0.970  0.000  0.000
   364H     0.03285  0.09878   0.967  0.000  0.000
   365H     0.03261  0.09854   0.967  0.000  0.000
   366H     0.03013  0.08826   0.970  0.000  0.000
   367H     0.02547  0.08432   0.975  0.000  0.000
   368H     0.02710  0.08516   0.973  0.000  0.000
   369C     0.01773  0.02497   1.084  2.899  0.000
   370C     0.06760  0.13256   1.109  2.823  0.000
   371C    -0.03259 -0.07703   1.078  2.954  0.000
   372C    -0.03061 -0.07553   1.074  2.957  0.000
   373C     0.06302  0.12646   1.096  2.841  0.000
   374N    -0.15458 -0.50704   1.313  3.842  0.000
   375C     0.01348  0.01932   1.091  2.896  0.000
   376C     0.02396  0.01742   1.099  2.877  0.000
   377C    -0.01479 -0.06251   1.080  2.935  0.000
   378C     0.05548  0.08016   1.128  2.816  0.000
   379N    -0.25376 -0.44966   1.376  3.878  0.000
   380C     0.05520  0.07992   1.128  2.817  0.000
   381C    -0.01588 -0.06354   1.078  2.938  0.000
   382C     0.06053  0.12857   1.115  2.824  0.000
   383C    -0.03569 -0.08168   1.084  2.952  0.000
   384C    -0.03741 -0.08286   1.090  2.948  0.000
   385N    -0.28310 -0.46934   1.292  3.991  0.000
   386C     0.06561  0.13650   1.130  2.805  0.000
   387C     0.01754  0.02478   1.084  2.899  0.000
   388C     0.06753  0.13248   1.109  2.823  0.000
   389C    -0.03277 -0.07721   1.078  2.955  0.000
   390C    -0.03072 -0.07564   1.074  2.957  0.000
   391C     0.06295  0.12640   1.096  2.841  0.000
   392N    -0.15460 -0.50705   1.313  3.842  0.000
   393C     0.01348  0.01932   1.091  2.896  0.000
   394C     0.02397  0.01743   1.099  2.877  0.000
   395C    -0.01476 -0.06249   1.080  2.935  0.000
   396C     0.05550  0.08019   1.128  2.816  0.000
   397N    -0.25377 -0.44967   1.376  3.878  0.000
   398C     0.05517  0.07989   1.128  2.817  0.000
   399C    -0.01590 -0.06356   1.078  2.938  0.000
   400C     0.06057  0.12860   1.115  2.824  0.000
   401C    -0.03562 -0.08161   1.084  2.952  0.000
   402C    -0.03726 -0.08272   1.090  2.948  0.000
   403C     0.06573  0.13664   1.130  2.805  0.000
   404N    -0.28304 -0.46931   1.292  3.991  0.000
   405H     0.03728  0.09536   0.963  0.000  0.000
   406H     0.03492  0.09379   0.965  0.000  0.000
   407H     0.16436  0.37235   0.836  0.000  0.000
   408H     0.02969  0.08783   0.970  0.000  0.000
   409H     0.03269  0.09862   0.967  0.000  0.000
   410H     0.03255  0.09847   0.967  0.000  0.000
   411H     0.03009  0.08821   0.970  0.000  0.000
   412H     0.02521  0.08404   0.975  0.000  0.000
   413H     0.02673  0.08476   0.973  0.000  0.000
   414H     0.03703  0.09512   0.963  0.000  0.000
   415H     0.03475  0.09362   0.965  0.000  0.000
   416H     0.16437  0.37235   0.836  0.000  0.000
   417H     0.02974  0.08788   0.970  0.000  0.000
   418H     0.03276  0.09869   0.967  0.000  0.000
   419H     0.03245  0.09837   0.968  0.000  0.000
   420H     0.03003  0.08815   0.970  0.000  0.000
   421H     0.02532  0.08417   0.975  0.000  0.000
   422H     0.02697  0.08502   0.973  0.000  0.000
   423C     0.01802  0.02527   1.084  2.898  0.000
   424C     0.06758  0.13255   1.109  2.823  0.000
   425C    -0.03252 -0.07696   1.078  2.954  0.000
   426C    -0.03067 -0.07559   1.074  2.957  0.000
   427C     0.06305  0.12648   1.096  2.841  0.000
   428N    -0.15452 -0.50697   1.313  3.842  0.000
   429C     0.01329  0.01913   1.091  2.896  0.000
   430C     0.02393  0.01739   1.099  2.877  0.000
   431C    -0.01483 -0.06254   1.080  2.935  0.000
   432C     0.05544  0.08012   1.128  2.816  0.000
   433N    -0.25375 -0.44964   1.376  3.878  0.000
   434C     0.05523  0.07994   1.128  2.817  0.000
   435C    -0.01586 -0.06353   1.078  2.938  0.000
   436C     0.06061  0.12870   1.115  2.824  0.000
   437C    -0.03559 -0.08157   1.084  2.952  0.000
   438C    -0.03748 -0.08294   1.089  2.948  0.000
   439N    -0.28344 -0.46969   1.292  3.992  0.000
   440C     0.06556  0.13639   1.130  2.805  0.000
   441C     0.01667  0.02392   1.083  2.901  0.000
   442C     0.06738  0.13231   1.109  2.823  0.000
   443C    -0.03328 -0.07772   1.078  2.955  0.000
   444C    -0.03092 -0.07583   1.074  2.957  0.000
   445C     0.06278  0.12625   1.096  2.842  0.000
   446N    -0.15484 -0.50728   1.313  3.842  0.000
   447C     0.01342  0.01925   1.091  2.896  0.000
   448C     0.02397  0.01743   1.099  2.877  0.000
   449C    -0.01475 -0.06246   1.080  2.935  0.000
   450C     0.05550  0.08019   1.129  2.816  0.000
   451N    -0.25383 -0.44971   1.376  3.878  0.000
   452C     0.05507  0.07978   1.128  2.817  0.000
   453C    -0.01598 -0.06364   1.078  2.938  0.000
   454C     0.06048  0.12850   1.115  2.824  0.000
   455C    -0.03569 -0.08167   1.084  2.952  0.000
   456C    -0.03722 -0.08267   1.090  2.948  0.000
   457C     0.06572  0.13663   1.130  2.805  0.000
   458N    -0.28296 -0.46921   1.292  3.991  0.000
   459H     0.03743  0.09551   0.963  0.000  0.000
   460H     0.03495  0.09383   0.965  0.000  0.000
   461H     0.16428  0.37227   0.836  0.000  0.000
   462H     0.02956  0.08771   0.970  0.000  0.000
   463H     0.03261  0.09854   0.967  0.000  0.000
   464H     0.03261  0.09854   0.967  0.000  0.000
   465H     0.03013  0.08825   0.970  0.000  0.000
   466H     0.02524  0.08407   0.975  0.000  0.000
   467H     0.02670  0.08474   0.973  0.000  0.000
   468H     0.03628  0.09435   0.964  0.000  0.000
   469H     0.03442  0.09328   0.966  0.000  0.000
   470H     0.16437  0.37235   0.836  0.000  0.000
   471H     0.02982  0.08796   0.970  0.000  0.000
   472H     0.03285  0.09877   0.967  0.000  0.000
   473H     0.03229  0.09821   0.968  0.000  0.000
   474H     0.02992  0.08803   0.970  0.000  0.000
   475H     0.02534  0.08418   0.975  0.000  0.000
   476H     0.02713  0.08516   0.973  0.000  0.000

Wiberg/Mayer (AO) data.
largest (>0.10) Wiberg bond orders for each atom

 ---------------------------------------------------------------------------
     #   Z sym  total        # sym  WBO       # sym  WBO       # sym  WBO
 ---------------------------------------------------------------------------
     1   6 C    3.818 --    35 C    1.386     2 C    1.374    37 H    0.995
     2   6 C    3.924 --     1 C    1.374     3 C    1.239     6 N    1.229
     3   6 C    3.840 --     4 C    1.601     2 C    1.239    38 H    0.992
     4   6 C    3.824 --     3 C    1.601     5 C    1.249    39 H    0.997
     5   6 C    3.899 --     7 C    1.341     4 C    1.249     6 N    1.231
     6   7 N    3.248 --     5 C    1.231     2 C    1.229    40 H    0.960
     7   6 C    3.843 --    14 C    1.367     5 C    1.341     8 C    1.051
     8   6 C    3.907 --     9 C    1.425    13 C    1.425     7 C    1.051
     9   6 C    3.870 --    10 C    1.447     8 C    1.425    41 H    0.987
                            12 C    0.101
    10   6 C    3.999 --    11 N    1.479     9 C    1.447    42 H    0.982
                            13 C    0.101
    11   7 N    2.941 --    12 C    1.480    10 C    1.479
    12   6 C    3.999 --    11 N    1.480    13 C    1.447    43 H    0.983
                             9 C    0.101
    13   6 C    3.865 --    12 C    1.447     8 C    1.425    44 H    0.987
                            10 C    0.101
    14   6 C    3.924 --     7 C    1.367    17 N    1.355    15 C    1.159
    15   6 C    3.837 --    16 C    1.695    14 C    1.159    45 H    0.997
    16   6 C    3.851 --    15 C    1.695    18 C    1.164    46 H    0.998
    17   7 N    2.568 --    18 C    1.413    14 C    1.355
    18   6 C    3.942 --    17 N    1.413    19 C    1.288    16 C    1.164
    19   6 C    3.853 --    20 C    1.289    18 C    1.288   114 C    1.219
    20   6 C    3.903 --    19 C    1.289    21 C    1.264    24 N    1.249
    21   6 C    3.835 --    22 C    1.587    20 C    1.264    47 H    0.997
    22   6 C    3.816 --    21 C    1.587    23 C    1.256    48 H    0.996
    23   6 C    3.894 --    25 C    1.345    22 C    1.256    24 N    1.222
    24   7 N    3.259 --    20 C    1.249    23 C    1.222    49 H    0.959
    25   6 C    3.829 --    32 C    1.355    23 C    1.345    26 C    1.053
    26   6 C    3.907 --    27 C    1.424    31 C    1.424    25 C    1.053
    27   6 C    3.865 --    28 C    1.447    26 C    1.424    50 H    0.987
                            30 C    0.101
    28   6 C    3.999 --    29 N    1.479    27 C    1.447    51 H    0.982
                            31 C    0.101
    29   7 N    2.940 --    28 C    1.479    30 C    1.479
    30   6 C    3.999 --    29 N    1.479    31 C    1.448    52 H    0.983
                            27 C    0.101
    31   6 C    3.869 --    30 C    1.448    26 C    1.424    53 H    0.988
                            28 C    0.101
    32   6 C    3.945 --    36 N    1.382    25 C    1.355    33 C    1.151
    33   6 C    3.842 --    34 C    1.709    32 C    1.151    54 H    0.998
    34   6 C    3.862 --    33 C    1.709    35 C    1.146    55 H    0.992
    35   6 C    3.967 --     1 C    1.386    36 N    1.374    34 C    1.146
    36   7 N    2.555 --    32 C    1.382    35 C    1.374
    37   1 H    1.031 --     1 C    0.995
    38   1 H    1.014 --     3 C    0.992
    39   1 H    1.030 --     4 C    0.997
    40   1 H    1.081 --     6 N    0.960
    41   1 H    1.052 --     9 C    0.987
    42   1 H    1.053 --    10 C    0.982
    43   1 H    1.054 --    12 C    0.983
    44   1 H    1.049 --    13 C    0.987
    45   1 H    1.034 --    15 C    0.997
    46   1 H    1.031 --    16 C    0.998
    47   1 H    1.027 --    21 C    0.997
    48   1 H    1.030 --    22 C    0.996
    49   1 H    1.085 --    24 N    0.959
    50   1 H    1.049 --    27 C    0.987
    51   1 H    1.054 --    28 C    0.982
    52   1 H    1.054 --    30 C    0.983
    53   1 H    1.052 --    31 C    0.988
    54   1 H    1.034 --    33 C    0.998
    55   1 H    1.017 --    34 C    0.992
    56   6 C    3.818 --    90 C    1.386    57 C    1.374    92 H    0.995
    57   6 C    3.924 --    56 C    1.374    58 C    1.239    61 N    1.229
    58   6 C    3.839 --    59 C    1.601    57 C    1.239    93 H    0.992
    59   6 C    3.824 --    58 C    1.601    60 C    1.249    94 H    0.997
    60   6 C    3.899 --    62 C    1.341    59 C    1.249    61 N    1.231
    61   7 N    3.248 --    60 C    1.231    57 C    1.229    95 H    0.960
    62   6 C    3.843 --    69 C    1.367    60 C    1.341    63 C    1.051
    63   6 C    3.907 --    64 C    1.425    68 C    1.425    62 C    1.051
    64   6 C    3.870 --    65 C    1.447    63 C    1.425    96 H    0.987
                            67 C    0.101
    65   6 C    3.999 --    66 N    1.479    64 C    1.447    97 H    0.982
                            68 C    0.101
    66   7 N    2.941 --    67 C    1.480    65 C    1.479
    67   6 C    3.999 --    66 N    1.480    68 C    1.447    98 H    0.983
                            64 C    0.101
    68   6 C    3.865 --    67 C    1.447    63 C    1.425    99 H    0.987
                            65 C    0.101
    69   6 C    3.924 --    62 C    1.367    72 N    1.355    70 C    1.160
    70   6 C    3.837 --    71 C    1.695    69 C    1.160   100 H    0.997
    71   6 C    3.851 --    70 C    1.695    73 C    1.164   101 H    0.998
    72   7 N    2.568 --    73 C    1.413    69 C    1.355
    73   6 C    3.942 --    72 N    1.413    74 C    1.287    71 C    1.164
    74   6 C    3.853 --    75 C    1.288    73 C    1.287   152 C    1.220
    75   6 C    3.903 --    74 C    1.288    76 C    1.265    79 N    1.249
    76   6 C    3.835 --    77 C    1.587    75 C    1.265   102 H    0.997
    77   6 C    3.816 --    76 C    1.587    78 C    1.256   103 H    0.996
    78   6 C    3.894 --    80 C    1.344    77 C    1.256    79 N    1.222
    79   7 N    3.259 --    75 C    1.249    78 C    1.222   104 H    0.959
    80   6 C    3.829 --    87 C    1.355    78 C    1.344    81 C    1.053
    81   6 C    3.907 --    86 C    1.424    82 C    1.424    80 C    1.053
    82   6 C    3.865 --    83 C    1.447    81 C    1.424   105 H    0.987
                            85 C    0.101
    83   6 C    3.999 --    84 N    1.479    82 C    1.447   106 H    0.982
                            86 C    0.101
    84   7 N    2.940 --    83 C    1.479    85 C    1.479
    85   6 C    3.999 --    84 N    1.479    86 C    1.448   107 H    0.983
                            82 C    0.101
    86   6 C    3.868 --    85 C    1.448    81 C    1.424   108 H    0.988
                            83 C    0.101
    87   6 C    3.945 --    91 N    1.382    80 C    1.355    88 C    1.151
    88   6 C    3.842 --    89 C    1.709    87 C    1.151   109 H    0.998
    89   6 C    3.862 --    88 C    1.709    90 C    1.146   110 H    0.992
    90   6 C    3.967 --    56 C    1.386    91 N    1.374    89 C    1.146
    91   7 N    2.555 --    87 C    1.382    90 C    1.374
    92   1 H    1.031 --    56 C    0.995
    93   1 H    1.014 --    58 C    0.992
    94   1 H    1.030 --    59 C    0.997
    95   1 H    1.081 --    61 N    0.960
    96   1 H    1.052 --    64 C    0.987
    97   1 H    1.053 --    65 C    0.982
    98   1 H    1.054 --    67 C    0.983
    99   1 H    1.049 --    68 C    0.987
   100   1 H    1.034 --    70 C    0.997
   101   1 H    1.030 --    71 C    0.998
   102   1 H    1.027 --    76 C    0.997
   103   1 H    1.030 --    77 C    0.996
   104   1 H    1.085 --    79 N    0.959
   105   1 H    1.049 --    82 C    0.987
   106   1 H    1.054 --    83 C    0.982
   107   1 H    1.054 --    85 C    0.983
   108   1 H    1.052 --    86 C    0.988
   109   1 H    1.034 --    88 C    0.998
   110   1 H    1.017 --    89 C    0.992
   111   6 C    3.837 --   112 C    2.377   115 C    1.356   114 C    0.172
   112   6 C    3.834 --   111 C    2.377   113 C    1.355   116 C    0.171
   113   6 C    3.810 --   114 C    2.475   112 C    1.355
   114   6 C    3.768 --   113 C    2.475    19 C    1.219   111 C    0.172
   115   6 C    3.805 --   116 C    2.471   111 C    1.356
   116   6 C    3.770 --   115 C    2.471   153 C    1.224   112 C    0.171
   117   6 C    3.834 --   118 C    2.369   121 C    1.361   120 C    0.170
   118   6 C    3.834 --   117 C    2.369   119 C    1.361   122 C    0.170
   119   6 C    3.804 --   120 C    2.465   118 C    1.361
   120   6 C    3.768 --   119 C    2.465   171 C    1.228   117 C    0.170
   121   6 C    3.805 --   122 C    2.465   117 C    1.361
   122   6 C    3.768 --   121 C    2.465   207 C    1.228   118 C    0.170
   123   6 C    3.835 --   124 C    2.370   127 C    1.361   126 C    0.171
   124   6 C    3.835 --   123 C    2.370   125 C    1.361   128 C    0.171
   125   6 C    3.805 --   126 C    2.466   124 C    1.361
   126   6 C    3.768 --   125 C    2.466   225 C    1.227   123 C    0.171
   127   6 C    3.805 --   128 C    2.466   123 C    1.361
   128   6 C    3.768 --   127 C    2.466   261 C    1.227   124 C    0.171
   129   6 C    3.835 --   130 C    2.371   133 C    1.360   132 C    0.171
   130   6 C    3.835 --   129 C    2.371   131 C    1.360   134 C    0.171
   131   6 C    3.806 --   132 C    2.467   130 C    1.360
   132   6 C    3.769 --   131 C    2.467   279 C    1.227   129 C    0.171
   133   6 C    3.806 --   134 C    2.467   129 C    1.360
   134   6 C    3.769 --   133 C    2.467   315 C    1.227   130 C    0.171
   135   6 C    3.835 --   136 C    2.370   139 C    1.361   138 C    0.171
   136   6 C    3.835 --   135 C    2.370   137 C    1.361   140 C    0.171
   137   6 C    3.805 --   138 C    2.466   136 C    1.361
   138   6 C    3.768 --   137 C    2.466   333 C    1.227   135 C    0.171
   139   6 C    3.805 --   140 C    2.466   135 C    1.361
   140   6 C    3.768 --   139 C    2.466   369 C    1.228   136 C    0.171
   141   6 C    3.834 --   142 C    2.369   145 C    1.361   144 C    0.170
   142   6 C    3.834 --   141 C    2.369   143 C    1.361   146 C    0.170
   143   6 C    3.805 --   144 C    2.465   142 C    1.361
   144   6 C    3.768 --   143 C    2.465   387 C    1.228   141 C    0.170
   145   6 C    3.804 --   146 C    2.465   141 C    1.361
   146   6 C    3.768 --   145 C    2.465   423 C    1.228   142 C    0.170
   147   6 C    3.834 --   148 C    2.376   151 C    1.355   150 C    0.171
   148   6 C    3.837 --   147 C    2.376   149 C    1.357   152 C    0.172
   149   6 C    3.805 --   150 C    2.470   148 C    1.357
   150   6 C    3.770 --   149 C    2.470   441 C    1.224   147 C    0.171
   151   6 C    3.810 --   152 C    2.475   147 C    1.355
   152   6 C    3.768 --   151 C    2.475    74 C    1.220   148 C    0.172
   153   6 C    3.833 --   187 C    1.285   154 C    1.282   116 C    1.224
   154   6 C    3.904 --   153 C    1.282   155 C    1.269   158 N    1.251
   155   6 C    3.828 --   156 C    1.579   154 C    1.269   189 H    0.998
   156   6 C    3.818 --   155 C    1.579   157 C    1.262   190 H    0.997
   157   6 C    3.886 --   159 C    1.337   156 C    1.262   158 N    1.221
   158   7 N    3.250 --   154 C    1.251   157 C    1.221   191 H    0.960
   159   6 C    3.833 --   166 C    1.372   157 C    1.337   160 C    1.050
   160   6 C    3.907 --   161 C    1.426   165 C    1.426   159 C    1.050
   161   6 C    3.869 --   162 C    1.447   160 C    1.426   192 H    0.987
                           164 C    0.102
   162   6 C    3.999 --   163 N    1.479   161 C    1.447   193 H    0.983
                           165 C    0.101
   163   7 N    2.941 --   164 C    1.480   162 C    1.479
   164   6 C    3.999 --   163 N    1.480   165 C    1.447   194 H    0.983
                           161 C    0.102
   165   6 C    3.865 --   164 C    1.447   160 C    1.426   195 H    0.987
                           162 C    0.101
   166   6 C    3.923 --   159 C    1.372   169 N    1.351   167 C    1.160
   167   6 C    3.838 --   168 C    1.693   166 C    1.160   196 H    0.997
   168   6 C    3.849 --   167 C    1.693   170 C    1.166   197 H    0.999
   169   7 N    2.552 --   170 C    1.416   166 C    1.351
   170   6 C    3.942 --   169 N    1.416   171 C    1.283   168 C    1.166
   171   6 C    3.833 --   170 C    1.283   172 C    1.280   120 C    1.228
   172   6 C    3.903 --   171 C    1.280   173 C    1.270   176 N    1.251
   173   6 C    3.828 --   174 C    1.579   172 C    1.270   198 H    0.998
   174   6 C    3.818 --   173 C    1.579   175 C    1.262   199 H    0.997
   175   6 C    3.886 --   177 C    1.335   174 C    1.262   176 N    1.222
   176   7 N    3.252 --   172 C    1.251   175 C    1.222   200 H    0.960
   177   6 C    3.832 --   184 C    1.373   175 C    1.335   178 C    1.050
   178   6 C    3.907 --   179 C    1.426   183 C    1.426   177 C    1.050
   179   6 C    3.869 --   180 C    1.447   178 C    1.426   201 H    0.988
                           182 C    0.101
   180   6 C    3.999 --   181 N    1.479   179 C    1.447   202 H    0.983
                           183 C    0.101
   181   7 N    2.941 --   182 C    1.480   180 C    1.479
   182   6 C    3.999 --   181 N    1.480   183 C    1.447   203 H    0.983
                           179 C    0.101
   183   6 C    3.865 --   182 C    1.447   178 C    1.426   204 H    0.987
                           180 C    0.101
   184   6 C    3.924 --   177 C    1.373   188 N    1.351   185 C    1.159
   185   6 C    3.838 --   186 C    1.694   184 C    1.159   205 H    0.997
   186   6 C    3.849 --   185 C    1.694   187 C    1.165   206 H    0.999
   187   6 C    3.943 --   188 N    1.415   153 C    1.285   186 C    1.165
   188   7 N    2.550 --   187 C    1.415   184 C    1.351
   189   1 H    1.027 --   155 C    0.998
   190   1 H    1.031 --   156 C    0.997
   191   1 H    1.082 --   158 N    0.960
   192   1 H    1.052 --   161 C    0.987
   193   1 H    1.054 --   162 C    0.983
   194   1 H    1.054 --   164 C    0.983
   195   1 H    1.049 --   165 C    0.987
   196   1 H    1.036 --   167 C    0.997
   197   1 H    1.031 --   168 C    0.999
   198   1 H    1.027 --   173 C    0.998
   199   1 H    1.030 --   174 C    0.997
   200   1 H    1.082 --   176 N    0.960
   201   1 H    1.052 --   179 C    0.988
   202   1 H    1.054 --   180 C    0.983
   203   1 H    1.054 --   182 C    0.983
   204   1 H    1.049 --   183 C    0.987
   205   1 H    1.036 --   185 C    0.997
   206   1 H    1.031 --   186 C    0.999
   207   6 C    3.834 --   241 C    1.283   208 C    1.280   122 C    1.228
   208   6 C    3.903 --   207 C    1.280   209 C    1.270   212 N    1.251
   209   6 C    3.829 --   210 C    1.579   208 C    1.270   243 H    0.998
   210   6 C    3.818 --   209 C    1.579   211 C    1.262   244 H    0.997
   211   6 C    3.886 --   213 C    1.336   210 C    1.262   212 N    1.222
   212   7 N    3.251 --   208 C    1.251   211 C    1.222   245 H    0.960
   213   6 C    3.832 --   220 C    1.373   211 C    1.336   214 C    1.050
   214   6 C    3.907 --   219 C    1.426   215 C    1.426   213 C    1.050
   215   6 C    3.869 --   216 C    1.447   214 C    1.426   246 H    0.988
                           218 C    0.102
   216   6 C    3.999 --   217 N    1.479   215 C    1.447   247 H    0.983
                           219 C    0.101
   217   7 N    2.941 --   218 C    1.480   216 C    1.479
   218   6 C    3.999 --   217 N    1.480   219 C    1.447   248 H    0.983
                           215 C    0.102
   219   6 C    3.865 --   218 C    1.447   214 C    1.426   249 H    0.987
                           216 C    0.101
   220   6 C    3.924 --   213 C    1.373   223 N    1.351   221 C    1.160
   221   6 C    3.838 --   222 C    1.693   220 C    1.160   250 H    0.997
   222   6 C    3.849 --   221 C    1.693   224 C    1.166   251 H    0.999
   223   7 N    2.551 --   224 C    1.416   220 C    1.351
   224   6 C    3.943 --   223 N    1.416   225 C    1.283   222 C    1.166
   225   6 C    3.834 --   224 C    1.283   226 C    1.281   126 C    1.227
   226   6 C    3.904 --   225 C    1.281   227 C    1.270   230 N    1.251
   227   6 C    3.829 --   228 C    1.579   226 C    1.270   252 H    0.998
   228   6 C    3.818 --   227 C    1.579   229 C    1.262   253 H    0.997
   229   6 C    3.886 --   231 C    1.336   228 C    1.262   230 N    1.222
   230   7 N    3.251 --   226 C    1.251   229 C    1.222   254 H    0.960
   231   6 C    3.832 --   238 C    1.372   229 C    1.336   232 C    1.050
   232   6 C    3.907 --   233 C    1.426   237 C    1.426   231 C    1.050
   233   6 C    3.869 --   234 C    1.447   232 C    1.426   255 H    0.988
                           236 C    0.102
   234   6 C    3.999 --   235 N    1.479   233 C    1.447   256 H    0.983
                           237 C    0.101
   235   7 N    2.941 --   236 C    1.480   234 C    1.479
   236   6 C    3.999 --   235 N    1.480   237 C    1.447   257 H    0.983
                           233 C    0.102
   237   6 C    3.865 --   236 C    1.447   232 C    1.426   258 H    0.987
                           234 C    0.101
   238   6 C    3.924 --   231 C    1.372   242 N    1.351   239 C    1.160
   239   6 C    3.838 --   240 C    1.693   238 C    1.160   259 H    0.997
   240   6 C    3.849 --   239 C    1.693   241 C    1.166   260 H    0.999
   241   6 C    3.943 --   242 N    1.416   207 C    1.283   240 C    1.166
   242   7 N    2.551 --   241 C    1.416   238 C    1.351
   243   1 H    1.027 --   209 C    0.998
   244   1 H    1.031 --   210 C    0.997
   245   1 H    1.082 --   212 N    0.960
   246   1 H    1.052 --   215 C    0.988
   247   1 H    1.054 --   216 C    0.983
   248   1 H    1.054 --   218 C    0.983
   249   1 H    1.049 --   219 C    0.987
   250   1 H    1.036 --   221 C    0.997
   251   1 H    1.031 --   222 C    0.999
   252   1 H    1.027 --   227 C    0.998
   253   1 H    1.030 --   228 C    0.997
   254   1 H    1.082 --   230 N    0.960
   255   1 H    1.052 --   233 C    0.988
   256   1 H    1.054 --   234 C    0.983
   257   1 H    1.054 --   236 C    0.983
   258   1 H    1.049 --   237 C    0.987
   259   1 H    1.036 --   239 C    0.997
   260   1 H    1.031 --   240 C    0.999
   261   6 C    3.836 --   295 C    1.283   262 C    1.281   128 C    1.227
   262   6 C    3.904 --   261 C    1.281   263 C    1.270   266 N    1.251
   263   6 C    3.829 --   264 C    1.579   262 C    1.270   297 H    0.998
   264   6 C    3.819 --   263 C    1.579   265 C    1.262   298 H    0.997
   265   6 C    3.887 --   267 C    1.336   264 C    1.262   266 N    1.222
   266   7 N    3.251 --   262 C    1.251   265 C    1.222   299 H    0.960
   267   6 C    3.832 --   274 C    1.372   265 C    1.336   268 C    1.050
   268   6 C    3.907 --   269 C    1.426   273 C    1.426   267 C    1.050
   269   6 C    3.869 --   270 C    1.447   268 C    1.426   300 H    0.988
                           272 C    0.102
   270   6 C    3.999 --   271 N    1.479   269 C    1.447   301 H    0.983
                           273 C    0.101
   271   7 N    2.941 --   272 C    1.480   270 C    1.479
   272   6 C    3.999 --   271 N    1.480   273 C    1.447   302 H    0.983
                           269 C    0.102
   273   6 C    3.865 --   272 C    1.447   268 C    1.426   303 H    0.987
                           270 C    0.101
   274   6 C    3.924 --   267 C    1.372   277 N    1.351   275 C    1.160
   275   6 C    3.838 --   276 C    1.694   274 C    1.160   304 H    0.997
   276   6 C    3.849 --   275 C    1.694   278 C    1.166   305 H    0.999
   277   7 N    2.552 --   278 C    1.416   274 C    1.351
   278   6 C    3.943 --   277 N    1.416   279 C    1.283   276 C    1.166
   279   6 C    3.836 --   278 C    1.283   280 C    1.281   132 C    1.227
   280   6 C    3.904 --   279 C    1.281   281 C    1.270   284 N    1.251
   281   6 C    3.829 --   282 C    1.580   280 C    1.270   306 H    0.997
   282   6 C    3.819 --   281 C    1.580   283 C    1.262   307 H    0.997
   283   6 C    3.887 --   285 C    1.336   282 C    1.262   284 N    1.222
   284   7 N    3.251 --   280 C    1.251   283 C    1.222   308 H    0.960
   285   6 C    3.832 --   292 C    1.372   283 C    1.336   286 C    1.050
   286   6 C    3.907 --   287 C    1.426   291 C    1.426   285 C    1.050
   287   6 C    3.869 --   288 C    1.447   286 C    1.426   309 H    0.988
                           290 C    0.102
   288   6 C    3.999 --   289 N    1.479   287 C    1.447   310 H    0.983
                           291 C    0.101
   289   7 N    2.941 --   290 C    1.480   288 C    1.479
   290   6 C    3.999 --   289 N    1.480   291 C    1.447   311 H    0.983
                           287 C    0.102
   291   6 C    3.865 --   290 C    1.447   286 C    1.426   312 H    0.987
                           288 C    0.101
   292   6 C    3.924 --   285 C    1.372   296 N    1.351   293 C    1.160
   293   6 C    3.838 --   294 C    1.693   292 C    1.160   313 H    0.997
   294   6 C    3.849 --   293 C    1.693   295 C    1.166   314 H    0.999
   295   6 C    3.943 --   296 N    1.416   261 C    1.283   294 C    1.166
   296   7 N    2.552 --   295 C    1.416   292 C    1.351
   297   1 H    1.027 --   263 C    0.998
   298   1 H    1.030 --   264 C    0.997
   299   1 H    1.082 --   266 N    0.960
   300   1 H    1.052 --   269 C    0.988
   301   1 H    1.054 --   270 C    0.983
   302   1 H    1.054 --   272 C    0.983
   303   1 H    1.049 --   273 C    0.987
   304   1 H    1.036 --   275 C    0.997
   305   1 H    1.031 --   276 C    0.999
   306   1 H    1.027 --   281 C    0.997
   307   1 H    1.030 --   282 C    0.997
   308   1 H    1.082 --   284 N    0.960
   309   1 H    1.052 --   287 C    0.988
   310   1 H    1.054 --   288 C    0.983
   311   1 H    1.054 --   290 C    0.983
   312   1 H    1.049 --   291 C    0.987
   313   1 H    1.036 --   293 C    0.997
   314   1 H    1.031 --   294 C    0.999
   315   6 C    3.836 --   349 C    1.283   316 C    1.281   134 C    1.227
   316   6 C    3.904 --   315 C    1.281   317 C    1.270   320 N    1.251
   317   6 C    3.829 --   318 C    1.580   316 C    1.270   351 H    0.997
   318   6 C    3.819 --   317 C    1.580   319 C    1.262   352 H    0.997
   319   6 C    3.887 --   321 C    1.336   318 C    1.262   320 N    1.222
   320   7 N    3.251 --   316 C    1.251   319 C    1.222   353 H    0.960
   321   6 C    3.833 --   328 C    1.372   319 C    1.336   322 C    1.050
   322   6 C    3.907 --   323 C    1.426   327 C    1.426   321 C    1.050
   323   6 C    3.869 --   324 C    1.447   322 C    1.426   354 H    0.988
                           326 C    0.102
   324   6 C    3.999 --   325 N    1.479   323 C    1.447   355 H    0.983
                           327 C    0.101
   325   7 N    2.941 --   326 C    1.480   324 C    1.479
   326   6 C    3.999 --   325 N    1.480   327 C    1.447   356 H    0.983
                           323 C    0.102
   327   6 C    3.865 --   326 C    1.447   322 C    1.426   357 H    0.987
                           324 C    0.101
   328   6 C    3.924 --   321 C    1.372   331 N    1.351   329 C    1.160
   329   6 C    3.838 --   330 C    1.693   328 C    1.160   358 H    0.997
   330   6 C    3.849 --   329 C    1.693   332 C    1.166   359 H    0.999
   331   7 N    2.552 --   332 C    1.416   328 C    1.351
   332   6 C    3.943 --   331 N    1.416   333 C    1.283   330 C    1.166
   333   6 C    3.836 --   332 C    1.283   334 C    1.281   138 C    1.227
   334   6 C    3.904 --   333 C    1.281   335 C    1.270   338 N    1.251
   335   6 C    3.829 --   336 C    1.579   334 C    1.270   360 H    0.998
   336   6 C    3.819 --   335 C    1.579   337 C    1.262   361 H    0.997
   337   6 C    3.887 --   339 C    1.336   336 C    1.262   338 N    1.222
   338   7 N    3.251 --   334 C    1.251   337 C    1.222   362 H    0.960
   339   6 C    3.832 --   346 C    1.372   337 C    1.336   340 C    1.050
   340   6 C    3.907 --   341 C    1.426   345 C    1.426   339 C    1.050
   341   6 C    3.869 --   342 C    1.447   340 C    1.426   363 H    0.988
                           344 C    0.102
   342   6 C    3.999 --   343 N    1.479   341 C    1.447   364 H    0.983
                           345 C    0.101
   343   7 N    2.941 --   344 C    1.480   342 C    1.479
   344   6 C    3.999 --   343 N    1.480   345 C    1.447   365 H    0.983
                           341 C    0.102
   345   6 C    3.865 --   344 C    1.447   340 C    1.426   366 H    0.987
                           342 C    0.101
   346   6 C    3.924 --   339 C    1.372   350 N    1.351   347 C    1.160
   347   6 C    3.838 --   348 C    1.694   346 C    1.160   367 H    0.997
   348   6 C    3.849 --   347 C    1.694   349 C    1.166   368 H    0.999
   349   6 C    3.943 --   350 N    1.416   315 C    1.283   348 C    1.166
   350   7 N    2.552 --   349 C    1.416   346 C    1.351
   351   1 H    1.027 --   317 C    0.997
   352   1 H    1.030 --   318 C    0.997
   353   1 H    1.082 --   320 N    0.960
   354   1 H    1.052 --   323 C    0.988
   355   1 H    1.054 --   324 C    0.983
   356   1 H    1.054 --   326 C    0.983
   357   1 H    1.049 --   327 C    0.987
   358   1 H    1.036 --   329 C    0.997
   359   1 H    1.031 --   330 C    0.999
   360   1 H    1.027 --   335 C    0.998
   361   1 H    1.030 --   336 C    0.997
   362   1 H    1.082 --   338 N    0.960
   363   1 H    1.052 --   341 C    0.988
   364   1 H    1.054 --   342 C    0.983
   365   1 H    1.054 --   344 C    0.983
   366   1 H    1.049 --   345 C    0.987
   367   1 H    1.036 --   347 C    0.997
   368   1 H    1.031 --   348 C    0.999
   369   6 C    3.834 --   403 C    1.283   370 C    1.281   140 C    1.228
   370   6 C    3.904 --   369 C    1.281   371 C    1.270   374 N    1.251
   371   6 C    3.829 --   372 C    1.579   370 C    1.270   405 H    0.998
   372   6 C    3.818 --   371 C    1.579   373 C    1.262   406 H    0.997
   373   6 C    3.886 --   375 C    1.336   372 C    1.262   374 N    1.222
   374   7 N    3.251 --   370 C    1.251   373 C    1.222   407 H    0.960
   375   6 C    3.832 --   382 C    1.372   373 C    1.336   376 C    1.050
   376   6 C    3.907 --   377 C    1.426   381 C    1.426   375 C    1.050
   377   6 C    3.869 --   378 C    1.447   376 C    1.426   408 H    0.988
                           380 C    0.101
   378   6 C    3.999 --   379 N    1.479   377 C    1.447   409 H    0.983
                           381 C    0.101
   379   7 N    2.941 --   380 C    1.480   378 C    1.479
   380   6 C    3.999 --   379 N    1.480   381 C    1.447   410 H    0.983
                           377 C    0.101
   381   6 C    3.865 --   380 C    1.447   376 C    1.426   411 H    0.987
                           378 C    0.101
   382   6 C    3.924 --   375 C    1.372   385 N    1.351   383 C    1.160
   383   6 C    3.838 --   384 C    1.693   382 C    1.160   412 H    0.997
   384   6 C    3.849 --   383 C    1.693   386 C    1.166   413 H    0.999
   385   7 N    2.551 --   386 C    1.416   382 C    1.351
   386   6 C    3.943 --   385 N    1.416   387 C    1.283   384 C    1.166
   387   6 C    3.834 --   386 C    1.283   388 C    1.280   144 C    1.228
   388   6 C    3.903 --   387 C    1.280   389 C    1.270   392 N    1.251
   389   6 C    3.829 --   390 C    1.579   388 C    1.270   414 H    0.998
   390   6 C    3.818 --   389 C    1.579   391 C    1.262   415 H    0.997
   391   6 C    3.886 --   393 C    1.336   390 C    1.262   392 N    1.222
   392   7 N    3.251 --   388 C    1.251   391 C    1.222   416 H    0.960
   393   6 C    3.832 --   400 C    1.373   391 C    1.336   394 C    1.050
   394   6 C    3.907 --   395 C    1.426   399 C    1.426   393 C    1.050
   395   6 C    3.869 --   396 C    1.447   394 C    1.426   417 H    0.988
                           398 C    0.102
   396   6 C    3.999 --   397 N    1.479   395 C    1.447   418 H    0.983
                           399 C    0.101
   397   7 N    2.941 --   398 C    1.480   396 C    1.479
   398   6 C    3.999 --   397 N    1.480   399 C    1.447   419 H    0.983
                           395 C    0.102
   399   6 C    3.865 --   398 C    1.447   394 C    1.426   420 H    0.987
                           396 C    0.101
   400   6 C    3.924 --   393 C    1.373   404 N    1.351   401 C    1.160
   401   6 C    3.838 --   402 C    1.693   400 C    1.160   421 H    0.997
   402   6 C    3.849 --   401 C    1.693   403 C    1.166   422 H    0.999
   403   6 C    3.943 --   404 N    1.416   369 C    1.283   402 C    1.166
   404   7 N    2.551 --   403 C    1.416   400 C    1.351
   405   1 H    1.027 --   371 C    0.998
   406   1 H    1.030 --   372 C    0.997
   407   1 H    1.082 --   374 N    0.960
   408   1 H    1.052 --   377 C    0.988
   409   1 H    1.054 --   378 C    0.983
   410   1 H    1.054 --   380 C    0.983
   411   1 H    1.049 --   381 C    0.987
   412   1 H    1.036 --   383 C    0.997
   413   1 H    1.031 --   384 C    0.999
   414   1 H    1.027 --   389 C    0.998
   415   1 H    1.031 --   390 C    0.997
   416   1 H    1.082 --   392 N    0.960
   417   1 H    1.052 --   395 C    0.988
   418   1 H    1.054 --   396 C    0.983
   419   1 H    1.054 --   398 C    0.983
   420   1 H    1.049 --   399 C    0.987
   421   1 H    1.036 --   401 C    0.997
   422   1 H    1.031 --   402 C    0.999
   423   6 C    3.833 --   457 C    1.283   424 C    1.280   146 C    1.228
   424   6 C    3.903 --   423 C    1.280   425 C    1.270   428 N    1.251
   425   6 C    3.828 --   426 C    1.579   424 C    1.270   459 H    0.997
   426   6 C    3.818 --   425 C    1.579   427 C    1.262   460 H    0.997
   427   6 C    3.886 --   429 C    1.335   426 C    1.262   428 N    1.222
   428   7 N    3.252 --   424 C    1.251   427 C    1.222   461 H    0.960
   429   6 C    3.832 --   436 C    1.373   427 C    1.335   430 C    1.050
   430   6 C    3.907 --   435 C    1.426   431 C    1.426   429 C    1.050
   431   6 C    3.869 --   432 C    1.447   430 C    1.426   462 H    0.988
                           434 C    0.101
   432   6 C    3.999 --   433 N    1.479   431 C    1.447   463 H    0.983
                           435 C    0.101
   433   7 N    2.941 --   434 C    1.480   432 C    1.479
   434   6 C    3.999 --   433 N    1.480   435 C    1.447   464 H    0.983
                           431 C    0.101
   435   6 C    3.865 --   434 C    1.447   430 C    1.426   465 H    0.987
                           432 C    0.101
   436   6 C    3.924 --   429 C    1.373   439 N    1.351   437 C    1.160
   437   6 C    3.838 --   438 C    1.694   436 C    1.160   466 H    0.997
   438   6 C    3.849 --   437 C    1.694   440 C    1.165   467 H    0.999
   439   7 N    2.550 --   440 C    1.415   436 C    1.351
   440   6 C    3.943 --   439 N    1.415   441 C    1.284   438 C    1.165
   441   6 C    3.833 --   440 C    1.284   442 C    1.281   150 C    1.224
   442   6 C    3.904 --   441 C    1.281   443 C    1.270   446 N    1.251
   443   6 C    3.828 --   444 C    1.579   442 C    1.270   468 H    0.998
   444   6 C    3.818 --   443 C    1.579   445 C    1.262   469 H    0.997
   445   6 C    3.886 --   447 C    1.336   444 C    1.262   446 N    1.221
   446   7 N    3.250 --   442 C    1.251   445 C    1.221   470 H    0.960
   447   6 C    3.833 --   454 C    1.372   445 C    1.336   448 C    1.050
   448   6 C    3.907 --   449 C    1.426   453 C    1.426   447 C    1.050
   449   6 C    3.869 --   450 C    1.447   448 C    1.426   471 H    0.988
                           452 C    0.102
   450   6 C    3.999 --   451 N    1.479   449 C    1.447   472 H    0.983
                           453 C    0.101
   451   7 N    2.941 --   452 C    1.480   450 C    1.479
   452   6 C    3.999 --   451 N    1.480   453 C    1.447   473 H    0.983
                           449 C    0.102
   453   6 C    3.865 --   452 C    1.447   448 C    1.426   474 H    0.987
                           450 C    0.101
   454   6 C    3.923 --   447 C    1.372   458 N    1.351   455 C    1.160
   455   6 C    3.838 --   456 C    1.693   454 C    1.160   475 H    0.997
   456   6 C    3.849 --   455 C    1.693   457 C    1.166   476 H    0.999
   457   6 C    3.942 --   458 N    1.416   423 C    1.283   456 C    1.166
   458   7 N    2.552 --   457 C    1.416   454 C    1.351
   459   1 H    1.027 --   425 C    0.997
   460   1 H    1.030 --   426 C    0.997
   461   1 H    1.082 --   428 N    0.960
   462   1 H    1.052 --   431 C    0.988
   463   1 H    1.054 --   432 C    0.983
   464   1 H    1.054 --   434 C    0.983
   465   1 H    1.049 --   435 C    0.987
   466   1 H    1.036 --   437 C    0.997
   467   1 H    1.031 --   438 C    0.999
   468   1 H    1.027 --   443 C    0.998
   469   1 H    1.031 --   444 C    0.997
   470   1 H    1.082 --   446 N    0.960
   471   1 H    1.052 --   449 C    0.988
   472   1 H    1.054 --   450 C    0.983
   473   1 H    1.054 --   452 C    0.983
   474   1 H    1.049 --   453 C    0.987
   475   1 H    1.036 --   455 C    0.997
   476   1 H    1.031 --   456 C    0.999
 ---------------------------------------------------------------------------

Topologies differ in total number of bonds
Writing topology from bond orders to xtbtopo.mol

 dipole moment from electron density (au)
     X       Y       Z   
-264.3939  -0.1183  -0.3013  total (Debye):  672.023


           -------------------------------------------------
          | TOTAL ENERGY             -944.094306054492 Eh   |
          | GRADIENT NORM               0.121846689994 Eh/α |
          | HOMO-LUMO GAP               0.044930842023 eV   |
           -------------------------------------------------
########################################################################
[WARNING] Runtime exception occurred
-1- restart_readRestart: Dimension missmatch in restart file.
########################################################################

------------------------------------------------------------------------
 * finished run on 2022/07/27 at 08:57:44.741     
------------------------------------------------------------------------
 total:
 * wall-time:     0 d,  0 h,  1 min, 39.785 sec
 *  cpu-time:     0 d,  0 h,  1 min, 39.345 sec
 * ratio c/w:     0.996 speedup
 SCF:
 * wall-time:     0 d,  0 h,  1 min, 38.596 sec
 *  cpu-time:     0 d,  0 h,  1 min, 38.165 sec
 * ratio c/w:     0.996 speedup

