254
 energy: -465.935715439540 gnorm: 1.878911289810 xtb: 6.5.1 (b24c23e)
Cu          38.24951799999999        0.02658900000000       -0.02830500000000
C           34.91923300000000       -0.12414200000000       -0.17810200000000
C           35.58535500000000       -1.28120400000000       -0.14492400000000
C           34.93626500000000       -2.58649100000000       -0.13358700000000
C           35.87600000000000       -3.50681100000000       -0.03036100000000
C           37.18057499999999       -2.83166700000000        0.02235400000000
N           37.00278800000000       -1.41664600000000       -0.05337400000000
C           38.36926300000000       -3.45206900000000        0.17007200000000
C           38.40423700000000       -4.92714300000000        0.28307200000000
C           38.21161900000000       -5.72828500000000       -0.85296000000000
C           38.23737500000000       -7.12160700000000       -0.74225200000000
C           38.46013299999999       -7.72457300000000        0.50362800000000
O           38.48592899999999       -9.11163900000000        0.62626700000000
C           38.65743400000000       -6.92703300000000        1.63629600000000
C           38.62824100000000       -5.53342000000000        1.52859100000000
C           39.66468800000000       -2.72343800000000        0.23320800000000
C           40.95867799999999       -3.37892600000000        0.46023900000000
C           41.89379899999999       -2.45266100000000        0.41701300000000
N           39.80418299999999       -1.44503300000000        0.05065200000000
C           41.20666600000000       -1.19403600000000        0.15462300000000
C           41.80343000000000       -0.00310300000000       -0.02443600000000
C           41.04824299999999        1.24222400000000       -0.30146300000000
C           41.60476299999999        2.36925400000000       -0.72603200000000
C           40.56040700000000        3.37143000000000       -0.78905600000000
C           39.43227200000000        2.79310400000000       -0.39696800000000
N           39.64883500000000        1.41809000000000       -0.07150700000000
C           38.13462299999999        3.50447700000000       -0.26351700000000
C           38.14388000000000        4.98593400000000       -0.21335600000000
C           38.75888100000000        5.64798800000000        0.86117500000000
C           38.77666200000000        7.04464300000000        0.91073500000000
C           38.18951500000000        7.79129600000000       -0.11484800000000
O           38.20915500000000        9.18202800000000       -0.04848000000000
C           37.58847300000000        7.13433600000000       -1.19859200000000
C           37.56700000000000        5.73792500000000       -1.24859900000000
C           36.96601400000000        2.84140300000000       -0.17745400000000
C           35.64348300000000        3.44314500000000       -0.01590200000000
C           34.78392600000000        2.44332700000000       -0.00442800000000
C           35.54774700000000        1.20545500000000       -0.14483400000000
N           36.82109700000000        1.42447400000000       -0.24713300000000
H           33.83607400000000       -0.15659200000000       -0.20448000000000
H           33.87287100000000       -2.78274200000000       -0.18273000000000
H           35.68807200000000       -4.57164300000000        0.01730900000000
H           38.03852199999999       -5.27277800000000       -1.82048900000000
H           38.08383500000000       -7.73112400000000       -1.62378500000000
H           38.34007200000000       -9.71647900000000       -0.17420100000000
H           38.83146200000000       -7.38796800000000        2.60069000000000
H           38.78026000000000       -4.92682800000000        2.41311300000000
H           41.13917800000000       -4.43282200000000        0.62715300000000
H           42.95448000000000       -2.62701200000000        0.54259100000000
H           42.64777900000000        2.53008800000000       -0.96215100000000
H           40.68740199999999        4.40419400000000       -1.08509800000000
H           39.21503000000000        5.08179700000000        1.66318000000000
H           39.24241099999999        7.54726300000000        1.74988300000000
H           37.78580200000000        9.75143900000000       -0.77285700000000
H           37.13956499999999        7.70466300000000       -2.00152900000000
H           37.10403399999999        5.24174700000000       -2.09394400000000
H           35.39098899999999        4.49067400000000        0.08114200000000
H           33.71095000000000        2.53694900000000        0.10146700000000
Cu          95.51327999999999       -0.03304300000000       -0.02400500000000
C           98.84356500000000        0.09463600000000       -0.19387800000000
C           98.17744300000000        1.24448800000000       -0.32705300000000
C           98.82653299999998        2.53789700000000       -0.50310800000000
C           97.88679800000000        3.46350500000000       -0.53299300000000
C           96.58222300000000        2.80291000000000       -0.38395700000000
N           96.76000999999998        1.39166300000000       -0.25588200000000
C           95.39353500000000        3.43808700000000       -0.32677900000000
C           95.35855999999998        4.91411200000000       -0.42658400000000
C           95.55117899999999        5.54397400000000       -1.66580600000000
C           95.52542300000000        6.93876500000000       -1.75615000000000
C           95.30266500000000        7.71424400000000       -0.60967000000000
O           95.27686900000000        9.10455500000000       -0.68730800000000
C           95.10536399999999        7.08746500000000        0.62570600000000
C           95.13455700000000        5.69281700000000        0.71906300000000
C           94.09811000000001        2.72605300000000       -0.15975600000000
C           92.80412000000000        3.40733200000000       -0.02912100000000
C           91.86899900000000        2.48444900000000        0.06099700000000
N           93.95861499999999        1.43468200000000       -0.15700500000000
C           92.55613200000001        1.20119900000000       -0.01809800000000
C           91.95936800000000       -0.00310300000000       -0.02443600000000
C           92.71455500000000       -1.27529200000000       -0.11992400000000
C           92.15803500000000       -2.45157700000000       -0.37840100000000
C           93.20239100000001       -3.45242600000000       -0.29698500000000
C           94.33052599999999       -2.82383000000000        0.00807100000000
N           94.11396300000000       -1.41634500000000        0.13288500000000
C           95.62817500000000       -3.50869600000000        0.24220500000000
C           95.61891799999999       -4.96762800000000        0.50439900000000
C           95.00391699999999       -5.46866500000000        1.66280000000000
C           94.98613500000000       -6.84376000000000        1.91223200000000
C           95.57328300000000       -7.72983400000000        1.00438600000000
O           95.55364299999999       -9.09665500000000        1.26960100000000
C           96.17432499999998       -7.23516000000000       -0.16240400000000
C           96.19579800000000       -5.86037100000000       -0.41224200000000
C           96.79678299999999       -2.84013400000000        0.23224300000000
C           98.11931400000000       -3.41247200000000        0.47845900000000
C           98.97887199999998       -2.42135200000000        0.34636600000000
C           98.21504999999999       -1.21643200000000        0.02980900000000
N           96.94170099999999       -1.44786100000000       -0.04000800000000
H           99.92672399999998        0.12296600000000       -0.22463900000000
H           99.88992700000000        2.72506600000000       -0.57990000000000
H           98.07472599999998        4.52416000000000       -0.63859200000000
H           95.72427600000000        4.95436300000000       -2.55797200000000
H           95.67896300000000        7.41549800000000       -2.71601300000000
H           95.42272500000000        9.58829100000000       -1.56627400000000
H           94.93133600000000        7.68199700000000        1.51399000000000
H           94.98253699999999        5.21940700000000        1.68146500000000
H           92.62361900000001        4.47427200000000       -0.01514100000000
H           90.80831800000000        2.67501300000000        0.16026100000000
H           91.11501900000000       -2.64462400000000       -0.58900100000000
H           93.07539600000000       -4.51698000000000       -0.44178900000000
H           94.54776800000000       -4.79326500000000        2.37527400000000
H           94.52038700000000       -7.22078400000000        2.81481100000000
H           95.97699499999999       -9.76410400000000        0.63441500000000
H           96.62323300000000       -7.91478700000000       -0.87520500000000
H           96.65876400000001       -5.49061200000000       -1.32003100000000
H           98.37180900000000       -4.43524000000000        0.72479200000000
H          100.05184799999999       -2.49881200000000        0.46459800000000
C           44.24900600000000        0.01112300000000       -0.01448500000000
C           45.70723199999999       -0.01071400000000       -0.03235800000000
C           46.84116100000000       -0.03146800000000       -0.03384900000000
C           48.20254200000000       -0.04405700000000       -0.03604000000000
C           49.47676100000000       -0.03375100000000       -0.04080500000000
C           50.66522400000000       -0.01495300000000       -0.04696100000000
C           52.01758399999999        0.00983200000000       -0.03109400000000
C           53.11785199999999        0.01112300000000       -0.01448500000000
C           62.38691899999999        0.01112300000000       -0.01448500000000
C           63.84514500000000       -0.01071400000000       -0.03235800000000
C           64.97907300000000       -0.03146800000000       -0.03384900000000
C           66.34045500000001       -0.04405700000000       -0.03604000000000
C           67.61467399999999       -0.03375100000000       -0.04080500000000
C           68.80313599999999       -0.01495300000000       -0.04696100000000
C           70.15549700000000        0.00983200000000       -0.03109400000000
C           71.25576400000000        0.01112300000000       -0.01448500000000
C           80.52483200000000        0.01112300000000       -0.01448500000000
C           81.98305800000000       -0.01071400000000       -0.03235800000000
C           83.11698599999998       -0.03146800000000       -0.03384900000000
C           84.47836800000000       -0.04405700000000       -0.03604000000000
C           85.75258699999999       -0.03375100000000       -0.04080500000000
C           86.94104899999999       -0.01495300000000       -0.04696100000000
C           88.29340999999998        0.00983200000000       -0.03109400000000
C           89.39367699999998        0.01112300000000       -0.01448500000000
Cu          57.78629400000000        0.01985900000000       -0.04599000000000
C           54.36469900000000        0.00081600000000        0.02791400000000
C           55.02163999999999        0.98119400000000        0.67553600000000
C           54.38222200000000        2.03541700000000        1.46602000000000
C           55.32196200000000        2.84181200000000        1.91921000000000
C           56.61879800000000        2.35215900000000        1.44455800000000
N           56.43872700000000        1.17095400000000        0.65965900000000
C           57.80342099999999        2.94765900000000        1.69220800000000
C           57.83419400000000        4.20599300000000        2.46682300000000
C           58.13649400000000        4.18183200000000        3.83994000000000
C           58.17900500000000        5.37501300000000        4.56904600000000
C           57.92759400000000        6.59800200000000        3.93054500000000
O           57.97662099999999        7.77962800000000        4.66753200000000
C           57.62889800000000        6.62345100000000        2.55723800000000
C           57.58215600000000        5.43158000000000        1.82771500000000
C           59.10215199999999        2.40746300000000        1.22076100000000
C           60.37217200000000        3.13802100000000        1.31510100000000
C           61.32568499999999        2.34898200000000        0.86269300000000
N           59.26983600000000        1.21776200000000        0.73155000000000
C           60.67028300000000        1.10543100000000        0.47722100000000
C           61.28638899999999        0.00081600000000        0.02791400000000
C           60.53700000000000       -1.21406500000000       -0.36004900000000
C           61.07613400000000       -2.42048600000000       -0.48525100000000
C           60.04260400000000       -3.30066300000000       -0.99584200000000
C           58.94338300000000       -2.57033400000000       -1.15110200000000
N           59.16517900000000       -1.21792900000000       -0.75453100000000
C           57.68514999999999       -3.06595400000000       -1.76136500000000
C           57.74799200000000       -4.26275900000000       -2.63565600000000
C           57.07087000000000       -5.44344000000000       -2.28154700000000
C           57.13700100000000       -6.56813100000000       -3.11076800000000
C           57.88056400000000       -6.52408500000000       -4.29890400000000
O           57.94948399999999       -7.63592200000000       -5.13522900000000
C           58.56162399999999       -5.35290400000000       -4.64947100000000
C           58.50060100000000       -4.22780100000000       -3.82024800000000
C           56.50990700000000       -2.43523600000000       -1.56765600000000
C           55.23305899999999       -2.78993200000000       -2.18238900000000
C           54.34479399999999       -1.94848300000000       -1.69408100000000
C           55.04252300000000       -1.04811300000000       -0.76813900000000
N           56.30857699999999       -1.32474700000000       -0.69204100000000
H           53.32602700000000        2.16100100000000        1.66131200000000
H           55.13990500000000        3.71220200000000        2.53739400000000
H           58.33568600000000        3.24127700000000        4.34327100000000
H           58.40932000000000        5.35001500000000        5.62946600000000
H           57.78907600000000        8.68106800000000        4.23134800000000
H           57.43549699999999        7.56499000000000        2.05478600000000
H           57.35484899999999        5.46183300000000        0.76700100000000
H           60.52101800000000        4.14354600000000        1.68840100000000
H           62.37647900000000        2.60136400000000        0.80556400000000
H           62.10296699999999       -2.69527400000000       -0.28128600000000
H           60.16059199999999       -4.34790100000000       -1.24315000000000
H           56.49468600000000       -5.49029000000000       -1.36470700000000
H           56.60948100000000       -7.47173000000000       -2.82974800000000
H           57.48231499999999       -8.50433300000000       -4.89947800000000
H           59.13890100000000       -5.31437900000000       -5.56477500000000
H           59.03117700000000       -3.32716400000000       -4.10537700000000
H           55.02923600000000       -3.57154200000000       -2.90377000000000
H           53.29420699999999       -1.93759600000000       -1.95426200000000
Cu          75.92420600000000        0.01985900000000       -0.04599000000000
C           72.50261200000000        0.00081600000000        0.02791400000000
C           73.15955299999999        0.98119400000000        0.67553600000000
C           72.52013500000000        2.03541700000000        1.46602000000000
C           73.45987400000000        2.84181200000000        1.91921000000000
C           74.75671099999998        2.35215900000000        1.44455800000000
N           74.57664000000000        1.17095400000000        0.65965900000000
C           75.94133399999998        2.94765900000000        1.69220800000000
C           75.97210600000000        4.20599300000000        2.46682300000000
C           76.27440700000000        4.18183200000000        3.83994000000000
C           76.31691800000000        5.37501300000000        4.56904600000000
C           76.06550700000000        6.59800200000000        3.93054500000000
O           76.11453400000001        7.77962800000000        4.66753200000000
C           75.76681100000000        6.62345100000000        2.55723800000000
C           75.72006900000000        5.43158000000000        1.82771500000000
C           77.24006500000000        2.40746300000000        1.22076100000000
C           78.51008500000000        3.13802100000000        1.31510100000000
C           79.46359699999998        2.34898200000000        0.86269300000000
N           77.40774899999998        1.21776200000000        0.73155000000000
C           78.80819600000000        1.10543100000000        0.47722100000000
C           79.42430200000000        0.00081600000000        0.02791400000000
C           78.67491300000000       -1.21406500000000       -0.36004900000000
C           79.21404699999999       -2.42048600000000       -0.48525100000000
C           78.18051699999998       -3.30066300000000       -0.99584200000000
C           77.08129499999998       -2.57033400000000       -1.15110200000000
N           77.30309099999999       -1.21792900000000       -0.75453100000000
C           75.82306199999998       -3.06595400000000       -1.76136500000000
C           75.88590499999999       -4.26275900000000       -2.63565600000000
C           75.20878200000000       -5.44344000000000       -2.28154700000000
C           75.27491400000000       -6.56813100000000       -3.11076800000000
C           76.01847700000000       -6.52408500000000       -4.29890400000000
O           76.08739700000000       -7.63592200000000       -5.13522900000000
C           76.69953599999998       -5.35290400000000       -4.64947100000000
C           76.63851400000000       -4.22780100000000       -3.82024800000000
C           74.64782000000000       -2.43523600000000       -1.56765600000000
C           73.37097199999999       -2.78993200000000       -2.18238900000000
C           72.48270599999998       -1.94848300000000       -1.69408100000000
C           73.18043600000000       -1.04811300000000       -0.76813900000000
N           74.44649000000000       -1.32474700000000       -0.69204100000000
H           71.46393999999999        2.16100100000000        1.66131200000000
H           73.27781700000000        3.71220200000000        2.53739400000000
H           76.47359899999999        3.24127700000000        4.34327100000000
H           76.54723299999999        5.35001500000000        5.62946600000000
H           75.92698900000001        8.68106800000000        4.23134800000000
H           75.57340999999998        7.56499000000000        2.05478600000000
H           75.49276200000000        5.46183300000000        0.76700100000000
H           78.65893100000000        4.14354600000000        1.68840100000000
H           80.51439200000000        2.60136400000000        0.80556400000000
H           80.24087900000001       -2.69527400000000       -0.28128600000000
H           78.29850499999999       -4.34790100000000       -1.24315000000000
H           74.63259799999999       -5.49029000000000       -1.36470700000000
H           74.74739300000000       -7.47173000000000       -2.82974800000000
H           75.62022699999999       -8.50433300000000       -4.89947800000000
H           77.27681399999999       -5.31437900000000       -5.56477500000000
H           77.16909000000000       -3.32716400000000       -4.10537700000000
H           73.16714800000000       -3.57154200000000       -2.90377000000000
H           71.43212000000000       -1.93759600000000       -1.95426200000000
254
 energy: -466.590136486242 gnorm: 0.759256551434 xtb: 6.5.1 (b24c23e)
Cu          38.25546329638522        0.02441385514268       -0.03035828455174
C           34.91977160692164       -0.11180391978527       -0.17797977609391
C           35.59074100999032       -1.28317874095887       -0.14465333995077
C           34.93515624243221       -2.58184095119514       -0.13388149262781
C           35.88260542800767       -3.50873684957275       -0.02998230674342
C           37.17882837689429       -2.82655285236792        0.02170686791932
N           36.98972693652235       -1.42874719658055       -0.05243437064245
C           38.37999277036857       -3.44891936102181        0.17087462216911
C           38.40611737611569       -4.92897386746183        0.28333758892407
C           38.21167549995786       -5.73031646226710       -0.84970404144314
C           38.23746184867765       -7.12052707746021       -0.74102353381319
C           38.45943807772618       -7.72893877126306        0.49984446826251
O           38.48564654451615       -9.11065048391123        0.62492870778859
C           38.65691442644680       -6.92846435982428        1.63381422923385
C           38.62844217760508       -5.53732486430841        1.52556061026713
C           39.65925778206230       -2.73523860827844        0.23391389968750
C           40.94977915580459       -3.38560867289437        0.45999022663919
C           41.89444180500873       -2.44694399522814        0.41638259857185
N           39.81076537206980       -1.44235654252179        0.05154551214763
C           41.21268625140724       -1.19137778625748        0.15487512694531
C           41.79922942760662        0.00668595924283       -0.02758270664273
C           41.04527226809171        1.22979139181571       -0.29510497574979
C           41.60599536626017        2.38531627577018       -0.73004899822456
C           40.57655361690771        3.37256659087956       -0.79134426083333
C           39.42208600881041        2.78486090584961       -0.39071051012144
N           39.65336141775377        1.42231757107466       -0.07294737082801
C           38.14424080553261        3.49914646033541       -0.26346981461878
C           38.14733401417968        4.98574065346602       -0.21473434172704
C           38.75787424759131        5.65118330672929        0.85811811617471
C           38.77509114331816        7.04552946699063        0.90874847263315
C           38.18737376926073        7.79564808888678       -0.11847434854239
O           38.20839104605877        9.18083082605929       -0.04982620928421
C           37.58897860153577        7.13319155722402       -1.19734746853891
C           37.56784106430645        5.73965229242212       -1.24562486750512
C           36.96446246372210        2.84026887718495       -0.17686498326541
C           35.64950937640856        3.44391952428062       -0.01662593903956
C           34.77798407603404        2.43508559495293       -0.00462147079360
C           35.53398692206959        1.19836346915707       -0.14491933246222
N           36.82227108548634        1.43215031519810       -0.24565848479305
H           33.83642457020110       -0.15432044740085       -0.20423441514044
H           33.87291433702116       -2.77913253724413       -0.18305480781172
H           35.69248974870264       -4.57194773689629        0.01749171011849
H           38.03886155167216       -5.27288944520520       -1.81925498267208
H           38.08393666854085       -7.73118441383734       -1.62351814914423
H           38.34136168508387       -9.70303100745758       -0.16733989533815
H           38.83125581285400       -7.38845751203577        2.59994486722159
H           38.77999267763754       -4.92761430705001        2.41179101709853
H           41.13548494177921       -4.43456495731565        0.62706621861860
H           42.95412883999223       -2.62241886012702        0.54192125553074
H           42.64811255755472        2.53190570645531       -0.96290385995662
H           40.68956096115069        4.40417037765719       -1.08577290235060
H           39.21451388014425        5.08232758317690        1.66209824209521
H           39.24200788521371        7.54754618175137        1.74909294660438
H           37.78976477301148        9.73837820038140       -0.76641525980565
H           37.13969593587105        7.70473684107361       -2.00131682304253
H           37.10473361116888        5.24196362687086       -2.09281964559820
H           35.39519009154642        4.49047364718644        0.08079048723756
H           33.70957162530089        2.53381543971942        0.10129924102272
Cu          95.50727871878223       -0.03125927682752       -0.02637313339774
C           98.84303806728340        0.08241807466345       -0.19197698066249
C           98.17204104104339        1.24647109759511       -0.32707888257000
C           98.82762851608354        2.53323575186229       -0.50274034445968
C           97.88017570523336        3.46545798245712       -0.53289288022347
C           96.58393774976804        2.79779662471775       -0.38388224702282
N           96.77304400127903        1.40367586631907       -0.25659454880616
C           95.38286051107647        3.43509939018616       -0.32554322160885
C           95.35669222280214        4.91596213836951       -0.42658882079459
C           95.55112265001216        5.54645323370578       -1.66287502086043
C           95.52533464766330        6.93787376445026       -1.75477972738357
C           95.30336030919781        7.71801730142258       -0.61404093232290
O           95.27714999382390        9.10339196353323       -0.68849002254870
C           95.10588326067585        7.08852483471073        0.62304338990241
C           95.13435661435028        5.69624384279193        0.71550060583949
C           94.10353764932744        2.73779538291473       -0.16073606310663
C           92.81306006190160        3.41390807938776       -0.03031979036475
C           91.86842144791154        2.47865074433747        0.06116150174858
N           93.95207614929204        1.43217034481806       -0.15569951302335
C           92.55023560557191        1.19851995195323       -0.01746426464958
C           91.96237277672769       -0.01301237857690       -0.02598466693219
C           92.71738618788034       -1.26178362417279       -0.11535232712166
C           92.15685817986930       -2.46792533376721       -0.38001873813239
C           93.18630188099881       -3.45386773615557       -0.29906873303183
C           94.34075210993106       -2.81481378791727        0.01308283159782
N           94.10953937391464       -1.42068081819971        0.13191028976801
C           95.61855671006100       -3.50343557256247        0.24147804560141
C           95.61547030272132       -4.96763909022433        0.50301162502455
C           95.00492545024176       -5.47226686922420        1.66023332475545
C           94.98770543945150       -6.84492335918423        1.91039280092521
C           95.57542407619530       -7.73466056498828        1.00142104777287
O           95.55440750616000       -9.09566465079315        1.26809819109438
C           96.17381888836309       -7.23384969925991       -0.16133600559656
C           96.19495649375433       -5.86165452487992       -0.40904994592555
C           96.79831089972208       -2.83892587760104        0.23266191781757
C           98.11326213494769       -3.41331947711913        0.47786506380013
C           98.98480101225013       -2.41320263606214        0.34496259373504
C           98.22882564413032       -1.20938036216857        0.02869951823535
N           96.94043041350898       -1.45516485931194       -0.03741788813320
H           99.92637508559872        0.12075039654053       -0.22406658255880
H           99.88987921425151        2.72144171708854       -0.57970336578144
H           98.07030702094450        4.52448422799559       -0.63845688911812
H           95.72393674331515        4.95465088625929       -2.55676626712877
H           95.67886136546231        7.41559738323596       -2.71575790817198
H           95.42143609176208        9.57596575695703       -1.55755543733977
H           94.93154240743934        7.68237500724077        1.51318234492288
H           94.98280467308133        5.21999529604023        1.68004311936413
H           92.62732907714090        4.47599040597470       -0.01547339629557
H           90.80875023914791        2.67041926915630        0.16026845811790
H           91.11475874181748       -2.64656042591229       -0.58948248622357
H           93.07324842592227       -4.51705248814592       -0.44245889466585
H           94.54828406658730       -4.79394495159561        2.37427909286586
H           94.52078990322853       -7.22117818923334        2.81407007797767
H           95.97303173695462       -9.75025455027175        0.63891607580531
H           96.62310213274273       -7.91483030097801       -0.87498440520506
H           96.65806436455657       -5.49066516190272       -1.31888669962702
H           98.36760269217949       -4.43508544867344        0.72441159316724
H          100.05322028927141       -2.49572986013427        0.46398199765206
C           44.26862693394800        0.01062140762192       -0.01440470629405
C           45.62895678346833       -0.00967792967792       -0.03232495535970
C           46.88343371269692       -0.03204111511606       -0.03384867542639
C           48.17603011981750       -0.04413815211037       -0.03596321951068
C           49.45423614925365       -0.03397215092606       -0.04087059755791
C           50.66695427829306       -0.01463009564337       -0.04740423819377
C           51.95475212846603        0.00916191595148       -0.03208700696380
C           53.13685262861321        0.00922150124579       -0.01618815701541
C           62.48416126480821        0.00335290473476       -0.02119659296774
C           63.79856969619534       -0.01055279396684       -0.03301215793491
C           65.02602659686836       -0.03204180738002       -0.03369784839552
C           66.32261541520825       -0.04414429708301       -0.03613114733647