294
 energy: -478.047954328702 gnorm: 1.920088905875 xtb: 6.5.1 (b24c23e)
Ni          38.11690299999999       -0.02317800000000       -0.02417700000000
C           34.75821499999999        0.18008200000000       -0.25948800000000
C           35.42253400000000        1.28091900000000        0.10198800000000
C           34.77288500000000        2.52440700000000        0.49943300000000
C           35.71559900000000        3.40024700000000        0.78958600000000
C           37.02132100000000        2.75948000000000        0.58227400000000
N           36.84215500000000        1.41092300000000        0.14920100000000
C           38.21649300000000        3.35498700000000        0.76854700000000
C           39.51181000000000        2.66352600000000        0.54072600000000
C           40.80858000000000        3.35016800000000        0.54162300000000
C           41.74176300000000        2.44720100000000        0.32455500000000
N           39.64468000000000        1.38927800000000        0.32878000000000
C           41.04813700000000        1.17219700000000        0.18126300000000
C           41.63972600000000       -0.01791400000000       -0.01772500000000
C           40.88115800000000       -1.28438900000000       -0.15883300000000
C           41.43834600000000       -2.48891300000000       -0.14251800000000
C           40.39111000000000       -3.45449700000000       -0.40249400000000
C           39.25694200000000       -2.78016500000000       -0.55729600000000
C           37.95498900000000       -3.40471400000000       -0.91592900000000
C           37.92992300000000       -4.84650800000000       -1.25049500000000
C           37.86344600000000       -5.25956000000000       -2.58875500000000
C           37.85880400000000       -6.62547000000000       -2.90825900000000
C           37.75302299999999       -7.06534000000000       -4.33858500000000
C           37.88661000000000       -7.57750700000000       -1.87730400000000
C           37.94367400000000       -7.17241500000000       -0.53546300000000
C           38.01041900000000       -8.20300200000000        0.55306700000000
C           37.97521100000000       -5.80401900000000       -0.22699300000000
C           36.80184500000000       -2.71031500000000       -0.92978700000000
C           35.48117400000000       -3.25075600000000       -1.24831000000000
C           34.62592000000000       -2.26625100000000       -1.05887200000000
C           35.38960300000000       -1.09831200000000       -0.62326700000000
N           36.65982200000000       -1.34530400000000       -0.54409900000000
N           39.47716100000000       -1.37495100000000       -0.41031400000000
C           38.26602499999999        4.76525200000000        1.21324800000000
C           37.95054199999999        5.80074300000000        0.32146700000000
C           37.99352799999999        7.13701900000000        0.74475500000000
C           37.67338300000000        8.24603500000000       -0.21378700000000
C           38.39416400000000        7.43513000000000        2.05578200000000
C           38.73519199999999        6.40657200000000        2.94682800000000
C           39.11752299999999        6.72734300000000        4.36148900000000
C           38.65407600000000        5.07168600000000        2.52481000000000
H           33.67526400000000        0.21706200000000       -0.27776600000000
H           33.70827100000000        2.71096000000000        0.55881000000000
H           35.52966599999999        4.41293200000000        1.12221600000000
H           40.98850500000000        4.40707800000000        0.68808600000000
H           42.80400100000000        2.64471400000000        0.26981400000000
H           42.48398499999999       -2.72037600000000        0.00766600000000
H           40.52667300000000       -4.52418200000000       -0.48893800000000
H           37.81936199999999       -4.51815200000000       -3.37856100000000
H           38.25552100000000       -8.04510300000000       -4.48614200000000
H           36.68270099999999       -7.16179500000000       -4.61611100000000
H           38.23754600000000       -6.32668500000000       -5.01271700000000
H           37.86547399999999       -8.63397200000000       -2.11879900000000
H           37.84185500000000       -7.74778200000000        1.55338400000000
H           37.23164900000000       -8.97793800000000        0.38959100000000
H           39.00959700000000       -8.68704200000000        0.54389200000000
H           38.03197800000000       -5.48030400000000        0.80642900000000
H           35.22732400000000       -4.25411000000000       -1.56340800000000
H           33.55432100000000       -2.32776300000000       -1.19604100000000
H           37.66651600000000        5.56524000000000       -0.69756600000000
H           37.18448000000000        9.08988800000000        0.31824600000000
H           36.98219199999999        7.89414600000000       -1.00873000000000
H           38.61066400000000        8.60970100000000       -0.68372300000000
H           38.43998000000000        8.46794500000000        2.38186000000000
H           38.20806199999999        6.73457400000000        4.99650200000000
H           39.60765200000000        7.72223000000000        4.42003900000000
H           39.82884600000000        5.97013700000000        4.75630200000000
H           38.89613900000000        4.27074200000000        3.21372400000000
Ni          95.10821700000000       -0.01025100000000       -0.01446400000000
C           98.46690500000000        0.15917900000000       -0.27519300000000
C           97.80258600000001       -0.49444200000000       -1.23189800000000
C           98.45223500000000       -1.22232000000000       -2.31560500000000
C           97.50952099999999       -1.74480600000000       -3.07606000000000
C           96.20379899999999       -1.36732200000000       -2.51832700000000
N           96.38296499999998       -0.57597800000000       -1.34362200000000
C           95.00862699999999       -1.71200000000000       -3.03844600000000
C           93.71331000000001       -1.30070600000000       -2.43773100000000
C           92.41654000000000       -1.49270300000000       -3.09698500000000
C           91.48335700000000       -1.03286300000000       -2.29012900000000
N           93.58044000000000       -0.74243400000000       -1.27284400000000
C           92.17698299999999       -0.54032000000000       -1.10540700000000
C           91.58539399999998       -0.01791400000000       -0.01772500000000
C           92.34396199999999        0.47015800000000        1.15941500000000
C           91.78677399999999        0.78978300000000        2.32087300000000
C           92.83401000000001        1.30826600000000        3.17592500000000
C           93.96817799999999        1.26924100000000        2.48515400000000
C           95.27013099999999        1.78755100000000        2.98518900000000
C           95.29519699999999        2.51023500000000        4.27686600000000
C           95.36167399999999        3.91058000000000        4.30107000000000
C           95.36631600000000        4.59767500000000        5.52405500000000
C           95.47209700000001        6.09391300000000        5.54839000000000
C           95.33850999999999        3.87248000000000        6.72544400000000
C           95.28144600000000        2.47091100000000        6.70988200000000
C           95.21470100000001        1.71228100000000        8.00274300000000
C           95.24990800000000        1.79372200000000        5.48143800000000
C           96.42327499999999        1.60756600000000        2.31437700000000
C           97.74394599999999        2.06393800000000        2.74479300000000
C           98.59920000000000        1.60793800000000        1.85193200000000
C           97.83551700000000        0.86443800000000        0.85141200000000
N           96.56529799999998        0.85715300000000        1.11067900000000
N           93.74795899999999        0.73690700000000        1.17639400000000
C           94.95909399999999       -2.53169000000000       -4.26918300000000
C           95.27457800000001       -1.96339900000000       -5.51198600000000
C           95.23159199999999       -2.74192700000000       -6.67761900000000
C           95.55173700000000       -2.12998000000000       -8.00962500000000
C           94.83095599999999       -4.08412000000000       -6.59900500000000
C           94.48992800000001       -4.65363600000000       -5.36306600000000
C           94.10759600000000       -6.10167400000000       -5.27736900000000
C           94.57104300000000       -3.87671400000000       -4.19841500000000
H           99.54985600000001        0.16644200000000       -0.31579900000000
H           99.51684899999999       -1.33127900000000       -2.47825700000000
H           97.69545400000000       -2.34618300000000       -3.95612800000000
H           92.23661500000000       -1.92758200000000       -4.07135100000000
H           90.42111900000000       -1.03526500000000       -2.49507500000000
H           90.74113400000000        0.70996600000000        2.58499300000000
H           92.69844699999999        1.68905400000000        4.17926900000000
H           95.40575799999999        4.46278900000000        3.36911300000000
H           94.96959899999999        6.50836700000000        6.44835400000000
H           96.54241800000000        6.38731900000000        5.56378000000000
H           94.98757399999998        6.53578500000000        4.65127700000000
H           95.35964600000000        4.39851100000000        7.67293000000000
H           95.38326499999998        0.62478500000000        7.84396700000000
H           95.99347100000000        2.08501000000000        8.70154400000000
H           94.21552299999999        1.85583300000000        8.46509700000000
H           95.19314100000000        0.71103500000000        5.45818300000000
H           97.99779599999998        2.64587900000000        3.62077900000000
H           99.67079900000000        1.75680800000000        1.87283000000000
H           95.55860399999999       -0.91908700000000       -5.56945200000000
H           96.04063900000000       -2.87588200000000       -8.67202700000000
H           96.24292800000001       -1.26850300000000       -7.89292700000000
H           94.61445600000000       -1.77984900000000       -8.48973000000000
H           94.78513999999998       -4.68480800000000       -7.50023200000000
H           95.01705800000001       -6.71360100000000       -5.10755000000000
H           93.61746800000000       -6.43485000000000       -6.21663700000000
H           93.39627400000001       -6.27010400000000       -4.44019000000000
H           94.32898100000000       -4.31544600000000       -3.23735900000000
C           44.05641600000000       -0.00368800000000       -0.00777400000000
C           45.51464200000000       -0.02552500000000       -0.02564700000000
C           46.64857000000000       -0.04627800000000       -0.02713800000000
C           48.00995200000000       -0.05886800000000       -0.02932900000000
C           49.28417100000000       -0.04856200000000       -0.03409400000000
C           50.47263300000000       -0.02976400000000       -0.04025000000000
C           51.82499400000000       -0.00497900000000       -0.02438200000000
C           52.92526100000000       -0.00368800000000       -0.00777400000000
C           62.11808000000000       -0.00368800000000       -0.00777400000000
C           63.57630600000000       -0.02552500000000       -0.02564700000000
C           64.71023400000000       -0.04627800000000       -0.02713800000000
C           66.07161600000001       -0.05886800000000       -0.02932900000000
C           67.34583499999999       -0.04856200000000       -0.03409400000000
C           68.53429700000000       -0.02976400000000       -0.04025000000000
C           69.88665800000000       -0.00497900000000       -0.02438200000000
C           70.98692500000000       -0.00368800000000       -0.00777400000000
C           80.17974399999999       -0.00368800000000       -0.00777400000000
C           81.63797000000000       -0.02552500000000       -0.02564700000000
C           82.77189900000000       -0.04627800000000       -0.02713800000000
C           84.13327999999998       -0.05886800000000       -0.02932900000000
C           85.40749900000000       -0.04856200000000       -0.03409400000000
C           86.59596200000000       -0.02976400000000       -0.04025000000000
C           87.94832200000000       -0.00497900000000       -0.02438200000000
C           89.04859000000000       -0.00368800000000       -0.00777400000000
Ni          57.47936399999999       -0.07506400000000       -0.03580800000000
C           54.11000200000000        0.01884200000000        0.01938100000000
C           54.76626999999999        1.18976300000000       -0.07928400000000
C           54.12630500000000        2.50680600000000       -0.09418400000000
C           55.06246800000000        3.42039300000000       -0.25576400000000
C           56.35890799999999        2.74196300000000       -0.35583700000000
N           56.18072799999999        1.32871800000000       -0.23473000000000
C           57.54295799999999        3.36188000000000       -0.54622200000000
C           58.84028000000000        2.63925900000000       -0.58140900000000
C           60.10925600000000        3.25644900000000       -0.98860300000000
C           61.06199299999999        2.35995500000000       -0.83380700000000
N           59.00824600000000        1.41165200000000       -0.19961800000000
C           60.40688099999999        1.15851100000000       -0.33287400000000
C           61.02181200000000        0.01884200000000        0.01938100000000
C           60.27063199999999       -1.16511100000000        0.48720400000000
C           60.80513199999999       -2.17752500000000        1.15803100000000
C           59.77271699999999       -3.18529200000000        1.30798200000000
C           58.67908899999999       -2.72068400000000        0.71438300000000
C           57.42611200000000       -3.49327900000000        0.53793300000000
C           57.48944599999999       -4.97284700000000        0.62393400000000
C           56.79177200000000       -5.65749200000000        1.63107000000000
C           56.86745100000000       -7.05459500000000        1.72347000000000
C           56.15737200000000       -7.77399700000000        2.83149900000000
C           57.67283300000000       -7.76506700000000        0.82071700000000
C           58.36804200000000       -7.09106400000000       -0.19418200000000
C           59.25259000000000       -7.85551900000000       -1.13401900000000
C           58.28516900000000       -5.69354200000000       -0.27871900000000
C           56.25420699999999       -2.88089400000000        0.28157600000000
C           54.97939600000000       -3.54075700000000        0.01929300000000
C           54.09113300000000       -2.57824400000000       -0.12360700000000
C           54.78770200000000       -1.29780900000000        0.04013500000000
N           56.05199300000000       -1.46779500000000        0.27398800000000
N           58.90311999999999       -1.42149000000000        0.17026000000000
C           57.57735499999999        4.83280000000000       -0.71921900000000
C           58.16472900000000        5.64158200000000        0.26443700000000
C           58.21318200000000        7.03380000000000        0.10264600000000
C           58.88494000000000        7.88891300000000        1.13621100000000
C           57.69443900000000        7.61286300000000       -1.06552900000000
C           57.09390400000000        6.81324000000000       -2.04965500000000
C           56.57205299999999        7.43589500000000       -3.31002200000000
C           57.05183900000000        5.42176600000000       -1.87923000000000
H           53.07230700000000        2.72643500000000        0.01055100000000
H           54.87717300000000        4.48612500000000       -0.29492300000000
H           60.25856699999999        4.26506700000000       -1.35116800000000
H           62.11159599999999        2.51514000000000       -1.04546500000000
H           61.82902100000000       -2.26067800000000        1.49759200000000
H           59.88919799999999       -4.15326200000000        1.77758900000000
H           56.19788000000000       -5.10092300000000        2.34678800000000
H           55.91851299999999       -8.81805800000000        2.53473200000000
H           56.80537899999999       -7.79313000000000        3.73248300000000
H           55.20448100000000       -7.26131200000000        3.08186500000000
H           57.76020599999999       -8.84192100000000        0.90825500000000
H           59.40143500000000       -7.29593800000000       -2.08271300000000
H           58.79563300000000       -8.83730500000000       -1.38293000000000
H           60.24061100000000       -8.02450400000000       -0.65579100000000
H           58.83835300000000       -5.16467500000000       -1.04604000000000
H           54.77676599999999       -4.60080300000000       -0.05758900000000
H           53.04171200000000       -2.73172000000000       -0.33565800000000
H           58.58555300000000        5.18524800000000        1.15310200000000
H           58.45154400000000        8.91172300000000        1.14248700000000
H           59.96964800000000        7.95689600000000        0.91051300000000
H           58.75160300000000        7.45428800000000        2.14962700000000
H           57.75782900000000        8.68510100000000       -1.20921800000000
H           56.14581100000000        8.43976300000000       -3.09962600000000
H           55.77087299999999        6.80941000000000       -3.75799500000000
H           57.40100300000000        7.53947700000000       -4.04128800000000
H           56.61615400000000        4.79475200000000       -2.64876900000000
Ni          75.54102799999998       -0.07506400000000       -0.03580800000000
C           72.17166600000000        0.01884200000000        0.01938100000000
C           72.82793500000000        1.18976300000000       -0.07928400000000
C           72.18797000000001        2.50680600000000       -0.09418400000000
C           73.12413200000000        3.42039300000000       -0.25576400000000
C           74.42057300000000        2.74196300000000       -0.35583700000000
N           74.24239200000000        1.32871800000000       -0.23473000000000
C           75.60462200000001        3.36188000000000       -0.54622200000000
C           76.90194399999999        2.63925900000000       -0.58140900000000
C           78.17091999999998        3.25644900000000       -0.98860300000000
C           79.12365699999998        2.35995500000000       -0.83380700000000
N           77.06990999999999        1.41165200000000       -0.19961800000000
C           78.46854499999999        1.15851100000000       -0.33287400000000
C           79.08347600000000        0.01884200000000        0.01938100000000
C           78.33229699999998       -1.16511100000000        0.48720400000000
C           78.86679599999999       -2.17752500000000        1.15803100000000
C           77.83438099999999       -3.18529200000000        1.30798200000000
C           76.74075299999998       -2.72068400000000        0.71438300000000
C           75.48777600000000       -3.49327900000000        0.53793300000000
C           75.55110999999999       -4.97284700000000        0.62393400000000
C           74.85343600000000       -5.65749200000000        1.63107000000000
C           74.92911499999998       -7.05459500000000        1.72347000000000
C           74.21903600000000       -7.77399700000000        2.83149900000000
C           75.73449700000000       -7.76506700000000        0.82071700000000
C           76.42970599999998       -7.09106400000000       -0.19418200000000
C           77.31425400000001       -7.85551900000000       -1.13401900000000
C           76.34683300000000       -5.69354200000000       -0.27871900000000
C           74.31587099999999       -2.88089400000000        0.28157600000000
C           73.04106000000000       -3.54075700000000        0.01929300000000
C           72.15279800000000       -2.57824400000000       -0.12360700000000
C           72.84936600000000       -1.29780900000000        0.04013500000000
N           74.11365699999999       -1.46779500000000        0.27398800000000
N           76.96478399999998       -1.42149000000000        0.17026000000000
C           75.63901900000000        4.83280000000000       -0.71921900000000
C           76.22639300000000        5.64158200000000        0.26443700000000
C           76.27484599999998        7.03380000000000        0.10264600000000
C           76.94660500000001        7.88891300000000        1.13621100000000
C           75.75610300000000        7.61286300000000       -1.06552900000000
C           75.15556900000000        6.81324000000000       -2.04965500000000
C           74.63371800000000        7.43589500000000       -3.31002200000000
C           75.11350299999999        5.42176600000000       -1.87923000000000
H           71.13397100000000        2.72643500000000        0.01055100000000
H           72.93883699999999        4.48612500000000       -0.29492300000000
H           78.32023100000001        4.26506700000000       -1.35116800000000
H           80.17326000000000        2.51514000000000       -1.04546500000000
H           79.89068600000000       -2.26067800000000        1.49759200000000
H           77.95086200000000       -4.15326200000000        1.77758900000000
H           74.25954400000001       -5.10092300000000        2.34678800000000
H           73.98017700000000       -8.81805800000000        2.53473200000000
H           74.86704300000000       -7.79313000000000        3.73248300000000
H           73.26614499999999       -7.26131200000000        3.08186500000000
H           75.82186999999999       -8.84192100000000        0.90825500000000
H           77.46309900000000       -7.29593800000000       -2.08271300000000
H           76.85729699999999       -8.83730500000000       -1.38293000000000
H           78.30227499999999       -8.02450400000000       -0.65579100000000
H           76.90001700000001       -5.16467500000000       -1.04604000000000
H           72.83842999999999       -4.60080300000000       -0.05758900000000
H           71.10337600000000       -2.73172000000000       -0.33565800000000
H           76.64721800000000        5.18524800000000        1.15310200000000
H           76.51320800000001        8.91172300000000        1.14248700000000
H           78.03131200000000        7.95689600000000        0.91051300000000
H           76.81326700000000        7.45428800000000        2.14962700000000
H           75.81949299999999        8.68510100000000       -1.20921800000000
H           74.20747500000000        8.43976300000000       -3.09962600000000
H           73.83253700000000        6.80941000000000       -3.75799500000000
H           75.46266700000000        7.53947700000000       -4.04128800000000
H           74.67781900000000        4.79475200000000       -2.64876900000000
294
 energy: -478.737188470822 gnorm: 0.785432305373 xtb: 6.5.1 (b24c23e)
Ni          38.12076814516446       -0.01980740895141       -0.03056877233485
C           34.75877235667491        0.16846450234538       -0.26317112262855
C           35.42883118662721        1.28215444871329        0.10296106934917
C           34.77202877985606        2.51984923302670        0.49775202482568
C           35.72219849402651        3.40177352487774        0.79008171004771
C           37.01983156637012        2.75310133472713        0.58111922347378
N           36.83328353159010        1.41753863134679        0.15317969336328
C           38.22724693182399        3.35255546085679        0.76722095866576
C           39.50563996279335        2.67393779038791        0.54360986267852
C           40.79967216224513        3.35586045408183        0.54395550241307
C           41.74229765821610        2.44170231102309        0.32318658624260
N           39.64810364922185        1.38257624214152        0.32723043273673
C           41.05403153965766        1.16977175456236        0.18042870938471
C           41.63812430841529       -0.02814244518806       -0.01867975444912
C           40.87908472006714       -1.27011906006827       -0.15980228868577
C           41.43918203664579       -2.50496607875024       -0.14435361736410
C           40.40652381422528       -3.45582763601602       -0.40088907072988
C           39.24614842579563       -2.77018966732913       -0.55896501762582
C           37.96483823609277       -3.39940904718504       -0.91313927947122
C           37.93273686614263       -4.84776731599353       -1.25050666576070
C           37.86361606299532       -5.26147163935449       -2.58655606913144
C           37.85748358797574       -6.62481763825330       -2.90559291811455
C           37.75415533544190       -7.06575649873654       -4.34026954070365
C           37.88683524828165       -7.57387488774202       -1.87659886354323
C           37.94420133482556       -7.17030419149340       -0.53698347432068
C           38.00968894290811       -8.20391024356412        0.55457716521172
C           37.97554655788375       -5.80515617606355       -0.22954836784981
C           36.80141678061779       -2.70783607245738       -0.92934435913159
C           35.48765522234725       -3.25130500433982       -1.24782532445668
C           34.62078084327665       -2.25798421178780       -1.05700038643610
C           35.37745270546505       -1.09055825642033       -0.62129761578184
N           36.66477996564857       -1.34876538603550       -0.54371611790056
N           39.47809570352338       -1.37604257324992       -0.40759153469988
C           38.26851589829662        4.76763995691581        1.21324955977204
C           37.95045438966962        5.80178869855768        0.32436706355568
C           37.99496030577977        7.13529642039514        0.74601818508459
C           37.67194289406476        8.24721003978985       -0.21456417855103
C           38.39398312960563        7.43177109698091        2.05475992208824
C           38.73322083944645        6.40612420505399        2.94492466484836
C           39.11920759444822        6.72772046351166        4.36276975609271
C           38.65428365388507        5.07418520507450        2.52307793555080
H           33.67557614287829        0.21506980833172       -0.27869364977062
H           33.70839319150002        2.70758363511777        0.55763461318600
H           35.53396145194402        4.41320426068496        1.12225805224087
H           40.98493516051474        4.40844384085894        0.68871375877716
H           42.80373145460825        2.64028201927558        0.26909554403754
H           42.48420421431723       -2.72210833133654        0.00750424122658
H           40.52849217046557       -4.52423476358017       -0.48828794687669
H           37.81974239262848       -4.51876169488560       -3.37776189635526
H           38.25283433023691       -8.04161708962932       -4.48585243583930
H           36.68715373626756       -7.16170794120907       -4.61603776669366
H           38.23489846882849       -6.32948080463673       -5.01053226106051
H           37.86562515562155       -8.63291468720929       -2.11860367871795
H           37.84296952725528       -7.74970824974680        1.54929766472401
H           37.23524616424729       -8.97576818515580        0.39052702178420
H           39.00534252062111       -8.68589306685811        0.54454556035677
H           38.03181495193623       -5.48067194104333        0.80545979367336
H           35.23151932978249       -4.25388528141168       -1.56305387894436
H           33.55324146444362       -2.32470851872129       -1.19539898577064
H           37.66664813595968        5.56529170280105       -0.69665041939365
H           37.18695339133706        9.08723411739994        0.31583495807140
H           36.98539676153055        7.89570391345953       -1.00621355105819
H           38.60652071168141        8.60903907189027       -0.68246829824892
H           38.43999448425111        8.46694300975683        2.38156288671512
H           38.21208357490790        6.73475759430204        4.99496430085791
H           39.60522434911958        7.71867785178841        4.42036259008563
H           39.82554112646716        5.97295462415929        4.75541969641532
H           38.89610040484013        4.27136365125107        3.21304588281556
Ni          95.10431443338130       -0.00505110048550       -0.01947521071289
C           98.46635279635888        0.16596048561409       -0.26504618465049
C           97.79627016831542       -0.49572382012634       -1.23281362212099
C           98.45308886986001       -1.21943471631996       -2.31169294111913
C           97.50292145012645       -1.74571084096721       -3.07739227889525
C           96.20527357754810       -1.36445171159146       -2.51256005586909
N           96.39184603376358       -0.58163106470229       -1.34886011191204
C           94.99794405960826       -1.71006874957937       -3.03649222680007
C           93.71945803775739       -1.30636747974135       -2.44691173311067
C           92.42547284091945       -1.49651611398813       -3.10180144312136
C           91.48285672911825       -1.03000288204122       -2.28512081300092
N           93.57716463695387       -0.73909570542549       -1.26702547662575
C           92.17125682200979       -0.53875795974296       -1.10314522109123
C           91.58742614298413       -0.01457129624041       -0.00792252814923
C           92.34628283883120        0.46706947139713        1.14526729434743
C           91.78600837249938        0.79599470026233        2.33570801351531
C           92.81859441531846        1.30709942573009        3.17765744846757
C           93.97901480008048        1.26807617391239        2.47512444498539
C           95.26028161842780        1.78339261768722        2.98087187574681
C           95.29238796642073        2.51059220352847        4.27806686216365