      -----------------------------------------------------------      
     |                   =====================                   |     
     |                           x T B                           |     
     |                   =====================                   |     
     |                         S. Grimme                         |     
     |          Mulliken Center for Theoretical Chemistry        |     
     |                    University of Bonn                     |     
      -----------------------------------------------------------      

   * xtb version 6.5.1 (b24c23e) compiled by 'conda@728c89f4b128' on 2022-07-12

   xtb is free software: you can redistribute it and/or modify it under
   the terms of the GNU Lesser General Public License as published by
   the Free Software Foundation, either version 3 of the License, or
   (at your option) any later version.
   
   xtb is distributed in the hope that it will be useful,
   but WITHOUT ANY WARRANTY; without even the implied warranty of
   MERCHANTABILITY or FITNESS FOR A PARTICULAR PURPOSE.  See the
   GNU Lesser General Public License for more details.
   
   Cite this work as:
   * C. Bannwarth, E. Caldeweyher, S. Ehlert, A. Hansen, P. Pracht,
     J. Seibert, S. Spicher, S. Grimme, WIREs Comput. Mol. Sci., 2020, 11,
     e01493. DOI: 10.1002/wcms.1493
   
   for GFN2-xTB:
   * C. Bannwarth, S. Ehlert and S. Grimme., J. Chem. Theory Comput., 2019,
     15, 1652-1671. DOI: 10.1021/acs.jctc.8b01176
   for GFN1-xTB:
   * S. Grimme, C. Bannwarth, P. Shushkov, J. Chem. Theory Comput., 2017,
     13, 1989-2009. DOI: 10.1021/acs.jctc.7b00118
   for GFN0-xTB:
   * P. Pracht, E. Caldeweyher, S. Ehlert, S. Grimme, ChemRxiv, 2019, preprint.
     DOI: 10.26434/chemrxiv.8326202.v1
   for GFN-FF:
   * S. Spicher and S. Grimme, Angew. Chem. Int. Ed., 2020, 59, 15665-15673.
     DOI: 10.1002/anie.202004239
   
   for ALPB and GBSA implicit solvation:
   * S. Ehlert, M. Stahn, S. Spicher, S. Grimme, J. Chem. Theory Comput.,
     2021, 17, 4250-4261. DOI: 10.1021/acs.jctc.1c00471
   
   for DFT-D4:
   * E. Caldeweyher, C. Bannwarth and S. Grimme, J. Chem. Phys., 2017,
     147, 034112. DOI: 10.1063/1.4993215
   * E. Caldeweyher, S. Ehlert, A. Hansen, H. Neugebauer, S. Spicher,
     C. Bannwarth and S. Grimme, J. Chem. Phys., 2019, 150, 154122.
     DOI: 10.1063/1.5090222
   * E. Caldeweyher, J.-M. Mewes, S. Ehlert and S. Grimme, Phys. Chem. Chem. Phys.
     2020, 22, 8499-8512. DOI: 10.1039/D0CP00502A
   
   for sTDA-xTB:
   * S. Grimme and C. Bannwarth, J. Chem. Phys., 2016, 145, 054103.
     DOI: 10.1063/1.4959605
   
   in the mass-spec context:
   * V. Asgeirsson, C. Bauer and S. Grimme, Chem. Sci., 2017, 8, 4879.
     DOI: 10.1039/c7sc00601b
   * J. Koopman and S. Grimme, ACS Omega 2019, 4, 12, 15120-15133.
     DOI: 10.1021/acsomega.9b02011
   
   for metadynamics refer to:
   * S. Grimme, J. Chem. Theory Comput., 2019, 155, 2847-2862
     DOI: 10.1021/acs.jctc.9b00143
   
   for SPH calculations refer to:
   * S. Spicher and S. Grimme, J. Chem. Theory Comput., 2021, 17, 1701-1714
     DOI: 10.1021/acs.jctc.0c01306
   
   with help from (in alphabetical order)
   P. Atkinson, C. Bannwarth, F. Bohle, G. Brandenburg, E. Caldeweyher
   M. Checinski, S. Dohm, S. Ehlert, S. Ehrlich, I. Gerasimov, C. Hölzer
   A. Katbashev, J. Koopman, C. Lavigne, S. Lehtola, F. März, M. Müller,
   F. Musil, H. Neugebauer, J. Pisarek, C. Plett, P. Pracht, F. Pultar,
   J. Seibert, P. Shushkov, S. Spicher, M. Stahn, M. Steiner, T. Strunk,
   J. Stückrath, T. Rose, and J. Unsleber
   
 * started run on 2022/07/30 at 06:31:35.160     

           -------------------------------------------------
          |                Calculation Setup                |
           -------------------------------------------------

          program call               : xtb Ni_Ph3OH_C4_4.xyz --gfn 1 --opt -T 48
          hostname                   : cx3-15-15.cx3.hpc.ic.ac.uk
          coordinate file            : Ni_Ph3OH_C4_4.xyz
          omp threads                :                     1

   ID    Z sym.   atoms
    1   28 Ni     1, 63, 137, 198
    2    6 C      2-6, 8-11, 13, 15, 17-20, 22-27, 29-32, 34, 36, 38-42,
                  64-68, 70-73, 75, 77, 79-82, 84-89, 91-94, 96, 98, 100-104,
                  125-136, 138-142, 144-147, 149, 151, 153-156, 158-163,
                  165-168, 170, 172, 174-178, 199-203, 205-208, 210, 212,
                  214-217, 219-224, 226-229, 231, 233, 235-239
    3    7 N      7, 21, 28, 43, 69, 83, 90, 105, 143, 157, 164, 179, 204,
                  218, 225, 240
    4    8 O      12, 14, 16, 33, 35, 37, 74, 76, 78, 95, 97, 99, 148, 150,
                  152, 169, 171, 173, 209, 211, 213, 230, 232, 234
    5    1 H      44-62, 106-124, 180-197, 241-258

molecular fragmentation (1/2 indicates fragments):
111111111111111111111111111111111111111111111111111111111111112222222222
222222222222222222222222222222222222222222222222222222222222222222222222
222222222222222222222222222222222222222222222222222222222222222222222222
222222222222222222222222222222222222222222
# atoms in fragment 1/2:    62   196
 fragment masses (1/2) :      614.21     1984.75
CMA distance (Bohr)    :  51.344
constraining FC (au)   :  0.0500
########################################################################
[WARNING] Please study the warnings concerning your input carefully
-1- prog_main_parseArguments: Unknown option '-T' provided
########################################################################

           -------------------------------------------------
          |                 G F N 1 - x T B                 |
           -------------------------------------------------

        Reference                      10.1021/acs.jctc.7b00118
      * Hamiltonian:
        H0-scaling (s, p, d)           1.850000    2.250000    2.000000
        zeta-weighting                 0.000000
      * Dispersion:
        s8                             2.400000
        a1                             0.630000
        a2                             5.000000
        s9                             0.000000
      * Repulsion:
        kExp                           1.500000
        rExp                           1.000000
      * Coulomb:
        alpha                          2.000000
        third order                    atomic
        anisotropic                    false
      * Halogen bond correction:
        rad-scale                      1.300000
        damping                        0.440000


          ...................................................
          :                      SETUP                      :
          :.................................................:
          :  # basis functions                 908          :
          :  # atomic orbitals                 904          :
          :  # shells                          520          :
          :  # electrons                       898          :
          :  # halogen bonds                     0          :
          :  max. iterations                   250          :
          :  Hamiltonian                  GFN1-xTB          :
          :  restarted?                      false          :
          :  GBSA solvation                  false          :
          :  PC potential                    false          :
          :  electronic temp.          300.0000000     K    :
          :  accuracy                    1.0000000          :
          :  -> integral cutoff          0.2500000E+02      :
          :  -> integral neglect         0.1000000E-07      :
          :  -> SCF convergence          0.1000000E-05 Eh   :
          :  -> wf. convergence          0.2000000E-04 e    :
          :  Broyden damping             0.4000000          :
          ...................................................

 iter      E             dE          RMSdq      gap      omega  full diag
   1   -519.8906668 -0.519891E+03  0.105E+01    0.01       0.0  T
   2   -426.6292795  0.932614E+02  0.113E+01    0.03       1.0  T
   3   -495.1639788 -0.685347E+02  0.720E+00    0.07       1.0  T
   4    911.2690959  0.140643E+04  0.144E+01    0.08       1.0  T
   5   2049.1190203  0.113785E+04  0.177E+01    0.01       1.0  T
   6   -148.7325661 -0.219785E+04  0.972E+00    0.04       1.0  T
   7   -426.4641614 -0.277732E+03  0.610E+00    0.06       1.0  T
   8   -512.9287989 -0.864646E+02  0.425E+00    0.06       1.0  T
   9   -518.0853923 -0.515659E+01  0.360E+00    0.01       1.0  T
  10   -519.0812653 -0.995873E+00  0.330E+00    0.03       1.0  T
  11   -518.9290130  0.152252E+00  0.305E+00    0.01       1.0  T
  12   -519.8389745 -0.909962E+00  0.285E+00    0.07       1.0  T
  13   -518.9967289  0.842246E+00  0.294E+00    0.09       1.0  T
  14   -517.8462901  0.115044E+01  0.292E+00    0.16       1.0  T
  15   -516.5709894  0.127530E+01  0.253E+00    0.02       1.0  T
  16   -518.1360600 -0.156507E+01  0.240E+00    0.06       1.0  T
  17   -516.4558289  0.168023E+01  0.241E+00    0.01       1.0  T
  18   -515.5056285  0.950200E+00  0.219E+00    0.01       1.0  T
  19   -516.6814481 -0.117582E+01  0.203E+00    0.02       1.0  T
  20   -514.8800215  0.180143E+01  0.193E+00    0.08       1.0  T
  21   -515.6784101 -0.798389E+00  0.177E+00    0.02       1.0  T
  22   -516.9382056 -0.125980E+01  0.165E+00    0.01       1.0  T
  23   -519.6526824 -0.271448E+01  0.984E-01    0.02       1.0  T
  24   -521.1456475 -0.149297E+01  0.665E-01    0.02       1.0  T
  25   -521.5113016 -0.365654E+00  0.565E-01    0.13       1.0  T
  26   -521.5185334 -0.723187E-02  0.561E-01    0.13       1.0  T
  27   -521.5362940 -0.177606E-01  0.544E-01    0.13       1.0  T
  28   -521.5877985 -0.515046E-01  0.506E-01    0.13       1.0  T
  29   -519.7610311  0.182677E+01  0.153E+00    0.06       1.0  T
  30   -517.7338515  0.202718E+01  0.205E+00    0.02       1.0  T
  31   -514.6506885  0.308316E+01  0.265E+00    0.03       1.0  T
  32   -511.9852769  0.266541E+01  0.308E+00    0.02       1.0  T
  33   -515.5735486 -0.358827E+01  0.246E+00    0.03       1.0  T
  34   -519.2318997 -0.365835E+01  0.154E+00    0.02       1.0  T
  35   -519.0348617  0.197038E+00  0.158E+00    0.02       1.0  T
  36   -520.7511343 -0.171627E+01  0.824E-01    0.14       1.0  T
  37   -520.6367928  0.114341E+00  0.999E-01    0.12       1.0  T
  38   -520.2185430  0.418250E+00  0.111E+00    0.03       1.0  T
  39   -520.7415442 -0.523001E+00  0.876E-01    0.08       1.0  T
  40   -521.1583857 -0.416841E+00  0.653E-01    0.05       1.0  T
  41   -521.5792265 -0.420841E+00  0.388E-01    0.07       1.0  T
  42   -521.5368675  0.423591E-01  0.433E-01    0.05       1.0  T
  43   -521.3900730  0.146794E+00  0.573E-01    0.02       1.0  T
  44   -521.5018988 -0.111826E+00  0.573E-01    0.04       1.0  T
  45   -520.8874416  0.614457E+00  0.102E+00    0.05       1.0  T
  46   -521.0855009 -0.198059E+00  0.902E-01    0.03       1.0  T
  47   -521.4961447 -0.410644E+00  0.588E-01    0.03       1.0  T
  48   -521.6767400 -0.180595E+00  0.399E-01    0.08       1.0  T
  49   -521.6919980 -0.152580E-01  0.372E-01    0.07       1.0  T
  50   -521.7260815 -0.340835E-01  0.292E-01    0.08       1.0  T
  51   -521.7463811 -0.202997E-01  0.228E-01    0.11       1.0  T
  52   -521.7588086 -0.124275E-01  0.187E-01    0.12       1.0  T
  53   -521.7626139 -0.380526E-02  0.168E-01    0.13       1.0  T
  54   -521.7699894 -0.737554E-02  0.139E-01    0.15       1.0  T
  55   -521.7748439 -0.485455E-02  0.117E-01    0.17       1.0  T
  56   -521.7789496 -0.410565E-02  0.974E-02    0.19       1.0  T
  57   -521.7810941 -0.214451E-02  0.830E-02    0.22       1.0  T
  58   -521.7830633 -0.196922E-02  0.699E-02    0.24       1.0  T
  59   -521.7838299 -0.766518E-03  0.646E-02    0.24       1.0  T
  60   -521.7843878 -0.557907E-03  0.622E-02    0.24       1.0  T
  61   -521.7849854 -0.597602E-03  0.593E-02    0.23       1.0  T
  62   -521.7856109 -0.625522E-03  0.525E-02    0.23       1.0  T
  63   -521.7859771 -0.366193E-03  0.481E-02    0.23       1.0  T
  64   -521.7863553 -0.378176E-03  0.426E-02    0.23       1.0  T
  65   -521.7867056 -0.350340E-03  0.366E-02    0.23       1.0  T
  66   -521.7869845 -0.278869E-03  0.311E-02    0.23       1.0  T
  67   -521.7871414 -0.156964E-03  0.275E-02    0.23       1.0  T
  68   -521.7873176 -0.176195E-03  0.234E-02    0.23       1.0  T
  69   -521.7874395 -0.121901E-03  0.200E-02    0.23       1.0  T
  70   -521.7875879 -0.148398E-03  0.156E-02    0.23       1.0  T
  71   -521.7876779 -0.900038E-04  0.120E-02    0.23       1.0  T
  72   -521.7877307 -0.527695E-04  0.896E-03    0.23       1.0  T
  73   -521.7877557 -0.250235E-04  0.694E-03    0.23       1.0  T
  74   -521.7877653 -0.956087E-05  0.615E-03    0.23       1.0  T
  75   -521.7877805 -0.152116E-04  0.425E-03    0.23       1.5  T
  76   -521.7877849 -0.436530E-05  0.349E-03    0.23       1.8  T
  77   -521.7877911 -0.626405E-05  0.194E-03    0.23       3.2  T
  78   -521.7877932 -0.203692E-05  0.106E-03    0.23       5.9  T
  79   -521.7877937 -0.590247E-06  0.409E-04    0.23      15.2  T
  80   -521.7877937  0.114402E-07  0.401E-04    0.23      15.5  T
  81   -521.7877938 -0.487338E-07  0.286E-04    0.23      21.8  T
  82   -521.7877938 -0.226695E-07  0.207E-04    0.23      30.1  T
  83   -521.7877938  0.107946E-08  0.206E-04    0.23      30.2  T
  84   -521.7877938 -0.788577E-08  0.168E-04    0.23      37.1  T
  85   -521.7877938 -0.120190E-07  0.895E-05    0.23      69.6  T

   *** convergence criteria satisfied after 85 iterations ***

         #    Occupation            Energy/Eh            Energy/eV
      -------------------------------------------------------------
         1        2.0000           -0.8036919             -21.8696
       ...           ...                  ...                  ...
       443        2.0000           -0.3863680             -10.5136
       444        2.0000           -0.3859522             -10.5023
       445        2.0000           -0.3851762             -10.4812
       446        2.0000           -0.3836375             -10.4393
       447        2.0000           -0.3805070             -10.3541
       448        2.0000           -0.3746076             -10.1936
       449        1.9757           -0.3617427              -9.8435 (HOMO)
       450        0.0243           -0.3533851              -9.6161 (LUMO)
       451                         -0.3414282              -9.2907
       452                         -0.3380560              -9.1990
       453                         -0.3378713              -9.1939
       454                         -0.3353443              -9.1252
       ...                                ...                  ...
       904                          2.2742049              61.8843
      -------------------------------------------------------------
                  HL-Gap            0.0083576 Eh            0.2274 eV
             Fermi-level           -0.3575639 Eh           -9.7298 eV

 SCC (total)                   0 d,  0 h,  0 min, 26.023 sec
 SCC setup                      ...        0 min,  0.020 sec (  0.077%)
 Dispersion                     ...        0 min,  0.012 sec (  0.047%)
 classical contributions        ...        0 min,  0.004 sec (  0.014%)
 integral evaluation            ...        0 min,  0.328 sec (  1.259%)
 iterations                     ...        0 min, 24.857 sec ( 95.517%)
 molecular gradient             ...        0 min,  0.746 sec (  2.866%)
 printout                       ...        0 min,  0.057 sec (  0.220%)

         :::::::::::::::::::::::::::::::::::::::::::::::::::::
         ::                     SUMMARY                     ::
         :::::::::::::::::::::::::::::::::::::::::::::::::::::
         :: total energy            -514.800408227239 Eh    ::
         :: gradient norm              1.829293998154 Eh/a0 ::
         :: HOMO-LUMO gap              0.227421759198 eV    ::
         ::.................................................::
         :: SCC energy              -521.787793825052 Eh    ::
         :: -> electrostatic           1.168985986763 Eh    ::
         :: repulsion energy           7.215956629386 Eh    ::
         :: dispersion energy         -0.228571031574 Eh    ::
         :: halogen bond corr.         0.000000000000 Eh    ::
         :: add. restraining           0.000000000000 Eh    ::
         :: total charge               0.000000000000 e     ::
         :::::::::::::::::::::::::::::::::::::::::::::::::::::

      ----------------------------------------------------------- 
     |                   =====================                   |
     |                        A N C O P T                        |
     |                   =====================                   |
     |               Approximate Normal Coordinate               |
     |                Rational Function Optimizer                |
      ----------------------------------------------------------- 

          ...................................................
          :                      SETUP                      :
          :.................................................:
          :   optimization level            normal          :
          :   max. optcycles                   774          :
          :   ANC micro-cycles                  20          :
          :   degrees of freedom               768          :
          :.................................................:
          :   RF solver                   davidson          :
          :   write xtbopt.log                true          :
          :   linear?                        false          :
          :   energy convergence         0.5000000E-05 Eh   :
          :   grad. convergence          0.1000000E-02 Eh/α :
          :   maximium RF displ.         1.0000000          :
          :   Hlow (freq-cutoff)         0.1000000E-01      :
          :   Hmax (freq-cutoff)         5.0000000          :
          :   S6 in model hess.         20.0000000          :
          ...................................................

generating ANC from model Hessian ...
Using Lindh-Hessian (1995)
 Shifting diagonal of input Hessian by    1.0052887771843421E-002
 Lowest  eigenvalues of input Hessian
    0.010000    0.010008    0.010027    0.010034    0.010042    0.010045
    0.010045    0.010048    0.010049    0.010050    0.010052    0.000000
    0.000000    0.000000    0.000000    0.000000    0.000000    0.010087
 Highest eigenvalues
    2.324403    2.423754    3.193093    3.213464    3.278946    3.294357


........................................................................
.............................. CYCLE    1 ..............................
........................................................................
   1   -521.7877938 -0.521788E+03  0.699E-05    0.23       0.0  T
   2   -521.7877938 -0.119712E-09  0.598E-05    0.23     104.1  T
   3   -521.7877938  0.311047E-09  0.649E-05    0.23      95.9  T
     SCC iter.                  ...        0 min,  0.894 sec
     gradient                   ...        0 min,  0.747 sec
 * total energy  :  -514.8004082 Eh     change       -0.1495437E-08 Eh
   gradient norm :     1.8292953 Eh/α   predicted     0.0000000E+00 (-100.00%)
   displ. norm   :     0.5780636 α      lambda       -0.9819933E+00
   maximum displ.:     0.2363194 α      in ANC's #766, #768, #765, ...

........................................................................
.............................. CYCLE    2 ..............................
........................................................................
   1   -521.9458118 -0.521946E+03  0.220E-01    0.60       0.0  T
   2   -521.9362096  0.960226E-02  0.237E-01    0.51       1.0  T
   3   -521.9651085 -0.288990E-01  0.565E-02    0.55       1.0  T
   4   -521.9662664 -0.115786E-02  0.274E-02    0.55       1.0  T
   5   -521.9661696  0.968001E-04  0.204E-02    0.54       1.0  T
   6   -521.9663735 -0.203940E-03  0.108E-02    0.55       1.0  T
   7   -521.9664191 -0.455831E-04  0.202E-03    0.55       3.1  T
   8   -521.9664215 -0.241400E-05  0.932E-04    0.55       6.7  T
   9   -521.9664221 -0.572846E-06  0.309E-04    0.55      20.2  T
  10   -521.9664221 -0.526143E-07  0.175E-04    0.55      35.5  T
  11   -521.9664222 -0.171735E-07  0.672E-05    0.55      92.7  T
     SCC iter.                  ...        0 min,  3.228 sec
     gradient                   ...        0 min,  0.752 sec
 * total energy  :  -515.4504359 Eh     change       -0.6500276E+00 Eh
   gradient norm :     0.7354669 Eh/α   predicted    -0.6550721E+00 (   0.78%)
   displ. norm   :     0.5933570 α      lambda       -0.3692184E+00
   maximum displ.:     0.1121267 α      in ANC's #584, #766, #768, ...

........................................................................
.............................. CYCLE    3 ..............................
........................................................................
   1   -522.2232147 -0.522223E+03  0.132E-01    0.85       0.0  T
   2   -522.2261692 -0.295452E-02  0.844E-02    0.84       1.0  T
   3   -522.2297237 -0.355444E-02  0.381E-02    0.86       1.0  T
   4   -522.2302961 -0.572401E-03  0.208E-02    0.85       1.0  T
   5   -522.2304144 -0.118319E-03  0.105E-02    0.86       1.0  T
   6   -522.2304503 -0.359141E-04  0.288E-03    0.86       2.2  T
   7   -522.2304564 -0.613471E-05  0.109E-03    0.86       5.7  T
   8   -522.2304575 -0.110394E-05  0.454E-04    0.86      13.7  T
   9   -522.2304577 -0.136816E-06  0.166E-04    0.86      37.6  T
  10   -522.2304577 -0.120283E-07  0.646E-05    0.86      96.4  T
     SCC iter.                  ...        0 min,  2.941 sec
     gradient                   ...        0 min,  0.752 sec
 * total energy  :  -515.7075527 Eh     change       -0.2571169E+00 Eh
   gradient norm :     0.3143862 Eh/α   predicted    -0.2496053E+00 (  -2.92%)
   displ. norm   :     0.6979338 α      lambda       -0.1683546E+00
   maximum displ.:     0.1354093 α      in ANC's #327, #321, #292, ...

........................................................................
.............................. CYCLE    4 ..............................
........................................................................
   1   -522.3855715 -0.522386E+03  0.105E-01    0.95       0.0  T
   2   -522.3874254 -0.185386E-02  0.677E-02    0.95       1.0  T
   3   -522.3892418 -0.181639E-02  0.280E-02    0.95       1.0  T
   4   -522.3894815 -0.239693E-03  0.217E-02    0.95       1.0  T
   5   -522.3897005 -0.219035E-03  0.660E-03    0.95       1.0  T
   6   -522.3897171 -0.165411E-04  0.191E-03    0.95       3.3  T
   7   -522.3897200 -0.290238E-05  0.822E-04    0.95       7.6  T
   8   -522.3897206 -0.623246E-06  0.320E-04    0.95      19.5  T
   9   -522.3897206 -0.540570E-07  0.125E-04    0.95      49.7  T
  10   -522.3897207 -0.967793E-08  0.423E-05    0.95     147.2  T
     SCC iter.                  ...        0 min,  2.939 sec
     gradient                   ...        0 min,  0.754 sec
 * total energy  :  -515.8354677 Eh     change       -0.1279149E+00 Eh
   gradient norm :     0.1953622 Eh/α   predicted    -0.1251812E+00 (  -2.14%)
   displ. norm   :     0.7631637 α      lambda       -0.1153985E+00
   maximum displ.:     0.1623359 α      in ANC's #327, #321, #207, ...

........................................................................
.............................. CYCLE    5 ..............................
........................................................................
   1   -522.4699305 -0.522470E+03  0.851E-02    1.00       0.0  T
   2   -522.4704904 -0.559916E-03  0.623E-02    1.00       1.0  T
   3   -522.4718128 -0.132238E-02  0.246E-02    1.00       1.0  T
   4   -522.4718886 -0.757925E-04  0.228E-02    1.00       1.0  T
   5   -522.4721400 -0.251417E-03  0.524E-03    1.00       1.2  T
   6   -522.4721487 -0.869866E-05  0.156E-03    1.00       4.0  T
   7   -522.4721507 -0.200379E-05  0.647E-04    1.00       9.6  T
   8   -522.4721511 -0.367806E-06  0.265E-04    1.00      23.5  T
   9   -522.4721511 -0.346701E-07  0.939E-05    1.00      66.3  T
  10   -522.4721511 -0.473676E-08  0.280E-05    1.00     222.1  T
     SCC iter.                  ...        0 min,  2.941 sec
     gradient                   ...        0 min,  0.750 sec
 * total energy  :  -515.9224665 Eh     change       -0.8699883E-01 Eh
   gradient norm :     0.1256744 Eh/α   predicted    -0.9130447E-01 (   4.95%)
   displ. norm   :     0.7932586 α      lambda       -0.7436150E-01
   maximum displ.:     0.1770023 α      in ANC's #55, #74, #207, ...

........................................................................
.............................. CYCLE    6 ..............................
........................................................................
   1   -522.5211538 -0.522521E+03  0.584E-02    0.97       0.0  T
   2   -522.5211595 -0.575699E-05  0.533E-02    0.98       1.0  T
   3   -522.5219152 -0.755692E-03  0.212E-02    0.98       1.0  T
   4   -522.5217288  0.186430E-03  0.196E-02    0.97       1.0  T
   5   -522.5219693 -0.240541E-03  0.384E-03    0.98       1.6  T
   6   -522.5219776 -0.826919E-05  0.965E-04    0.97       6.5  T
   7   -522.5219783 -0.696278E-06  0.390E-04    0.98      16.0  T
   8   -522.5219785 -0.152778E-06  0.139E-04    0.98      44.7  T
   9   -522.5219785 -0.144368E-07  0.509E-05    0.98     122.2  T
     SCC iter.                  ...        0 min,  2.648 sec
     gradient                   ...        0 min,  0.753 sec
 * total energy  :  -515.9793561 Eh     change       -0.5688958E-01 Eh
   gradient norm :     0.0811210 Eh/α   predicted    -0.6057710E-01 (   6.48%)
   displ. norm   :     0.7537657 α      lambda       -0.4222751E-01
   maximum displ.:     0.2311065 α      in ANC's #55, #74, #75, ...

........................................................................
.............................. CYCLE    7 ..............................
........................................................................
   1   -522.5919420 -0.522592E+03  0.316E-02    0.97       0.0  T
   2   -522.5919857 -0.437412E-04  0.252E-02    0.97       1.0  T
   3   -522.5921705 -0.184795E-03  0.101E-02    0.97       1.0  T
   4   -522.5921480  0.224979E-04  0.968E-03    0.97       1.0  T
   5   -522.5922032 -0.552026E-04  0.182E-03    0.97       3.4  T
   6   -522.5922049 -0.169121E-05  0.392E-04    0.97      15.9  T
   7   -522.5922050 -0.718223E-07  0.143E-04    0.97      43.4  T
   8   -522.5922050 -0.121034E-07  0.716E-05    0.97      87.0  T
     SCC iter.                  ...        0 min,  2.363 sec
     gradient                   ...        0 min,  0.756 sec
 * total energy  :  -516.0138598 Eh     change       -0.3450377E-01 Eh
   gradient norm :     0.0585242 Eh/α   predicted    -0.3310981E-01 (  -4.04%)
   displ. norm   :     0.8096315 α      lambda       -0.3256731E-01
   maximum displ.:     0.2749029 α      in ANC's #55, #74, #75, ...

........................................................................
.............................. CYCLE    8 ..............................
........................................................................
   1   -522.6606639 -0.522661E+03  0.239E-02    0.97       0.0  T
   2   -522.6607514 -0.875346E-04  0.146E-02    0.97       1.0  T
   3   -522.6608080 -0.565704E-04  0.790E-03    0.97       1.0  T
   4   -522.6608115 -0.349272E-05  0.595E-03    0.97       1.0  T
   5   -522.6608320 -0.205049E-04  0.156E-03    0.97       4.0  T
   6   -522.6608334 -0.138175E-05  0.385E-04    0.97      16.2  T
   7   -522.6608334 -0.520698E-07  0.176E-04    0.97      35.4  T
   8   -522.6608334 -0.209582E-07  0.913E-05    0.97      68.2  T
     SCC iter.                  ...        0 min,  2.360 sec
     gradient                   ...        0 min,  0.756 sec
 * total energy  :  -516.0388176 Eh     change       -0.2495774E-01 Eh
   gradient norm :     0.0470823 Eh/α   predicted    -0.2695771E-01 (   8.01%)
   displ. norm   :     0.8792658 α      lambda       -0.2766317E-01
   maximum displ.:     0.3318800 α      in ANC's #55, #74, #75, ...

........................................................................
.............................. CYCLE    9 ..............................
........................................................................
   1   -522.7090365 -0.522709E+03  0.201E-02    0.97       0.0  T
   2   -522.7091043 -0.677666E-04  0.134E-02    0.97       1.0  T
   3   -522.7091487 -0.444791E-04  0.676E-03    0.97       1.0  T
   4   -522.7091397  0.902087E-05  0.534E-03    0.97       1.2  T
   5   -522.7091594 -0.197226E-04  0.148E-03    0.97       4.2  T
   6   -522.7091611 -0.167086E-05  0.413E-04    0.97      15.1  T
   7   -522.7091612 -0.882798E-07  0.214E-04    0.97      29.1  T
   8   -522.7091612 -0.428416E-07  0.796E-05    0.97      78.2  T
   9   -522.7091613 -0.482169E-08  0.247E-05    0.97     252.5  T
     SCC iter.                  ...        0 min,  2.655 sec
     gradient                   ...        0 min,  0.753 sec
 * total energy  :  -516.0549853 Eh     change       -0.1616772E-01 Eh
   gradient norm :     0.0526639 Eh/α   predicted    -0.2452492E-01 (  51.69%)
   displ. norm   :     0.7236217 α      lambda       -0.2093521E-01
   maximum displ.:     0.3174746 α      in ANC's #55, #74, #75, ...

........................................................................
.............................. CYCLE   10 ..............................
........................................................................
   1   -522.7612321 -0.522761E+03  0.226E-02    0.98       0.0  T
   2   -522.7612686 -0.364701E-04  0.190E-02    0.98       1.0  T
   3   -522.7613187 -0.501800E-04  0.933E-03    0.98       1.0  T
   4   -522.7612866  0.321432E-04  0.662E-03    0.98       1.0  T
   5   -522.7613229 -0.362880E-04  0.119E-03    0.98       5.2  T
   6   -522.7613243 -0.143040E-05  0.235E-04    0.98      26.5  T
   7   -522.7613243 -0.260877E-07  0.122E-04    0.98      51.0  T
   8   -522.7613244 -0.103785E-07  0.536E-05    0.98     116.2  T
     SCC iter.                  ...        0 min,  2.359 sec
     gradient                   ...        0 min,  0.757 sec
 * total energy  :  -516.0701724 Eh     change       -0.1518711E-01 Eh
   gradient norm :     0.0377245 Eh/α   predicted    -0.1594874E-01 (   5.02%)
   displ. norm   :     0.7627686 α      lambda       -0.1436719E-01
   maximum displ.:     0.3661858 α      in ANC's #55, #74, #77, ...

........................................................................
.............................. CYCLE   11 ..............................
........................................................................
   1   -522.8027170 -0.522803E+03  0.128E-02    0.99       0.0  T
   2   -522.8027255 -0.847906E-05  0.107E-02    0.99       1.0  T
   3   -522.8027584 -0.329227E-04  0.439E-03    0.99       1.4  T
   4   -522.8027525  0.583846E-05  0.412E-03    0.99       1.5  T
   5   -522.8027622 -0.970633E-05  0.886E-04    0.99       7.0  T
   6   -522.8027628 -0.569758E-06  0.293E-04    0.99      21.2  T
   7   -522.8027629 -0.797467E-07  0.111E-04    0.99      56.0  T
   8   -522.8027629 -0.121009E-07  0.331E-05    0.99     188.3  T
     SCC iter.                  ...        0 min,  2.353 sec
     gradient                   ...        0 min,  0.758 sec
 * total energy  :  -516.0812394 Eh     change       -0.1106699E-01 Eh
   gradient norm :     0.0397487 Eh/α   predicted    -0.1136312E-01 (   2.68%)
   displ. norm   :     0.8205458 α      lambda       -0.1273837E-01
   maximum displ.:     0.4161671 α      in ANC's #55, #74, #75, ...

........................................................................
.............................. CYCLE   12 ..............................
........................................................................
   1   -522.8381218 -0.522838E+03  0.140E-02    0.99       0.0  T
   2   -522.8381343 -0.124908E-04  0.123E-02    0.99       1.0  T
   3   -522.8381793 -0.449896E-04  0.448E-03    0.99       1.4  T
   4   -522.8381691  0.101538E-04  0.478E-03    0.99       1.3  T
   5   -522.8381824 -0.132574E-04  0.992E-04    0.99       6.3  T
   6   -522.8381829 -0.498864E-06  0.329E-04    0.99      18.9  T
   7   -522.8381830 -0.106063E-06  0.108E-04    0.99      57.6  T
   8   -522.8381830 -0.112511E-07  0.358E-05    0.99     174.0  T
     SCC iter.                  ...        0 min,  2.355 sec
     gradient                   ...        0 min,  0.757 sec
 * total energy  :  -516.0902695 Eh     change       -0.9030075E-02 Eh
   gradient norm :     0.0310394 Eh/α   predicted    -0.1065754E-01 (  18.02%)
   displ. norm   :     0.7757880 α      lambda       -0.1013586E-01
   maximum displ.:     0.3973284 α      in ANC's #55, #74, #75, ...

........................................................................
.............................. CYCLE   13 ..............................
........................................................................
   1   -522.8675779 -0.522868E+03  0.123E-02    0.98       0.0  T
   2   -522.8676022 -0.243188E-04  0.966E-03    0.98       1.0  T
   3   -522.8676217 -0.194406E-04  0.375E-03    0.98       1.7  T
   4   -522.8676133  0.832705E-05  0.362E-03    0.98       1.7  T
   5   -522.8676225 -0.916578E-05  0.807E-04    0.98       7.7  T
   6   -522.8676231 -0.615021E-06  0.248E-04    0.98      25.1  T
   7   -522.8676232 -0.483965E-07  0.106E-04    0.98      59.0  T
   8   -522.8676232 -0.881789E-08  0.275E-05    0.98     226.7  T
     SCC iter.                  ...        0 min,  2.351 sec
     gradient                   ...        0 min,  0.761 sec
 * total energy  :  -516.0966372 Eh     change       -0.6367688E-02 Eh
   gradient norm :     0.0388831 Eh/α   predicted    -0.8118054E-02 (  27.49%)
   displ. norm   :     0.7154367 α      lambda       -0.8291936E-02
   maximum displ.:     0.3775038 α      in ANC's #55, #74, #75, ...

........................................................................
.............................. CYCLE   14 ..............................
........................................................................
   1   -522.8913587 -0.522891E+03  0.136E-02    0.98       0.0  T
   2   -522.8913806 -0.218676E-04  0.123E-02    0.98       1.0  T
   3   -522.8914130 -0.323904E-04  0.486E-03    0.98       1.3  T
   4   -522.8914017  0.113358E-04  0.457E-03    0.98       1.4  T
   5   -522.8914136 -0.119185E-04  0.902E-04    0.98       6.9  T
   6   -522.8914143 -0.765070E-06  0.225E-04    0.98      27.7  T
   7   -522.8914144 -0.378408E-07  0.834E-05    0.98      74.7  T
   8   -522.8914144 -0.642467E-08  0.334E-05    0.98     186.6  T
     SCC iter.                  ...        0 min,  2.350 sec
     gradient                   ...        0 min,  0.758 sec
 * total energy  :  -516.1004890 Eh     change       -0.3851813E-02 Eh
   gradient norm :     0.0317571 Eh/α   predicted    -0.6268089E-02 (  62.73%)
   displ. norm   :     0.6194571 α      lambda       -0.7366054E-02
   maximum displ.:     0.3071900 α      in ANC's #55, #37, #19, ...

........................................................................
.............................. CYCLE   15 ..............................
........................................................................
   1   -522.9154087 -0.522915E+03  0.101E-02    0.98       0.0  T
   2   -522.9154218 -0.131920E-04  0.855E-03    0.98       1.0  T
   3   -522.9154353 -0.134825E-04  0.368E-03    0.98       1.7  T
   4   -522.9154280  0.728670E-05  0.339E-03    0.98       1.8  T
   5   -522.9154358 -0.772021E-05  0.817E-04    0.98       7.6  T
   6   -522.9154365 -0.701310E-06  0.197E-04    0.98      31.5  T
   7   -522.9154365 -0.339160E-07  0.792E-05    0.98      78.6  T
     SCC iter.                  ...        0 min,  2.065 sec
     gradient                   ...        0 min,  0.763 sec
 * total energy  :  -516.1026899 Eh     change       -0.2200942E-02 Eh
   gradient norm :     0.0562390 Eh/α   predicted    -0.5096310E-02 ( 131.55%)
   displ. norm   :     0.4419175 α      lambda       -0.6537839E-02
   maximum displ.:     0.1809850 α      in ANC's #55, #37, #36, ...

........................................................................
.............................. CYCLE   16 ..............................
........................................................................
   1   -522.9282194 -0.522928E+03  0.153E-02    0.98       0.0  T
   2   -522.9282427 -0.232657E-04  0.157E-02    0.98       1.0  T
   3   -522.9282970 -0.543820E-04  0.651E-03    0.98       1.0  T
   4   -522.9282773  0.197869E-04  0.576E-03    0.98       1.1  T
   5   -522.9282977 -0.204163E-04  0.991E-04    0.98       6.3  T
   6   -522.9282983 -0.624564E-06  0.302E-04    0.98      20.6  T
   7   -522.9282984 -0.781083E-07  0.779E-05    0.98      79.9  T
   8   -522.9282984 -0.535181E-08  0.333E-05    0.98     187.2  T
     SCC iter.                  ...        0 min,  2.357 sec
     gradient                   ...        0 min,  0.759 sec
 * total energy  :  -516.1054935 Eh     change       -0.2803610E-02 Eh
   gradient norm :     0.0312662 Eh/α   predicted    -0.3907315E-02 (  39.37%)
   displ. norm   :     0.4685949 α      lambda       -0.3450724E-02
   maximum displ.:     0.2200153 α      in ANC's #55, #37, #19, ...

........................................................................
.............................. CYCLE   17 ..............................
........................................................................
   1   -522.9349955 -0.522935E+03  0.887E-03    0.97       0.0  T
   2   -522.9350023 -0.682954E-05  0.844E-03    0.97       1.0  T
   3   -522.9350211 -0.187333E-04  0.308E-03    0.97       2.0  T
   4   -522.9350160  0.504176E-05  0.302E-03    0.97       2.1  T
   5   -522.9350216 -0.553420E-05  0.502E-04    0.97      12.4  T
   6   -522.9350217 -0.105055E-06  0.162E-04    0.97      38.3  T
   7   -522.9350217 -0.197635E-07  0.548E-05    0.97     113.7  T
     SCC iter.                  ...        0 min,  2.068 sec
     gradient                   ...        0 min,  0.758 sec
 * total energy  :  -516.1073211 Eh     change       -0.1827531E-02 Eh
   gradient norm :     0.0222087 Eh/α   predicted    -0.2104221E-02 (  15.14%)
   displ. norm   :     0.5620393 α      lambda       -0.3201350E-02
   maximum displ.:     0.2272816 α      in ANC's #37, #19, #55, ...

........................................................................
.............................. CYCLE   18 ..............................
........................................................................
   1   -522.9471749 -0.522947E+03  0.101E-02    0.96       0.0  T
   2   -522.9471840 -0.908061E-05  0.101E-02    0.96       1.0  T
   3   -522.9472097 -0.256881E-04  0.372E-03    0.96       1.7  T
   4   -522.9472030  0.669390E-05  0.353E-03    0.96       1.8  T
   5   -522.9472101 -0.713539E-05  0.644E-04    0.96       9.7  T
   6   -522.9472104 -0.224130E-06  0.172E-04    0.96      36.2  T
   7   -522.9472104 -0.199368E-07  0.554E-05    0.96     112.3  T
     SCC iter.                  ...        0 min,  2.055 sec
     gradient                   ...        0 min,  0.757 sec
 * total energy  :  -516.1080648 Eh     change       -0.7437697E-03 Eh
   gradient norm :     0.0359915 Eh/α   predicted    -0.2106307E-02 ( 183.19%)
   displ. norm   :     0.3973305 α      lambda       -0.3333593E-02
   maximum displ.:     0.1550420 α      in ANC's #37, #19, #36, ...

........................................................................
.............................. CYCLE   19 ..............................
........................................................................
   1   -522.9586793 -0.522959E+03  0.764E-03    0.97       0.0  T
   2   -522.9586846 -0.530819E-05  0.697E-03    0.97       1.0  T
   3   -522.9586972 -0.126108E-04  0.249E-03    0.97       2.5  T
   4   -522.9586942  0.295816E-05  0.248E-03    0.97       2.5  T
   5   -522.9586976 -0.334177E-05  0.576E-04    0.97      10.8  T
   6   -522.9586977 -0.127909E-06  0.162E-04    0.97      38.4  T
   7   -522.9586977 -0.192385E-07  0.607E-05    0.97     102.6  T
     SCC iter.                  ...        0 min,  2.058 sec
     gradient                   ...        0 min,  0.760 sec
 * total energy  :  -516.1100019 Eh     change       -0.1937095E-02 Eh
   gradient norm :     0.0182614 Eh/α   predicted    -0.1929945E-02 (  -0.37%)
   displ. norm   :     0.5044440 α      lambda       -0.2199613E-02
   maximum displ.:     0.2287934 α      in ANC's #37, #19, #36, ...

........................................................................
.............................. CYCLE   20 ..............................
........................................................................
   1   -522.9606382 -0.522961E+03  0.578E-03    0.96       0.0  T
   2   -522.9606435 -0.527700E-05  0.534E-03    0.96       1.2  T
   3   -522.9606496 -0.615032E-05  0.214E-03    0.96       2.9  T
   4   -522.9606475  0.213246E-05  0.202E-03    0.96       3.1  T
   5   -522.9606497 -0.226512E-05  0.418E-04    0.96      14.9  T
   6   -522.9606498 -0.108033E-06  0.116E-04    0.96      53.9  T
   7   -522.9606499 -0.101478E-07  0.504E-05    0.96     123.5  T
     SCC iter.                  ...        0 min,  2.051 sec
     gradient                   ...        0 min,  0.757 sec
 * total energy  :  -516.1109512 Eh     change       -0.9492311E-03 Eh
   gradient norm :     0.0199162 Eh/α   predicted    -0.1379671E-02 (  45.35%)
   displ. norm   :     0.5418461 α      lambda       -0.2205984E-02
   maximum displ.:     0.2316782 α      in ANC's #19, #37, #36, ...
 * RMSD in coord.:     0.5726312 α      energy gain  -0.1310543E+01 Eh

generating ANC from model Hessian ...
Using Lindh-Hessian (1995)
 Shifting diagonal of input Hessian by    1.0021766083721403E-002
 Lowest  eigenvalues of input Hessian
    0.010000    0.010004    0.010007    0.010010    0.010012    0.010015
    0.010015    0.010018    0.010018    0.000000    0.000000    0.000000
    0.000000    0.000000    0.000000    0.010045    0.010053    0.010063
 Highest eigenvalues
    2.333370    2.343509    2.343811    2.828388    2.845788    2.852398


........................................................................
.............................. CYCLE   21 ..............................
........................................................................
   1   -522.9642237 -0.522964E+03  0.419E-03    0.96       0.0  T
   2   -522.9642257 -0.203621E-05  0.306E-03    0.96       2.0  T
   3   -522.9642281 -0.235651E-05  0.140E-03    0.96       4.4  T
   4   -522.9642278  0.320898E-06  0.120E-03    0.96       5.2  T
   5   -522.9642286 -0.767877E-06  0.286E-04    0.96      21.7  T
   6   -522.9642286 -0.266275E-07  0.947E-05    0.96      65.8  T
   7   -522.9642286 -0.638340E-08  0.422E-05    0.96     147.4  T
     SCC iter.                  ...        0 min,  2.059 sec
     gradient                   ...        0 min,  0.759 sec
 * total energy  :  -516.1122921 Eh     change       -0.1340927E-02 Eh
   gradient norm :     0.0183149 Eh/α   predicted     0.0000000E+00 (-100.00%)
   displ. norm   :     0.2077316 α      lambda       -0.9919392E-03
   maximum displ.:     0.0920983 α      in ANC's #36, #19, #37, ...

........................................................................
.............................. CYCLE   22 ..............................
........................................................................
   1   -522.9674555 -0.522967E+03  0.229E-03    0.96       0.0  T
   2   -522.9674564 -0.955421E-06  0.172E-03    0.96       3.6  T
   3   -522.9674570 -0.564062E-06  0.759E-04    0.96       8.2  T
   4   -522.9674567  0.248646E-06  0.717E-04    0.96       8.7  T
   5   -522.9674571 -0.329425E-06  0.192E-04    0.96      32.4  T
   6   -522.9674571 -0.239462E-07  0.699E-05    0.96      89.1  T
     SCC iter.                  ...        0 min,  1.769 sec
     gradient                   ...        0 min,  0.757 sec
 * total energy  :  -516.1129825 Eh     change       -0.6904368E-03 Eh
   gradient norm :     0.0070665 Eh/α   predicted    -0.5175336E-03 ( -25.04%)
   displ. norm   :     0.4808635 α      lambda       -0.1436085E-02
   maximum displ.:     0.2244096 α      in ANC's #36, #19, #37, ...

........................................................................
.............................. CYCLE   23 ..............................
........................................................................
   1   -522.9721230 -0.522972E+03  0.378E-03    0.96       0.0  T
   2   -522.9721256 -0.252789E-05  0.259E-03    0.96       2.4  T
   3   -522.9721273 -0.169164E-05  0.114E-03    0.96       5.5  T
   4   -522.9721268  0.482503E-06  0.115E-03    0.96       5.4  T
   5   -522.9721278 -0.985881E-06  0.276E-04    0.96      22.6  T
   6   -522.9721278 -0.261240E-07  0.110E-04    0.96      56.8  T
   7   -522.9721278 -0.886928E-08  0.491E-05    0.96     126.8  T
     SCC iter.                  ...        0 min,  2.060 sec
     gradient                   ...        0 min,  0.767 sec
 * total energy  :  -516.1135449 Eh     change       -0.5623928E-03 Eh
   gradient norm :     0.0202711 Eh/α   predicted    -0.8840823E-03 (  57.20%)
   displ. norm   :     0.4240447 α      lambda       -0.1455891E-02
   maximum displ.:     0.1780728 α      in ANC's #36, #19, #37, ...

........................................................................
.............................. CYCLE   24 ..............................
........................................................................
   1   -522.9756383 -0.522976E+03  0.235E-03    0.96       0.0  T
   2   -522.9756392 -0.835858E-06  0.139E-03    0.96       4.5  T
   3   -522.9756396 -0.454591E-06  0.711E-04    0.96       8.8  T
   4   -522.9756396 -0.126427E-07  0.611E-04    0.96      10.2  T
   5   -522.9756399 -0.262967E-06  0.142E-04    0.96      44.0  T
   6   -522.9756399 -0.136154E-07  0.553E-05    0.96     112.6  T
     SCC iter.                  ...        0 min,  1.772 sec
     gradient                   ...        0 min,  0.764 sec
 * total energy  :  -516.1145469 Eh     change       -0.1001947E-02 Eh
   gradient norm :     0.0183493 Eh/α   predicted    -0.8588565E-03 ( -14.28%)
   displ. norm   :     0.5139941 α      lambda       -0.1276757E-02
   maximum displ.:     0.2192475 α      in ANC's #36, #19, #37, ...

........................................................................
.............................. CYCLE   25 ..............................
........................................................................
   1   -522.9778576 -0.522978E+03  0.285E-03    0.96       0.0  T
   2   -522.9778586 -0.948241E-06  0.189E-03    0.96       3.3  T
   3   -522.9778592 -0.603011E-06  0.978E-04    0.96       6.4  T
   4   -522.9778590  0.196575E-06  0.789E-04    0.96       7.9  T
   5   -522.9778594 -0.452942E-06  0.230E-04    0.96      27.0  T
   6   -522.9778595 -0.537433E-07  0.574E-05    0.96     108.5  T
   7   -522.9778595 -0.216164E-08  0.276E-05    0.96     225.2  T
     SCC iter.                  ...        0 min,  2.064 sec
     gradient                   ...        0 min,  0.759 sec
 * total energy  :  -516.1154973 Eh     change       -0.9503997E-03 Eh
   gradient norm :     0.0103453 Eh/α   predicted    -0.8070333E-03 ( -15.08%)
   displ. norm   :     0.6526575 α      lambda       -0.1317983E-02
   maximum displ.:     0.2755211 α      in ANC's #36, #19, #37, ...

........................................................................
.............................. CYCLE   26 ..............................
........................................................................
   1   -522.9816149 -0.522982E+03  0.301E-03    0.96       0.0  T
   2   -522.9816159 -0.102592E-05  0.194E-03    0.96       3.2  T
   3   -522.9816167 -0.765018E-06  0.977E-04    0.96       6.4  T
   4   -522.9816165  0.169934E-06  0.750E-04    0.96       8.3  T
   5   -522.9816169 -0.408702E-06  0.206E-04    0.96      30.2  T
   6   -522.9816170 -0.361763E-07  0.579E-05    0.96     107.6  T
   7   -522.9816170 -0.200259E-08  0.323E-05    0.96     193.0  T
     SCC iter.                  ...        0 min,  2.066 sec
     gradient                   ...        0 min,  0.764 sec
 * total energy  :  -516.1164970 Eh     change       -0.9997547E-03 Eh
   gradient norm :     0.0120187 Eh/α   predicted    -0.9397012E-03 (  -6.01%)
   displ. norm   :     0.6940544 α      lambda       -0.1266618E-02
   maximum displ.:     0.2879508 α      in ANC's #19, #36, #37, ...

........................................................................
.............................. CYCLE   27 ..............................
........................................................................
   1   -522.9876050 -0.522988E+03  0.281E-03    0.95       0.0  T
   2   -522.9876061 -0.114373E-05  0.161E-03    0.95       3.9  T
   3   -522.9876065 -0.387352E-06  0.854E-04    0.95       7.3  T
   4   -522.9876064  0.101942E-06  0.569E-04    0.95      10.9  T
   5   -522.9876066 -0.186787E-06  0.188E-04    0.95      33.0  T
   6   -522.9876066 -0.296084E-07  0.520E-05    0.95     119.7  T
     SCC iter.                  ...        0 min,  1.776 sec
     gradient                   ...        0 min,  0.761 sec
 * total energy  :  -516.1174054 Eh     change       -0.9083514E-03 Eh
   gradient norm :     0.0130363 Eh/α   predicted    -0.9383854E-03 (   3.31%)
   displ. norm   :     0.6672921 α      lambda       -0.1121243E-02
   maximum displ.:     0.2854355 α      in ANC's #19, #36, #20, ...

........................................................................
.............................. CYCLE   28 ..............................
........................................................................
   1   -522.9954250 -0.522995E+03  0.286E-03    0.95       0.0  T
   2   -522.9954261 -0.107861E-05  0.143E-03    0.95       4.4  T
   3   -522.9954262 -0.190155E-06  0.832E-04    0.95       7.5  T
   4   -522.9954262  0.392095E-08  0.537E-04    0.95      11.6  T
   5   -522.9954264 -0.184169E-06  0.212E-04    0.95      29.4  T
   6   -522.9954265 -0.381643E-07  0.679E-05    0.95      91.7  T
   7   -522.9954265 -0.162356E-08  0.303E-05    0.95     205.4  T
     SCC iter.                  ...        0 min,  2.062 sec
     gradient                   ...        0 min,  0.759 sec
 * total energy  :  -516.1181563 Eh     change       -0.7509441E-03 Eh
   gradient norm :     0.0106514 Eh/α   predicted    -0.8102562E-03 (   7.90%)
   displ. norm   :     0.6345772 α      lambda       -0.1017036E-02
   maximum displ.:     0.2864853 α      in ANC's #19, #36, #20, ...

........................................................................
.............................. CYCLE   29 ..............................
........................................................................
   1   -523.0050774 -0.523005E+03  0.323E-03    0.95       0.0  T
   2   -523.0050784 -0.105677E-05  0.165E-03    0.95       3.8  T
   3   -523.0050785 -0.930287E-07  0.985E-04    0.95       6.3  T
   4   -523.0050786 -0.451762E-07  0.654E-04    0.95       9.5  T
   5   -523.0050790 -0.382180E-06  0.208E-04    0.95      29.9  T
   6   -523.0050790 -0.261962E-07  0.717E-05    0.95      86.9  T
   7   -523.0050790 -0.146827E-08  0.392E-05    0.95     158.9  T
     SCC iter.                  ...        0 min,  2.056 sec
     gradient                   ...        0 min,  0.760 sec
 * total energy  :  -516.1188932 Eh     change       -0.7368616E-03 Eh
   gradient norm :     0.0075912 Eh/α   predicted    -0.7132951E-03 (  -3.20%)
   displ. norm   :     0.6604043 α      lambda       -0.7373933E-03
   maximum displ.:     0.3050890 α      in ANC's #19, #20, #36, ...

........................................................................
.............................. CYCLE   30 ..............................
........................................................................
   1   -523.0117669 -0.523012E+03  0.307E-03    0.94       0.0  T
   2   -523.0117677 -0.841106E-06  0.172E-03    0.94       3.6  T
   3   -523.0117679 -0.166848E-06  0.102E-03    0.94       6.1  T
   4   -523.0117678  0.464771E-07  0.682E-04    0.94       9.1  T
   5   -523.0117682 -0.408330E-06  0.197E-04    0.94      31.6  T
   6   -523.0117683 -0.326568E-07  0.634E-05    0.94      98.1  T
     SCC iter.                  ...        0 min,  1.771 sec
     gradient                   ...        0 min,  0.760 sec
 * total energy  :  -516.1194873 Eh     change       -0.5940829E-03 Eh
   gradient norm :     0.0089153 Eh/α   predicted    -0.5294997E-03 ( -10.87%)
   displ. norm   :     0.6199577 α      lambda       -0.7003166E-03
   maximum displ.:     0.3129904 α      in ANC's #19, #20, #22, ...

........................................................................
.............................. CYCLE   31 ..............................
........................................................................
   1   -523.0228940 -0.523023E+03  0.496E-03    0.94       0.0  T
   2   -523.0228957 -0.161591E-05  0.250E-03    0.94       2.5  T
   3   -523.0228942  0.150331E-05  0.182E-03    0.94       3.4  T
   4   -523.0228965 -0.232066E-05  0.986E-04    0.94       6.3  T
   5   -523.0228972 -0.767250E-06  0.261E-04    0.94      23.9  T
   6   -523.0228973 -0.119596E-07  0.127E-04    0.94      49.1  T
   7   -523.0228973 -0.878538E-08  0.643E-05    0.94      96.8  T
     SCC iter.                  ...        0 min,  2.063 sec
     gradient                   ...        0 min,  0.761 sec
 * total energy  :  -516.1199787 Eh     change       -0.4914761E-03 Eh
   gradient norm :     0.0082138 Eh/α   predicted    -0.4847420E-03 (  -1.37%)
   displ. norm   :     0.6405221 α      lambda       -0.5898188E-03
   maximum displ.:     0.3212310 α      in ANC's #19, #20, #22, ...

........................................................................
.............................. CYCLE   32 ..............................
........................................................................
   1   -523.0240876 -0.523024E+03  0.407E-03    0.94       0.0  T
   2   -523.0240888 -0.119262E-05  0.222E-03    0.94       2.8  T
   3   -523.0240887  0.103324E-06  0.135E-03    0.94       4.6  T
   4   -523.0240885  0.235572E-06  0.855E-04    0.94       7.3  T
   5   -523.0240892 -0.743674E-06  0.185E-04    0.94      33.6  T
   6   -523.0240893 -0.328181E-07  0.639E-05    0.94      97.5  T
     SCC iter.                  ...        0 min,  1.775 sec
     gradient                   ...        0 min,  0.765 sec
 * total energy  :  -516.1203985 Eh     change       -0.4197682E-03 Eh
   gradient norm :     0.0096161 Eh/α   predicted    -0.4159027E-03 (  -0.92%)
   displ. norm   :     0.5130833 α      lambda       -0.4338271E-03
   maximum displ.:     0.2726818 α      in ANC's #19, #20, #22, ...

........................................................................
.............................. CYCLE   33 ..............................
........................................................................
   1   -523.0254610 -0.523025E+03  0.304E-03    0.94       0.0  T
   2   -523.0254629 -0.184015E-05  0.123E-03    0.94       5.0  T
   3   -523.0254631 -0.223744E-06  0.601E-04    0.94      10.4  T
   4   -523.0254631  0.323856E-07  0.451E-04    0.94      13.8  T
   5   -523.0254632 -0.166012E-06  0.139E-04    0.94      44.7  T
   6   -523.0254632 -0.764885E-08  0.784E-05    0.94      79.5  T
     SCC iter.                  ...        0 min,  1.771 sec
     gradient                   ...        0 min,  0.763 sec
 * total energy  :  -516.1207670 Eh     change       -0.3685125E-03 Eh
   gradient norm :     0.0077726 Eh/α   predicted    -0.2740194E-03 ( -25.64%)
   displ. norm   :     0.5579077 α      lambda       -0.5607520E-03
   maximum displ.:     0.2947250 α      in ANC's #19, #20, #22, ...

........................................................................
.............................. CYCLE   34 ..............................
........................................................................
   1   -523.0257885 -0.523026E+03  0.455E-03    0.94       0.0  T
   2   -523.0257921 -0.357286E-05  0.197E-03    0.94       3.2  T
   3   -523.0257924 -0.346583E-06  0.103E-03    0.94       6.0  T
   4   -523.0257923  0.186534E-06  0.722E-04    0.94       8.6  T
   5   -523.0257927 -0.444871E-06  0.230E-04    0.94      27.0  T
   6   -523.0257927 -0.246944E-07  0.918E-05    0.94      67.8  T
   7   -523.0257927 -0.339037E-08  0.383E-05    0.94     162.7  T
     SCC iter.                  ...        0 min,  2.066 sec
     gradient                   ...        0 min,  0.763 sec
 * total energy  :  -516.1212163 Eh     change       -0.4492475E-03 Eh
   gradient norm :     0.0068581 Eh/α   predicted    -0.3676480E-03 ( -18.16%)
   displ. norm   :     0.6224219 α      lambda       -0.5091553E-03
   maximum displ.:     0.3225385 α      in ANC's #19, #20, #35, ...

........................................................................
.............................. CYCLE   35 ..............................
........................................................................
   1   -523.0248286 -0.523025E+03  0.426E-03    0.94       0.0  T
   2   -523.0248323 -0.366455E-05  0.166E-03    0.94       3.8  T
   3   -523.0248327 -0.415515E-06  0.790E-04    0.94       7.9  T
   4   -523.0248325  0.132097E-06  0.635E-04    0.94       9.8  T
   5   -523.0248329 -0.379743E-06  0.179E-04    0.94      34.7  T
   6   -523.0248329 -0.101352E-07  0.838E-05    0.94      74.3  T
     SCC iter.                  ...        0 min,  1.773 sec
     gradient                   ...        0 min,  0.764 sec
 * total energy  :  -516.1216248 Eh     change       -0.4085500E-03 Eh
   gradient norm :     0.0066718 Eh/α   predicted    -0.3532061E-03 ( -13.55%)
   displ. norm   :     0.6179834 α      lambda       -0.4411020E-03
   maximum displ.:     0.3156658 α      in ANC's #19, #20, #35, ...

........................................................................
.............................. CYCLE   36 ..............................
........................................................................
   1   -523.0211431 -0.523021E+03  0.469E-03    0.94       0.0  T
   2   -523.0211465 -0.340482E-05  0.221E-03    0.94       2.8  T
   3   -523.0211468 -0.350214E-06  0.126E-03    0.94       4.9  T
   4   -523.0211463  0.523584E-06  0.852E-04    0.94       7.3  T
   5   -523.0211470 -0.691670E-06  0.225E-04    0.94      27.6  T
   6   -523.0211470 -0.446531E-07  0.705E-05    0.94      88.3  T
   7   -523.0211470 -0.292903E-08  0.331E-05    0.94     188.3  T
     SCC iter.                  ...        0 min,  2.069 sec
     gradient                   ...        0 min,  0.763 sec
 * total energy  :  -516.1219163 Eh     change       -0.2915085E-03 Eh
   gradient norm :     0.0114401 Eh/α   predicted    -0.3047836E-03 (   4.55%)
   displ. norm   :     0.5012424 α      lambda       -0.5002677E-03
   maximum displ.:     0.2337551 α      in ANC's #36, #19, #35, ...

........................................................................
.............................. CYCLE   37 ..............................
........................................................................
   1   -523.0235907 -0.523024E+03  0.654E-03    0.94       0.0  T
   2   -523.0235950 -0.425019E-05  0.297E-03    0.94       2.1  T
   3   -523.0235950  0.345834E-07  0.165E-03    0.94       3.8  T
   4   -523.0235948  0.159917E-06  0.103E-03    0.94       6.0  T
   5   -523.0235957 -0.874063E-06  0.320E-04    0.94      19.5  T
   6   -523.0235957 -0.516549E-07  0.125E-04    0.94      50.0  T
   7   -523.0235957 -0.788543E-08  0.529E-05    0.94     117.7  T
     SCC iter.                  ...        0 min,  2.070 sec
     gradient                   ...        0 min,  0.762 sec
 * total energy  :  -516.1221745 Eh     change       -0.2581718E-03 Eh
   gradient norm :     0.0104857 Eh/α   predicted    -0.3129819E-03 (  21.23%)
   displ. norm   :     0.4209406 α      lambda       -0.2629391E-03
   maximum displ.:     0.2198081 α      in ANC's #19, #20, #35, ...

........................................................................
.............................. CYCLE   38 ..............................
........................................................................
   1   -523.0211987 -0.523021E+03  0.349E-03    0.94       0.0  T
   2   -523.0212005 -0.181286E-05  0.164E-03    0.94       3.8  T
   3   -523.0212007 -0.242356E-06  0.959E-04    0.94       6.5  T
   4   -523.0212004  0.309811E-06  0.725E-04    0.94       8.6  T
   5   -523.0212009 -0.475460E-06  0.127E-04    0.94      49.2  T
   6   -523.0212009 -0.102182E-07  0.511E-05    0.94     121.8  T
     SCC iter.                  ...        0 min,  1.770 sec
     gradient                   ...        0 min,  0.763 sec
 * total energy  :  -516.1223578 Eh     change       -0.1833250E-03 Eh
   gradient norm :     0.0079093 Eh/α   predicted    -0.1547688E-03 ( -15.58%)
   displ. norm   :     0.3653064 α      lambda       -0.2566465E-03
   maximum displ.:     0.1811782 α      in ANC's #19, #35, #20, ...

........................................................................
.............................. CYCLE   39 ..............................
........................................................................
   1   -523.0212151 -0.523021E+03  0.436E-03    0.94       0.0  T
   2   -523.0212181 -0.298029E-05  0.203E-03    0.94       3.1  T
   3   -523.0212184 -0.257633E-06  0.122E-03    0.94       5.1  T
   4   -523.0212183  0.449207E-07  0.876E-04    0.94       7.1  T
   5   -523.0212190 -0.679528E-06  0.191E-04    0.94      32.6  T
   6   -523.0212190 -0.110248E-07  0.747E-05    0.94      83.3  T
     SCC iter.                  ...        0 min,  1.771 sec
     gradient                   ...        0 min,  0.761 sec
 * total energy  :  -516.1224887 Eh     change       -0.1308411E-03 Eh
   gradient norm :     0.0084879 Eh/α   predicted    -0.1454505E-03 (  11.17%)
   displ. norm   :     0.3106114 α      lambda       -0.3033967E-03
   maximum displ.:     0.1427235 α      in ANC's #19, #35, #36, ...

........................................................................
.............................. CYCLE   40 ..............................
........................................................................
   1   -523.0237312 -0.523024E+03  0.576E-03    0.94       0.0  T
   2   -523.0237345 -0.325756E-05  0.278E-03    0.94       2.2  T
   3   -523.0237342  0.332478E-06  0.175E-03    0.94       3.6  T
   4   -523.0237341  0.348014E-07  0.121E-03    0.94       5.2  T
   5   -523.0237355 -0.136548E-05  0.240E-04    0.94      25.9  T
   6   -523.0237355 -0.162942E-07  0.118E-04    0.94      52.7  T
   7   -523.0237355 -0.117629E-07  0.475E-05    0.94     131.2  T
     SCC iter.                  ...        0 min,  2.072 sec
     gradient                   ...        0 min,  0.766 sec
 * total energy  :  -516.1225785 Eh     change       -0.8981859E-04 Eh
   gradient norm :     0.0122079 Eh/α   predicted    -0.1663357E-03 (  85.19%)
   displ. norm   :     0.1416082 α      lambda       -0.2203217E-03
   maximum displ.:     0.0714197 α      in ANC's #19, #35, #20, ...

........................................................................
.............................. CYCLE   41 ..............................
........................................................................
   1   -523.0230195 -0.523023E+03  0.334E-03    0.94       0.0  T
   2   -523.0230201 -0.566886E-06  0.170E-03    0.94       3.7  T
   3   -523.0230194  0.616765E-06  0.109E-03    0.94       5.7  T
   4   -523.0230199 -0.492350E-06  0.627E-04    0.94       9.9  T
   5   -523.0230203 -0.379314E-06  0.146E-04    0.94      42.7  T
   6   -523.0230203 -0.530792E-08  0.657E-05    0.94      94.7  T
     SCC iter.                  ...        0 min,  1.778 sec
     gradient                   ...        0 min,  0.763 sec
 * total energy  :  -516.1227094 Eh     change       -0.1309540E-03 Eh
   gradient norm :     0.0061588 Eh/α   predicted    -0.1123736E-03 ( -14.19%)
   displ. norm   :     0.1975936 α      lambda       -0.1324574E-03
   maximum displ.:     0.1033783 α      in ANC's #19, #35, #20, ...

........................................................................
.............................. CYCLE   42 ..............................
........................................................................
   1   -523.0216742 -0.523022E+03  0.223E-03    0.94       0.0  T
   2   -523.0216749 -0.740389E-06  0.115E-03    0.94       5.4  T
   3   -523.0216750 -0.728876E-07  0.699E-04    0.94       8.9  T
   4   -523.0216750 -0.291490E-07  0.535E-04    0.94      11.6  T
   5   -523.0216753 -0.246676E-06  0.118E-04    0.94      52.7  T
   6   -523.0216753 -0.308944E-08  0.622E-05    0.94     100.0  T
     SCC iter.                  ...        0 min,  1.772 sec
     gradient                   ...        0 min,  0.763 sec
 * total energy  :  -516.1228085 Eh     change       -0.9902822E-04 Eh
   gradient norm :     0.0051767 Eh/α   predicted    -0.6881798E-04 ( -30.51%)
   displ. norm   :     0.3408255 α      lambda       -0.1795072E-03
   maximum displ.:     0.1724718 α      in ANC's #19, #35, #39, ...
 * RMSD in coord.:     0.5697707 α      energy gain  -0.1185730E-01 Eh

generating ANC from model Hessian ...
Using Lindh-Hessian (1995)
 Shifting diagonal of input Hessian by    1.0025793587283689E-002
 Lowest  eigenvalues of input Hessian
    0.010000    0.010006    0.010011    0.010013    0.010014    0.010017
    0.010019    0.010021    0.010022    0.000000    0.000000    0.000000
    0.000000    0.000000    0.000000    0.010057    0.010064    0.010091
 Highest eigenvalues
    2.376115    2.376314    2.377540    2.886037    2.886748    2.887293


........................................................................
.............................. CYCLE   43 ..............................
........................................................................
   1   -523.0220582 -0.523022E+03  0.280E-03    0.94       0.0  T
   2   -523.0220599 -0.164849E-05  0.132E-03    0.94       4.7  T
   3   -523.0220603 -0.409767E-06  0.680E-04    0.94       9.2  T
   4   -523.0220604 -0.147153E-06  0.525E-04    0.94      11.9  T
   5   -523.0220606 -0.203273E-06  0.144E-04    0.94      43.3  T
   6   -523.0220606  0.182695E-09  0.802E-05    0.94      77.7  T
     SCC iter.                  ...        0 min,  1.777 sec
     gradient                   ...        0 min,  0.764 sec
 * total energy  :  -516.1229423 Eh     change       -0.1338798E-03 Eh
   gradient norm :     0.0055084 Eh/α   predicted     0.0000000E+00 (-100.00%)
   displ. norm   :     0.0513084 α      lambda       -0.6907350E-04
   maximum displ.:     0.0160549 α      in ANC's #34, #43, #38, ...

........................................................................
.............................. CYCLE   44 ..............................
........................................................................
   1   -523.0235913 -0.523024E+03  0.138E-03    0.94       0.0  T
   2   -523.0235915 -0.211248E-06  0.663E-04    0.94       9.4  T
   3   -523.0235914  0.264537E-07  0.420E-04    0.94      14.8  T
   4   -523.0235915 -0.486710E-07  0.283E-04    0.94      22.0  T
   5   -523.0235916 -0.685097E-07  0.755E-05    0.94      82.5  T
   6   -523.0235916 -0.114028E-08  0.407E-05    0.94     152.9  T
     SCC iter.                  ...        0 min,  1.776 sec
     gradient                   ...        0 min,  0.763 sec
 * total energy  :  -516.1230057 Eh     change       -0.6330784E-04 Eh
   gradient norm :     0.0023748 Eh/α   predicted    -0.3956326E-04 ( -37.51%)
   displ. norm   :     0.1683484 α      lambda       -0.1603817E-03
   maximum displ.:     0.0545948 α      in ANC's #43, #34, #19, ...

........................................................................
.............................. CYCLE   45 ..............................
........................................................................
   1   -523.0259023 -0.523026E+03  0.350E-03    0.94       0.0  T
   2   -523.0259041 -0.172851E-05  0.153E-03    0.94       4.1  T
   3   -523.0259040  0.646207E-07  0.966E-04    0.94       6.4  T
   4   -523.0259043 -0.319567E-06  0.682E-04    0.94       9.1  T
   5   -523.0259047 -0.415531E-06  0.181E-04    0.94      34.5  T
   6   -523.0259047 -0.134332E-08  0.101E-04    0.94      61.6  T
     SCC iter.                  ...        0 min,  1.774 sec
     gradient                   ...        0 min,  0.764 sec
 * total energy  :  -516.1230856 Eh     change       -0.7994149E-04 Eh
   gradient norm :     0.0057645 Eh/α   predicted    -0.8246594E-04 (   3.16%)
   displ. norm   :     0.1337507 α      lambda       -0.9868090E-04
   maximum displ.:     0.0473522 α      in ANC's #34, #43, #39, ...

........................................................................
.............................. CYCLE   46 ..............................
........................................................................
   1   -523.0257488 -0.523026E+03  0.178E-03    0.94       0.0  T
   2   -523.0257494 -0.626253E-06  0.712E-04    0.94       8.7  T
   3   -523.0257495 -0.491355E-07  0.415E-04    0.94      15.0  T
   4   -523.0257496 -0.837299E-07  0.297E-04    0.94      21.0  T
   5   -523.0257496 -0.825306E-07  0.767E-05    0.94      81.2  T
   6   -523.0257496  0.715886E-09  0.468E-05    0.94     133.1  T
     SCC iter.                  ...        0 min,  1.774 sec
     gradient                   ...        0 min,  0.763 sec
 * total energy  :  -516.1231324 Eh     change       -0.4677147E-04 Eh
   gradient norm :     0.0066877 Eh/α   predicted    -0.5023766E-04 (   7.41%)
   displ. norm   :     0.1118141 α      lambda       -0.8380510E-04
   maximum displ.:     0.0434014 α      in ANC's #43, #34, #39, ...

........................................................................
.............................. CYCLE   47 ..............................
........................................................................
   1   -523.0250620 -0.523025E+03  0.123E-03    0.94       0.0  T
   2   -523.0250622 -0.223347E-06  0.616E-04    0.94      10.1  T
   3   -523.0250622 -0.121436E-07  0.369E-04    0.94      16.9  T
   4   -523.0250621  0.415281E-07  0.290E-04    0.94      21.5  T
   5   -523.0250622 -0.865342E-07  0.619E-05    0.94     100.5  T
   6   -523.0250622 -0.233399E-08  0.267E-05    0.94     233.4  T
     SCC iter.                  ...        0 min,  1.777 sec
     gradient                   ...        0 min,  0.764 sec
 * total energy  :  -516.1231875 Eh     change       -0.5513558E-04 Eh
   gradient norm :     0.0040144 Eh/α   predicted    -0.4242908E-04 ( -23.05%)
   displ. norm   :     0.3601274 α      lambda       -0.2537303E-03
   maximum displ.:     0.1437220 α      in ANC's #43, #34, #39, ...

........................................................................
.............................. CYCLE   48 ..............................
........................................................................
   1   -523.0223780 -0.523022E+03  0.420E-03    0.94       0.0  T
   2   -523.0223802 -0.228659E-05  0.211E-03    0.94       3.0  T
   3   -523.0223803 -0.773422E-07  0.124E-03    0.94       5.0  T
   4   -523.0223799  0.405219E-06  0.912E-04    0.94       6.8  T
   5   -523.0223808 -0.835328E-06  0.215E-04    0.94      28.9  T
   6   -523.0223808 -0.295913E-07  0.887E-05    0.94      70.2  T
   7   -523.0223808 -0.586022E-08  0.354E-05    0.94     176.1  T
     SCC iter.                  ...        0 min,  2.066 sec
     gradient                   ...        0 min,  0.766 sec
 * total energy  :  -516.1232700 Eh     change       -0.8246999E-04 Eh
   gradient norm :     0.0089496 Eh/α   predicted    -0.1433204E-03 (  73.78%)
   displ. norm   :     0.2048740 α      lambda       -0.1348460E-03
   maximum displ.:     0.0810239 α      in ANC's #43, #34, #39, ...

........................................................................
.............................. CYCLE   49 ..............................
........................................................................
   1   -523.0226022 -0.523023E+03  0.277E-03    0.94       0.0  T
   2   -523.0226032 -0.102570E-05  0.116E-03    0.94       5.4  T
   3   -523.0226032  0.845638E-07  0.729E-04    0.94       8.5  T
   4   -523.0226033 -0.121677E-06  0.494E-04    0.94      12.6  T
   5   -523.0226035 -0.232499E-06  0.132E-04    0.94      47.3  T
   6   -523.0226035 -0.554451E-09  0.732E-05    0.94      85.0  T
     SCC iter.                  ...        0 min,  1.774 sec
     gradient                   ...        0 min,  0.763 sec
 * total energy  :  -516.1233600 Eh     change       -0.8999932E-04 Eh
   gradient norm :     0.0050919 Eh/α   predicted    -0.7026249E-04 ( -21.93%)
   displ. norm   :     0.2235234 α      lambda       -0.1247341E-03
   maximum displ.:     0.0939453 α      in ANC's #43, #39, #34, ...

........................................................................
.............................. CYCLE   50 ..............................
........................................................................
   1   -523.0249706 -0.523025E+03  0.128E-03    0.94       0.0  T
   2   -523.0249709 -0.220475E-06  0.637E-04    0.94       9.8  T
   3   -523.0249709 -0.176753E-07  0.404E-04    0.94      15.4  T
   4   -523.0249709  0.156535E-08  0.303E-04    0.94      20.5  T
   5   -523.0249710 -0.777789E-07  0.596E-05    0.94     104.4  T
   6   -523.0249710 -0.116120E-08  0.293E-05    0.94     212.5  T
     SCC iter.                  ...        0 min,  1.771 sec
     gradient                   ...        0 min,  0.770 sec
 * total energy  :  -516.1234551 Eh     change       -0.9510985E-04 Eh
   gradient norm :     0.0022590 Eh/α   predicted    -0.6548890E-04 ( -31.14%)
   displ. norm   :     0.4281365 α      lambda       -0.1630001E-03
   maximum displ.:     0.1797969 α      in ANC's #43, #39, #34, ...

........................................................................
.............................. CYCLE   51 ..............................
........................................................................
   1   -523.0263010 -0.523026E+03  0.190E-03    0.94       0.0  T
   2   -523.0263017 -0.729117E-06  0.838E-04    0.94       7.4  T
   3   -523.0263019 -0.151032E-06  0.464E-04    0.94      13.4  T
   4   -523.0263019 -0.483758E-07  0.347E-04    0.94      17.9  T
   5   -523.0263020 -0.787768E-07  0.862E-05    0.94      72.3  T
   6   -523.0263020 -0.148179E-08  0.417E-05    0.94     149.3  T
     SCC iter.                  ...        0 min,  1.774 sec
     gradient                   ...        0 min,  0.763 sec
 * total energy  :  -516.1235896 Eh     change       -0.1344911E-03 Eh
   gradient norm :     0.0043275 Eh/α   predicted    -0.9644192E-04 ( -28.29%)
   displ. norm   :     0.5752074 α      lambda       -0.2051591E-03
   maximum displ.:     0.2420401 α      in ANC's #43, #39, #34, ...

........................................................................
.............................. CYCLE   52 ..............................
........................................................................
   1   -523.0257845 -0.523026E+03  0.250E-03    0.94       0.0  T
   2   -523.0257858 -0.125345E-05  0.103E-03    0.94       6.0  T
   3   -523.0257860 -0.203532E-06  0.559E-04    0.94      11.1  T
   4   -523.0257860 -0.116057E-07  0.444E-04    0.94      14.0  T
   5   -523.0257861 -0.140519E-06  0.114E-04    0.94      54.8  T
   6   -523.0257861 -0.332250E-08  0.466E-05    0.94     133.7  T
     SCC iter.                  ...        0 min,  1.777 sec
     gradient                   ...        0 min,  0.764 sec
 * total energy  :  -516.1237500 Eh     change       -0.1604393E-03 Eh
   gradient norm :     0.0071589 Eh/α   predicted    -0.1365235E-03 ( -14.91%)
   displ. norm   :     0.5344334 α      lambda       -0.1975048E-03
   maximum displ.:     0.2264826 α      in ANC's #43, #39, #34, ...

........................................................................
.............................. CYCLE   53 ..............................
........................................................................
   1   -523.0257156 -0.523026E+03  0.220E-03    0.94       0.0  T
   2   -523.0257164 -0.836072E-06  0.925E-04    0.94       6.7  T
   3   -523.0257165 -0.936105E-07  0.510E-04    0.94      12.2  T
   4   -523.0257165  0.289549E-07  0.379E-04    0.94      16.4  T
   5   -523.0257166 -0.107682E-06  0.112E-04    0.94      55.4  T
   6   -523.0257166 -0.434670E-08  0.431E-05    0.94     144.6  T
     SCC iter.                  ...        0 min,  1.776 sec
     gradient                   ...        0 min,  0.762 sec
 * total energy  :  -516.1238986 Eh     change       -0.1485538E-03 Eh
   gradient norm :     0.0084228 Eh/α   predicted    -0.1269622E-03 ( -14.53%)
   displ. norm   :     0.4790742 α      lambda       -0.1943035E-03
   maximum displ.:     0.2040441 α      in ANC's #43, #39, #34, ...

........................................................................
.............................. CYCLE   54 ..............................
........................................................................
   1   -523.0259862 -0.523026E+03  0.223E-03    0.94       0.0  T
   2   -523.0259872 -0.100263E-05  0.987E-04    0.94       6.3  T
   3   -523.0259873 -0.110422E-06  0.529E-04    0.94      11.8  T
   4   -523.0259873  0.264992E-07  0.296E-04    0.94      21.0  T
   5   -523.0259874 -0.511711E-07  0.147E-04    0.94      42.3  T
   6   -523.0259874 -0.171965E-07  0.436E-05    0.94     142.9  T
     SCC iter.                  ...        0 min,  1.775 sec
     gradient                   ...        0 min,  0.762 sec
 * total energy  :  -516.1240451 Eh     change       -0.1465409E-03 Eh
   gradient norm :     0.0044897 Eh/α   predicted    -0.1194505E-03 ( -18.49%)
   displ. norm   :     0.4027284 α      lambda       -0.1676479E-03
   maximum displ.:     0.1718753 α      in ANC's #39, #43, #34, ...

........................................................................
.............................. CYCLE   55 ..............................
........................................................................
   1   -523.0284105 -0.523028E+03  0.224E-03    0.94       0.0  T
   2   -523.0284113 -0.818364E-06  0.998E-04    0.94       6.2  T
   3   -523.0284113 -0.251230E-07  0.605E-04    0.94      10.3  T
   4   -523.0284113 -0.372810E-07  0.444E-04    0.94      14.0  T
   5   -523.0284115 -0.174816E-06  0.130E-04    0.94      48.0  T
   6   -523.0284115 -0.566263E-08  0.601E-05    0.94     103.5  T
     SCC iter.                  ...        0 min,  1.777 sec
     gradient                   ...        0 min,  0.768 sec
 * total energy  :  -516.1241563 Eh     change       -0.1111551E-03 Eh
   gradient norm :     0.0039117 Eh/α   predicted    -0.9742556E-04 ( -12.35%)
   displ. norm   :     0.4729032 α      lambda       -0.1115707E-03
   maximum displ.:     0.1998409 α      in ANC's #39, #43, #34, ...

........................................................................
.............................. CYCLE   56 ..............................
........................................................................
   1   -523.0227000 -0.523023E+03  0.303E-03    0.94       0.0  T
   2   -523.0227011 -0.109569E-05  0.138E-03    0.94       4.5  T
   3   -523.0227011 -0.416890E-07  0.822E-04    0.94       7.6  T
[...]
    20   6 C       22   6 C                                       1.4280218
    21   7 N       22   6 C                                       1.3676787
    22   6 C       23   6 C                                       1.3972136
    23   6 C       24   6 C                                       1.3968596
    24   6 C       25   6 C                                       1.4282304
    25   6 C       26   6 C                                       1.3540565
    26   6 C       27   6 C                                       1.4316561
    24   6 C       28   7 N                                       1.3677329
    27   6 C       28   7 N                                       1.3774016
    27   6 C       29   6 C                                       1.3877216
    30   6 C       31   6 C                                       1.3944694
    31   6 C       32   6 C                                       1.3902433
    32   6 C       33   8 O                                       1.3552855
    32   6 C       34   6 C                                       1.3957993
    34   6 C       35   8 O                                       1.3704121
    34   6 C       36   6 C                                       1.3924786
    36   6 C       37   8 O                                       1.3703185
    30   6 C       38   6 C                                       1.3971779
    36   6 C       38   6 C                                       1.3894351
    29   6 C       39   6 C                                       1.3886529
    39   6 C       40   6 C                                       1.4337114
    40   6 C       41   6 C                                       1.3533126
     2   6 C       42   6 C                                       1.3788968
    41   6 C       42   6 C                                       1.4306916
    39   6 C       43   7 N                                       1.3727031
    42   6 C       43   7 N                                       1.3724643
     2   6 C       44   1 H                                       1.0838234
     4   6 C       45   1 H                                       1.0783859
     5   6 C       46   1 H                                       1.0777589
    10   6 C       47   1 H                                       1.0823272
    12   8 O       48   1 H                                       0.9714801
    14   8 O       49   1 H                                       0.9704898
    16   8 O       50   1 H                                       0.9661908
    17   6 C       51   1 H                                       1.0836602
    19   6 C       52   1 H                                       1.0777115
    20   6 C       53   1 H                                       1.0780402
    25   6 C       54   1 H                                       1.0780195
    26   6 C       55   1 H                                       1.0776031
    31   6 C       56   1 H                                       1.0823217
    33   8 O       57   1 H                                       0.9714373
    35   8 O       58   1 H                                       0.9704214
    37   8 O       59   1 H                                       0.9661904
    38   6 C       60   1 H                                       1.0836821
    40   6 C       61   1 H                                       1.0778989
    41   6 C       62   1 H                                       1.0784282
    64   6 C       65   6 C                                       1.3787198
    65   6 C       66   6 C                                       1.4308914
    66   6 C       67   6 C                                       1.3530346
    67   6 C       68   6 C                                       1.4338095
    65   6 C       69   7 N                                       1.3725735
    68   6 C       69   7 N                                       1.3727834
    68   6 C       70   6 C                                       1.3884613
    71   6 C       72   6 C                                       1.3945018
    72   6 C       73   6 C                                       1.3902097
    73   6 C       74   8 O                                       1.3552465
    73   6 C       75   6 C                                       1.3957691
    75   6 C       76   8 O                                       1.3703412
    75   6 C       77   6 C                                       1.3924762
    77   6 C       78   8 O                                       1.3702494
    71   6 C       79   6 C                                       1.3970898
    77   6 C       79   6 C                                       1.3894953
    70   6 C       80   6 C                                       1.3879063
    80   6 C       81   6 C                                       1.4315333
    81   6 C       82   6 C                                       1.3542401
    80   6 C       83   7 N                                       1.3773756
    82   6 C       84   6 C                                       1.4280797
    83   7 N       84   6 C                                       1.3676514
    84   6 C       85   6 C                                       1.3971561
    85   6 C       86   6 C                                       1.3968972
    86   6 C       87   6 C                                       1.4282798
    87   6 C       88   6 C                                       1.3540248
    88   6 C       89   6 C                                       1.4316756
    86   6 C       90   7 N                                       1.3676425
    89   6 C       90   7 N                                       1.3774651
    89   6 C       91   6 C                                       1.3876017
    92   6 C       93   6 C                                       1.3944153
    93   6 C       94   6 C                                       1.3902795
    94   6 C       95   8 O                                       1.3551643
    94   6 C       96   6 C                                       1.3958368
    96   6 C       97   8 O                                       1.3701802
    96   6 C       98   6 C                                       1.3925128
    98   6 C       99   8 O                                       1.3702246
    92   6 C      100   6 C                                       1.3971339
    98   6 C      100   6 C                                       1.3894744
    91   6 C      101   6 C                                       1.3886469
   101   6 C      102   6 C                                       1.4336743
   102   6 C      103   6 C                                       1.3533206
    64   6 C      104   6 C                                       1.3788972
   103   6 C      104   6 C                                       1.4307025
   101   6 C      105   7 N                                       1.3726545
   104   6 C      105   7 N                                       1.3725013
    64   6 C      106   1 H                                       1.0838305
    66   6 C      107   1 H                                       1.0783929
    67   6 C      108   1 H                                       1.0777776
    72   6 C      109   1 H                                       1.0823211
    74   8 O      110   1 H                                       0.9714504
    76   8 O      111   1 H                                       0.9704527
    78   8 O      112   1 H                                       0.9661727
    79   6 C      113   1 H                                       1.0836662
    81   6 C      114   1 H                                       1.0777048
    82   6 C      115   1 H                                       1.0780234
    87   6 C      116   1 H                                       1.0780214
    88   6 C      117   1 H                                       1.0775891
    93   6 C      118   1 H                                       1.0823322
    95   8 O      119   1 H                                       0.9714878
    97   8 O      120   1 H                                       0.9704220
    99   8 O      121   1 H                                       0.9661749
   100   6 C      122   1 H                                       1.0836846
   102   6 C      123   1 H                                       1.0779035
   103   6 C      124   1 H                                       1.0784328
   125   6 C      126   6 C                                       1.2215302
   127   6 C      128   6 C                                       1.2216279
   129   6 C      130   6 C                                       1.2217657
   131   6 C      132   6 C                                       1.2217987
   133   6 C      134   6 C                                       1.2216069
   135   6 C      136   6 C                                       1.2215231
   138   6 C      139   6 C                                       1.3980958
   139   6 C      140   6 C                                       1.4275164
   140   6 C      141   6 C                                       1.3554403
   141   6 C      142   6 C                                       1.4307237
   139   6 C      143   7 N                                       1.3676655
   142   6 C      143   7 N                                       1.3765484
   142   6 C      144   6 C                                       1.3891257
   145   6 C      146   6 C                                       1.3952449
   146   6 C      147   6 C                                       1.3922398
   147   6 C      148   8 O                                       1.3583955
   147   6 C      149   6 C                                       1.3987321
   149   6 C      150   8 O                                       1.3581311
   149   6 C      151   6 C                                       1.3974719
   151   6 C      152   8 O                                       1.3710627
   145   6 C      153   6 C                                       1.3960737
   151   6 C      153   6 C                                       1.3878171
   144   6 C      154   6 C                                       1.3887505
   154   6 C      155   6 C                                       1.4308547
   155   6 C      156   6 C                                       1.3553681
   154   6 C      157   7 N                                       1.3771094
   156   6 C      158   6 C                                       1.4274810
   157   7 N      158   6 C                                       1.3673259
   158   6 C      159   6 C                                       1.3982736
   159   6 C      160   6 C                                       1.3976526
   160   6 C      161   6 C                                       1.4279105
   161   6 C      162   6 C                                       1.3549827
   162   6 C      163   6 C                                       1.4310641
   160   6 C      164   7 N                                       1.3678780
   163   6 C      164   7 N                                       1.3766325
   163   6 C      165   6 C                                       1.3885465
   166   6 C      167   6 C                                       1.3951523
   167   6 C      168   6 C                                       1.3901014
   168   6 C      169   8 O                                       1.3538282
   168   6 C      170   6 C                                       1.3962153
   170   6 C      171   8 O                                       1.3876977
   170   6 C      172   6 C                                       1.3936770
   172   6 C      173   8 O                                       1.3638378
   166   6 C      174   6 C                                       1.3951276
   172   6 C      174   6 C                                       1.3903276
   165   6 C      175   6 C                                       1.3884766
   175   6 C      176   6 C                                       1.4310631
   176   6 C      177   6 C                                       1.3550890
   138   6 C      178   6 C                                       1.3977058
   177   6 C      178   6 C                                       1.4277943
   175   6 C      179   7 N                                       1.3767296
   178   6 C      179   7 N                                       1.3675875
   140   6 C      180   1 H                                       1.0780833
   141   6 C      181   1 H                                       1.0777729
   146   6 C      182   1 H                                       1.0841881
   148   8 O      183   1 H                                       0.9661989
   150   8 O      184   1 H                                       0.9708308
   152   8 O      185   1 H                                       0.9660001
   153   6 C      186   1 H                                       1.0836433
   155   6 C      187   1 H                                       1.0777351
   156   6 C      188   1 H                                       1.0780719
   161   6 C      189   1 H                                       1.0780348
   162   6 C      190   1 H                                       1.0776771
   167   6 C      191   1 H                                       1.0822926
   169   8 O      192   1 H                                       0.9719404
   171   8 O      193   1 H                                       0.9662058
   173   8 O      194   1 H                                       0.9677417
   174   6 C      195   1 H                                       1.0822664
   176   6 C      196   1 H                                       1.0777120
   177   6 C      197   1 H                                       1.0780666
   199   6 C      200   6 C                                       1.3981501
   200   6 C      201   6 C                                       1.4275304
   201   6 C      202   6 C                                       1.3554579
   202   6 C      203   6 C                                       1.4307773
   200   6 C      204   7 N                                       1.3677501
   203   6 C      204   7 N                                       1.3766365
   203   6 C      205   6 C                                       1.3891712
   206   6 C      207   6 C                                       1.3953216
   207   6 C      208   6 C                                       1.3922201
   208   6 C      209   8 O                                       1.3583292
   208   6 C      210   6 C                                       1.3987894
   210   6 C      211   8 O                                       1.3579921
   210   6 C      212   6 C                                       1.3974831
   212   6 C      213   8 O                                       1.3709782
   206   6 C      214   6 C                                       1.3960998
   212   6 C      214   6 C                                       1.3878150
   205   6 C      215   6 C                                       1.3889548
   215   6 C      216   6 C                                       1.4309037
   216   6 C      217   6 C                                       1.3553764
   215   6 C      218   7 N                                       1.3769832
   217   6 C      219   6 C                                       1.4274628
   218   7 N      219   6 C                                       1.3673925
   219   6 C      220   6 C                                       1.3981602
   220   6 C      221   6 C                                       1.3976729
   221   6 C      222   6 C                                       1.4278664
   222   6 C      223   6 C                                       1.3550978
   223   6 C      224   6 C                                       1.4309596
   221   6 C      225   7 N                                       1.3678813
   224   6 C      225   7 N                                       1.3763372
   224   6 C      226   6 C                                       1.3887532
   227   6 C      228   6 C                                       1.3952249
   228   6 C      229   6 C                                       1.3901048
   229   6 C      230   8 O                                       1.3535768
   229   6 C      231   6 C                                       1.3962466
   231   6 C      232   8 O                                       1.3882577
   231   6 C      233   6 C                                       1.3936182
   233   6 C      234   8 O                                       1.3634503
   227   6 C      235   6 C                                       1.3950557
   233   6 C      235   6 C                                       1.3904267
   226   6 C      236   6 C                                       1.3882617
   236   6 C      237   6 C                                       1.4310741
   237   6 C      238   6 C                                       1.3550676
   199   6 C      239   6 C                                       1.3979062
   238   6 C      239   6 C                                       1.4278318
   236   6 C      240   7 N                                       1.3769800
   239   6 C      240   7 N                                       1.3674010
   201   6 C      241   1 H                                       1.0780810
   202   6 C      242   1 H                                       1.0777722
   207   6 C      243   1 H                                       1.0841823
   209   8 O      244   1 H                                       0.9662003
   211   8 O      245   1 H                                       0.9708356
   213   8 O      246   1 H                                       0.9660000 (min)
   214   6 C      247   1 H                                       1.0836424
   216   6 C      248   1 H                                       1.0777094
   217   6 C      249   1 H                                       1.0780616
   222   6 C      250   1 H                                       1.0780593
   223   6 C      251   1 H                                       1.0776955
   228   6 C      252   1 H                                       1.0822934
   230   8 O      253   1 H                                       0.9720252
   232   8 O      254   1 H                                       0.9661511
   234   8 O      255   1 H                                       0.9680465
   235   6 C      256   1 H                                       1.0822647
   237   6 C      257   1 H                                       1.0777032
   238   6 C      258   1 H                                       1.0780500

 * 5 distinct bonds (by element types)

   Z      Z             #   av. dist./Å        max./Å        min./Å
   1 H    6 C          50     1.0798080     1.0841881     1.0775891
   6 C    6 C         134     1.3892873     1.4338578     1.2215231
   6 C    7 N          32     1.3723810     1.3774651     1.3673259
   1 H    8 O          24     0.9687728     0.9720252     0.9660000
   6 C    8 O          24     1.3653526     1.3882577     1.3535768


optimized geometry written to: xtbopt.xyz


           -------------------------------------------------
          | TOTAL ENERGY             -516.124429747766 Eh   |
          | GRADIENT NORM               0.000652982449 Eh/α |
          | HOMO-LUMO GAP               0.940529039894 eV   |
           -------------------------------------------------

------------------------------------------------------------------------
 * finished run on 2022/07/30 at 06:35:55.192     
------------------------------------------------------------------------
 total:
 * wall-time:     0 d,  0 h,  4 min, 20.033 sec
 *  cpu-time:     0 d,  0 h,  4 min, 18.933 sec
 * ratio c/w:     0.996 speedup
 SCF:
 * wall-time:     0 d,  0 h,  0 min, 26.025 sec
 *  cpu-time:     0 d,  0 h,  0 min, 25.906 sec
 * ratio c/w:     0.995 speedup
 ANC optimizer:
 * wall-time:     0 d,  0 h,  3 min, 53.696 sec
 *  cpu-time:     0 d,  0 h,  3 min, 52.720 sec
 * ratio c/w:     0.996 speedup

