183
 energy: -332.429236284426 gnorm: 1.103166613591 xtb: 6.5.1 (b24c23e)
Ni          34.30339900000000       -0.02267100000000        0.00270600000000
C           30.94164600000000        0.11243600000000       -0.11631700000000
C           31.60770500000000        1.26612900000000       -0.01588500000000
C           30.95788000000000        2.56772700000000        0.07804600000000
C           31.89798400000000        3.48194700000000        0.22327000000000
C           33.20331900000000        2.80688000000000        0.22423000000000
N           33.02594800000000        1.39831400000000        0.06939700000000
C           34.39273299999999        3.41921700000000        0.39728300000000
C           34.42906500000000        4.88615900000000        0.58982100000000
C           34.68392699999999        5.42387400000000        1.85947000000000
C           34.72266999999999        6.80906700000000        2.04261600000000
C           34.50232600000000        7.67455600000000        0.95697200000000
C           34.53565100000000        9.13808100000000        1.13083300000000
O           34.77000000000000        9.65438200000000        2.25608400000000
C           34.24624000000000        7.13265000000000       -0.31222800000000
C           34.21222400000000        5.74741000000000       -0.49576100000000
C           35.68847600000000        2.68830000000000        0.41397000000000
C           36.98325900000000        3.33013900000000        0.67267200000000
C           37.91741300000000        2.40683800000000        0.57983600000000
N           35.82717200000000        1.42189100000000        0.16282100000000
C           37.22910900000000        1.16478100000000        0.25111200000000
C           37.82522100000000       -0.01391400000000        0.00378800000000
C           37.07033400000000       -1.23736800000000       -0.35465600000000
C           37.62395500000000       -2.32581100000000       -0.87465200000000
C           36.57998900000000       -3.32076000000000       -1.00837300000000
C           35.45528400000000       -2.77709000000000       -0.55939600000000
N           35.67380400000000       -1.43263800000000       -0.12523200000000
C           34.15858300000000       -3.49727500000000       -0.47312100000000
C           34.16807200000000       -4.97730200000000       -0.54862100000000
C           33.60574000000000       -5.63650200000000       -1.65308700000000
C           33.63523800000000       -7.03176600000000       -1.73018300000000
C           34.23210500000000       -7.78636500000000       -0.70787500000000
C           34.25983000000000       -9.25694700000000       -0.80923600000000
O           34.83587399999999       -9.95831000000000        0.06330200000000
C           34.79980499999999       -7.12384400000000        0.39509300000000
C           34.77042200000000       -5.72847300000000        0.47114400000000
C           32.99034100000000       -2.84392300000000       -0.32944300000000
C           31.66863900000000       -3.45758000000000       -0.21227500000000
C           30.80819300000000       -2.46198600000000       -0.12681600000000
C           31.57110900000000       -1.21598400000000       -0.17676600000000
N           32.84457100000000       -1.42575300000000       -0.29492200000000
H           29.85837500000000        0.14525100000000       -0.13315600000000
H           29.89404100000000        2.76549400000000        0.05077300000000
H           31.70946800000000        4.54188900000000        0.33355000000000
H           34.85336499999999        4.76920100000000        2.70570900000000
H           34.92328700000000        7.20165700000000        3.03159200000000
H           34.35816100000000        9.78797300000000        0.28358100000000
H           34.07331700000000        7.78198700000000       -1.16186800000000
H           34.01520000000000        5.34457500000000       -1.48196800000000
H           37.16581000000000        4.37350400000000        0.89168900000000
H           38.97837500000000        2.57423300000000        0.70982300000000
H           38.66406899999999       -2.46271200000000       -1.13783900000000
H           36.70394900000000       -4.32585600000000       -1.38959400000000
H           33.14936700000000       -5.06860600000000       -2.45543100000000
H           33.19736900000000       -7.52235700000000       -2.59176500000000
H           33.78828900000000       -9.74981500000000       -1.64945200000000
H           35.26605100000000       -7.68291900000000        1.19743500000000
H           35.21357000000000       -5.23270600000000        1.32656000000000
H           31.41752900000000       -4.51010800000000       -0.19327000000000
H           29.73518500000000       -2.56405800000000       -0.02868100000000
Ni          56.65718600000000       -0.00509300000000        0.00396400000000
C           60.01893800000000       -0.12187300000000       -0.13308600000000
C           59.35287900000000       -1.27811000000000       -0.19797200000000
C           60.00270499999999       -2.57981900000000       -0.29035500000000
C           59.06260000000000       -3.50540200000000       -0.27680200000000
C           57.75726500000000       -2.83735200000000       -0.17971700000000
N           57.93463600000000       -1.42109200000000       -0.13238300000000
C           56.56785099999999       -3.46809200000000       -0.09562900000000
C           56.53151900000000       -4.94750200000000       -0.11395600000000
C           56.27665699999999       -5.66054400000000        1.06617800000000
C           56.23791400000000       -7.05770000000000        1.05019600000000
C           56.45825800000000       -7.75976500000000       -0.14763400000000
C           56.42493300000000       -9.23313300000000       -0.18396100000000
O           56.19058400000000       -9.90441600000000        0.85629600000000
C           56.71434500000000       -7.04263900000000       -1.32672800000000
C           56.74836100000000       -5.64538100000000       -1.31112200000000
C           55.27210899999999       -2.74700100000000        0.02497500000000
C           53.97732600000000       -3.41914000000000        0.18963800000000
C           53.04317100000000       -2.49202800000000        0.22923200000000
N           55.13341200000000       -1.45773300000000       -0.04326900000000
C           53.73147500000000       -1.21581700000000        0.08073600000000
C           53.13536300000000       -0.01391400000000        0.00378800000000
C           53.89025000000000        1.24811500000000       -0.17677400000000
C           53.33662899999999        2.39951600000000       -0.53646900000000
C           54.38059500000000        3.40336700000000       -0.52713900000000
C           55.50529999999999        2.80130100000000       -0.16016000000000
N           55.28678000000000        1.40872400000000        0.07811900000000
C           56.80200099999999        3.50186000000000        0.02779400000000
C           56.79251200000000        4.97755500000000        0.16383000000000
C           57.35484400000000        5.78732000000000       -0.83550500000000
C           57.32534600000000        7.17934300000000       -0.71312000000000
C           56.72847900000000        7.78066700000000        0.40622900000000
C           56.70075400000000        9.25069500000000        0.51532300000000
O           56.12470999999999        9.82065400000000        1.47884700000000
C           56.16077899999999        6.96782800000000        1.40360900000000
C           56.19016200000000        5.57584800000000        1.28017400000000
C           57.97024300000000        2.83470600000000        0.07696600000000
C           59.29194499999999        3.42542300000000        0.28032900000000
C           60.15239099999999        2.42780600000000        0.22313700000000
C           59.38947599999999        1.20161600000000       -0.00374300000000
N           58.11601300000000        1.42607400000000       -0.09082200000000
H           61.10220900000000       -0.15195500000000       -0.15442700000000
H           61.06654300000000       -2.77168600000000       -0.34551300000000
H           59.25111600000000       -4.57024600000000       -0.31858900000000
H           56.10721899999999       -5.13305300000000        1.99702200000000
H           56.03729700000000       -7.58712600000000        1.97318600000000
H           56.60242300000000       -9.75574700000000       -1.11512800000000
H           56.88726699999999       -7.56436300000000       -2.26017900000000
H           56.94538400000000       -5.10620900000000       -2.22991200000000
H           53.79477400000000       -4.48306100000000        0.25784100000000
H           51.98220900000000       -2.67622800000000        0.33405700000000
H           52.29651500000000        2.57250100000000       -0.77747800000000
H           54.25663500000000        4.45250800000000       -0.76134200000000
H           57.81121700000000        5.33947200000000       -1.71054300000000
H           57.76321500000000        7.78762900000000       -1.49605700000000
H           57.17229500000000        9.85819300000000       -0.24614200000000
H           55.69453300000000        7.40694600000000        2.27739000000000
H           55.74701400000000        4.96331700000000        2.05627100000000
H           59.54305500000000        4.46451800000000        0.44902800000000
H           61.22539900000000        2.51486300000000        0.33480900000000
C           39.66712000000000       -0.01391400000000        0.00378800000000
C           40.88903799999999       -0.01391400000000        0.00378800000000
C           50.07154599999999       -0.01391400000000        0.00378800000000
C           51.29346400000000       -0.01391400000000        0.00378800000000
Ni          45.46448700000000       -0.01445800000000        0.01354600000000
C           42.02225300000000        0.02924400000000       -0.00796200000000
C           42.67850499999999        1.16427200000000        0.30145300000000
C           42.03755500000000        2.45521400000000        0.56404000000000
C           42.97776000000000        3.33038000000000        0.86641400000000
C           44.27573499999999        2.65082500000000        0.82099000000000
N           44.09586000000000        1.27943900000000        0.45599400000000
C           45.46075500000000        3.23206900000000        1.10288500000000
C           45.49533400000000        4.64961500000000        1.52569300000000
C           45.99664700000000        5.62991900000000        0.65662500000000
C           46.04089200000000        6.96807100000000        1.05601700000000
C           45.58577699999999        7.34232600000000        2.33270500000000
C           45.60992499999999        8.74776200000000        2.77418000000000
O           46.07499500000000        9.64907200000000        2.03051300000000
C           45.09358000000000        6.35838400000000        3.20069900000000
C           45.04996899999999        5.02024000000000        2.79995600000000
C           46.75691300000000        2.51657200000000        1.01246200000000
C           48.02494900000000        3.05933000000000        1.51482300000000
C           48.97686899999999        2.19791800000000        1.21988000000000
N           46.92454299999999        1.36717400000000        0.43540700000000
C           48.32252600000000        1.09518400000000        0.52756400000000
C           48.93817499999999        0.02924400000000       -0.00796200000000
C           48.18958200000000       -1.05465200000000       -0.67666400000000
C           48.72263100000000       -1.92633200000000       -1.52230000000000
C           47.69095900000000       -2.89152800000000       -1.85139700000000
C           46.59892399999999       -2.54202000000000       -1.18378500000000
N           46.82401700000000       -1.36455300000000       -0.41085500000000
C           45.34377100000000       -3.32890200000000       -1.15850500000000
C           45.40536700000000       -4.76597800000000       -1.51402700000000
C           46.17247400000000       -5.64694800000000       -0.73738100000000
C           46.24476800000000       -7.00188000000000       -1.07242800000000
C           45.55625500000000       -7.49334700000000       -2.19276600000000
C           45.64031299999999       -8.92648400000000       -2.52358700000000
O           45.02030500000000       -9.40453600000000       -3.51240300000000
C           44.79746700000000       -6.60788300000000       -2.97872800000000
C           44.72539500000000       -5.25235100000000       -2.64271400000000
C           44.17058099999999       -2.77264800000000       -0.79940800000000
C           42.89365699999999       -3.46846200000000       -0.67685600000000
C           42.00263700000000       -2.54877700000000       -0.36286100000000
C           42.70012899999999       -1.26050200000000       -0.27661300000000
N           43.96765400000000       -1.38561900000000       -0.52754800000000
H           40.98080400000000        2.68669300000000        0.52112800000000
H           42.79355000000000        4.37102600000000        1.10082000000000
H           46.35027600000000        5.35627500000000       -0.32996900000000
H           46.42841700000000        7.70882400000000        0.36741700000000
H           45.21656300000000        9.02019600000000        3.75361300000000
H           44.74250100000000        6.62515900000000        4.18848700000000
H           44.67029599999999        4.27243700000000        3.48160200000000
H           48.17452299999999        3.99679000000000        2.03418100000000
H           50.02671800000000        2.31545600000000        1.45598300000000
H           49.74303300000000       -1.94059500000000       -1.87906400000000
H           47.80527800000000       -3.75696800000000       -2.49027000000000
H           46.70900900000000       -5.28456400000000        0.13145800000000
H           46.83760299999999       -7.66774000000000       -0.45581700000000
H           46.24015800000000       -9.58869900000000       -1.91054800000000
H           44.26457800000000       -6.96145900000000       -3.85299800000000
H           44.14271300000000       -4.58070800000000       -3.26252700000000
H           42.69150700000000       -4.52439600000000       -0.80382000000000
H           40.95017500000000       -2.73836000000000       -0.19560300000000
183
 energy: -332.754281360989 gnorm: 0.414631888852 xtb: 6.5.1 (b24c23e)
Ni          34.30907331178877       -0.01925545272387       -0.00510803876786
C           30.94228416016763        0.09660082197322       -0.11705024464727
C           31.61529636875791        1.26636131013371       -0.01578939948102
C           30.95808065394992        2.56099779924414        0.07701941578047
C           31.90768502134713        3.48307800098904        0.22365886075619
C           33.20303620101485        2.79857761013828        0.22226049165275
N           33.01393333310960        1.40791086010675        0.07411833543782
C           34.40769193155989        3.41500100257113        0.39750019926783
C           34.43282582779917        4.88779641146704        0.58999289574643
C           34.68492462393408        5.42842800063855        1.85699485473119
C           34.72193935247785        6.80715412964547        2.03955202928473
C           34.50224970458883        7.67507760129126        0.95669518201806
C           34.53946584727206        9.13839275769962        1.14825959506466
O           34.76705997761405        9.64655648506306        2.24223763136566
C           34.24629008839373        7.12948418374409       -0.31035816030675
C           34.21194840277125        5.74991423193750       -0.49243367715782
C           35.68091868372460        2.70094769341574        0.41591040174445
C           36.97015953095632        3.33896611462534        0.67217900452668
C           37.91556841470021        2.40015089669210        0.57799655562388
N           35.83521620783763        1.41135505477679        0.16757175900589
C           37.23755162003646        1.16071485303915        0.25085676362626
C           37.84859918517355       -0.02785666313305       -0.00240314649412
C           37.06983924576410       -1.22435157419006       -0.34425559706116
C           37.62587804663588       -2.34589046956739       -0.87986398166092
C           36.59974756418404       -3.32159548710945       -1.01015287640690
C           35.44459412749430       -2.76480698298189       -0.54949331608063
N           35.67699625536996       -1.42846058928568       -0.13242516054494
C           34.17201792359116       -3.48901126355902       -0.47234094684426
C           34.17438380614376       -4.97575229192002       -0.55126615422138
C           33.60653989996113       -5.63852186647946       -1.65005231242253
C           33.63598387962757       -7.02848976919003       -1.72755322545932
C           34.23174350318290       -7.78651019847548       -0.70801400979534
C           34.26980940573632       -9.26012475200280       -0.79495463337022
O           34.82844046958274       -9.94834002733473        0.05334073651591
C           34.79794289292521       -7.12089323089964        0.39262129953095
C           34.77019424955354       -5.73151978835104        0.46763927354645
C           32.99086721749435       -2.84013892892567       -0.32832927958293
C           31.67676257381771       -3.45589846369993       -0.21302871058890
C           30.80087493656567       -2.45027142110054       -0.12726248617126
C           31.55560745121275       -1.20594849757687       -0.17608972901838
N           32.85077197806460       -1.42920305732967       -0.28786918009551
H           29.85900129671604        0.14064302374799       -0.13305965254468
H           29.89468489576549        2.75858809467582        0.04976833584021
H           31.71815316947048        4.54209117344122        0.33373975754253
H           34.85298264622055        4.77024875093217        2.70382917435113
H           34.92267902355213        7.20355204739907        3.02955383571070
H           34.35778731900914        9.78507612612744        0.28178034250306
H           34.07368051340312        7.78165988366763       -1.16065859725054
H           34.01578499865226        5.34450704858904       -1.48004798068309
H           37.15839231476529        4.37717832994395        0.89185690004893
H           38.97613490061551        2.56683434074034        0.70856748557573
H           38.66464838087764       -2.46747125483105       -1.13979289822897
H           36.70819294277388       -4.32545738188165       -1.39059437374820
H           33.15043867918185       -5.06874607968845       -2.45366136571866
H           33.19812136627847       -7.52193481880896       -2.59025183706317
H           33.78727510561081       -9.74668282694807       -1.65056633816634
H           35.26477187706492       -7.68407676353160        1.19495125661612
H           35.21271439626129       -5.23321573195702        1.32461565548622
H           31.42572735260568       -4.50866645295486       -0.19406903684398
H           29.73264849627003       -2.55791227800440       -0.02863212005679
Ni          56.65156308194166       -0.00735731340064       -0.00425521236021
C           60.01828078062521       -0.10614386250683       -0.13155275088415
C           59.34533262225870       -1.27834581626214       -0.19790681494544
C           60.00251366913012       -2.57302685767022       -0.29041484921423
C           59.05291215110018       -3.50655812871523       -0.27656579931387
C           57.75755485155346       -2.82875310204306       -0.18047523554762
N           57.94661060057616       -1.43129823088401       -0.12908866837953
C           56.55275448664661       -3.46390303320747       -0.09481226205393
C           56.52773105436768       -4.94917456351747       -0.11401972569325
C           56.27566723016044       -5.66468624070631        1.06308915120661
C           56.23865085003666       -7.05537580529468        1.04743436901420
C           56.45833550482047       -7.76021809548651       -0.14797705618186
C           56.42113214913640       -9.23595763216482       -0.16675263907937
O           56.19350376728448       -9.89467619928335        0.84367600901068
C           56.71429151049711       -7.03977599144411       -1.32441787153196
C           56.74863175174749       -5.64831998886107       -1.30818950783267
C           55.27973021966223       -2.75970749939755        0.02511053128540
C           53.99008647920034       -3.42764567012660        0.18792202732536
C           53.04433117845246       -2.48532580479640        0.22832517989374
N           55.12553130254287       -1.44792701145608       -0.03704030459332
C           53.72299583071332       -1.21163919915149        0.08076163625790
C           53.11303701423314        0.00115021711753       -0.00011669301695
C           53.89073794846669        1.23400553073001       -0.16812667026905
C           53.33450973577214        2.42028510429219       -0.53876746208211
C           54.36077385318970        3.40439981267104       -0.52879172892316
C           55.51600466600175        2.78768658774640       -0.15212135384657
N           55.28367661307783        1.40559864347955        0.07047730407460
C           56.78854807132311        3.49356630328324        0.02738840494536
C           56.78618834787042        4.97642901085559        0.16099398875522
C           57.35404751653972        5.78887058883888       -0.83221604318162
C           57.32458662453639        7.17573012395029       -0.71096565341449
C           56.72883769241030        7.78078957660585        0.40611705779129
C           56.69075438257403        9.25188533378438        0.52993015629081
O           56.13220910626362        9.81214082043633        1.46752923861076
C           56.16265047297831        6.96527203302088        1.40074030762326
C           56.19038494722373        5.57935112981392        1.27714215790192
C           57.96970595214579        2.83078640390988        0.07755071505882
C           59.28382136494455        3.42386057015643        0.27933990885146
C           60.15970316462795        2.41628487266549        0.22102747008948
C           59.40495659209834        1.19161786878649       -0.00450191061846
N           58.10982448326843        1.42847156431504       -0.08333915419307
H           61.10156891485120       -0.14741699564363       -0.15367743264936
H           61.06589607788003       -2.76471218683490       -0.34552255871918
H           59.24242159837190       -4.57045740405217       -0.31842730046176
H           56.10760116552549       -5.13382073689467        1.99501680008654
H           56.03790232221998       -7.58870836240462        1.97089825256626
H           56.60279812690234       -9.75263092478922       -1.11649548403161
H           56.88690499995014       -7.56420422923533       -2.25892951830439
H           56.94479620821312       -5.10641220935261       -2.22800553607390
H           53.80215198402730       -4.48663803491510        0.25747448482059
H           51.98359344479473       -2.66862917487905        0.33371124392995
H           52.29580995427073        2.57747301927563       -0.77865279382210
H           54.25238152343031        4.45221388568586       -0.76238362375341
H           57.81014426180739        5.33935179584934       -1.70877656208798
H           57.76246003470901        7.78698665568827       -1.49461039481268
H           57.17330789076922        9.85526571893523       -0.24768630278456
H           55.69580777522220        7.40845003607740        2.27509101043925
H           55.74787049670998        4.96409450080122        2.05442599652016
H           59.53485120617801        4.46319418932325        0.44802997543547
H           61.22792425529755        2.50876940944166        0.33398436700128
C           39.56364775712944       -0.01384683608288        0.00307050185942
C           40.77533532131002       -0.02256161519033        0.00213073489478
C           50.18042541922568       -0.02601384622383       -0.00046397665192
C           51.39362367226892       -0.01562589528804        0.00315495298477
Ni          45.46170452456741       -0.01428785016244        0.00930523536632
C           42.07958052889923        0.01614716829740       -0.00767178200949
C           42.71160090990021        1.17770913926075        0.30308062235879
C           42.04085424268725        2.44603533197168        0.56131043564898
C           42.98808082537738        3.33247164404833        0.86788620054121
C           44.27570315739512        2.64671601367946        0.81915320438473
N           44.09383160786334        1.29490400686777        0.46032833877291
C           45.47437914636884        3.23084023516002        1.10468002026647
C           45.49938354211678        4.65185700203183        1.52739991752021
C           45.99694378297558        5.63320531392718        0.66067649478825
C           46.03957733358148        6.96541003731409        1.05792218237177
C           45.58534740283060        7.34267658657076        2.33329124713171
C           45.61706453015044        8.75526509418695        2.76020849547265
O           46.06933962930400        9.63778646884247        2.03916006844345
C           45.09358373851663        6.35609312164857        3.19805433916632
C           45.04996563769627        5.02397974772097        2.79867939287658
C           46.74648954989873        2.53586777798641        1.01802088597237
C           48.01047105540948        3.07055113335698        1.51605909275635
C           48.97118675984824        2.19102048887694        1.21556263312504
N           46.91890348998765        1.36245973924370        0.44167335913304
C           48.29382514774470        1.10605847041249        0.53496473831199
C           48.87596219787093        0.02032688211292       -0.01421353813652
C           48.16069582808254       -1.05450194529681       -0.67088912882055
C           48.72101408564231       -1.94473197922646       -1.53181223374963
C           47.70990739540865       -2.89331801283780       -1.85473775619006
C           46.58734771970370       -2.53768542489479       -1.17179258383016
N           46.81499964731528       -1.36284670783633       -0.41967997521110
C           45.35598264875418       -3.32351525955985       -1.15701182848991
C           45.41076977040716       -4.76457431383123       -1.51680751801208
C           46.17232661452856       -5.64884474481057       -0.74065833836759
C           46.24284472712191       -6.99846801631689       -1.07329549401481
C           45.55649092766647       -7.49360028131836       -2.19257052321269
C           45.62961296708315       -8.92672299185150       -2.53808885099690
O           45.02817359619240       -9.39694128064514       -3.49971539765478
C           44.79910900211812       -6.60538704142389       -2.97521570193329
C           44.72684380678755       -5.25597527156692       -2.63988398756063
C           44.17193410095970       -2.77263578900001       -0.79891808956476
C           42.90149822520078       -3.46701243938067       -0.67827562572052
C           41.99698128540131       -2.53597652730369       -0.36100105201555
C           42.70558426387569       -1.26141747931762       -0.27528730555522
N           43.98430428241148       -1.39574330967027       -0.52306401085705
H           40.98293954813604        2.67666064116144        0.51866456459091
H           42.80133969953392        4.37116779794456        1.10165844916118
H           46.34958206858027        5.35639965811945       -0.32797098373955
H           46.42742396272637        7.70974739722730        0.36996288834535
H           45.21697509263849        9.01620760171450        3.75212711333379
H           44.74277953581888        6.62534176548046        4.18802199328386
H           44.67067079861780        4.27239608014619        3.48088511326942
H           48.16776407345137        4.00092416502370        2.03499655414298
H           50.02342793606949        2.30680011263501        1.45111329958951
H           49.74227979392675       -1.94302151632371       -1.88120668581800
H           47.80994743736564       -3.75648416040809       -2.49241383808256
H           46.70808449653784       -5.28437728571785        0.12994412828142
H           46.83650262207721       -7.66706328257543       -0.45696202400460
H           46.24057409774132       -9.58584404122921       -1.90907788611552
H           44.26619028089210       -6.96294494293276       -3.85105301763243
H           44.14429565109236       -4.58164828903931       -3.26074824435384
H           42.69870148400037       -4.52237874046857       -0.80487029063021
H           40.94819120110011       -2.73001178141317       -0.19409596176020
183
 energy: -332.883067006388 gnorm: 0.191180753169 xtb: 6.5.1 (b24c23e)
Ni          34.32194638823642       -0.01394395413696       -0.01777943574805
C           30.94561627338757        0.07871195536029       -0.11711916019486
C           31.62437476941373        1.26491254807638       -0.01505202051445
C           30.96349208996549        2.55125725191300        0.07567430969460
C           31.92281239338372        3.48011361107810        0.22334004660000
C           33.20537233500031        2.78775738037914        0.22050946011965
N           33.00064547180633        1.41801854396726        0.08049232382918
C           34.42771202073691        3.40534731812682        0.39712749479792
C           34.44034381152199        4.88572734236004        0.58935853213088
C           34.68765461742760        5.43166611716850        1.85338200477304
C           34.72079545673933        6.80518901009751        2.03513931703696
C           34.50186415166158        7.67344999904275        0.95516378987819
C           34.54320621627197        9.13740237197088        1.16480733508598
O           34.76571967303751        9.63979248887287        2.23625176707129
C           34.24576890132919        7.12536719702915       -0.30790752579443