      -----------------------------------------------------------      
     |                   =====================                   |     
     |                           x T B                           |     
     |                   =====================                   |     
     |                         S. Grimme                         |     
     |          Mulliken Center for Theoretical Chemistry        |     
     |                    University of Bonn                     |     
      -----------------------------------------------------------      

   * xtb version 6.5.1 (b24c23e) compiled by 'conda@728c89f4b128' on 2022-07-12

   xtb is free software: you can redistribute it and/or modify it under
   the terms of the GNU Lesser General Public License as published by
   the Free Software Foundation, either version 3 of the License, or
   (at your option) any later version.
   
   xtb is distributed in the hope that it will be useful,
   but WITHOUT ANY WARRANTY; without even the implied warranty of
   MERCHANTABILITY or FITNESS FOR A PARTICULAR PURPOSE.  See the
   GNU Lesser General Public License for more details.
   
   Cite this work as:
   * C. Bannwarth, E. Caldeweyher, S. Ehlert, A. Hansen, P. Pracht,
     J. Seibert, S. Spicher, S. Grimme, WIREs Comput. Mol. Sci., 2020, 11,
     e01493. DOI: 10.1002/wcms.1493
   
   for GFN2-xTB:
   * C. Bannwarth, S. Ehlert and S. Grimme., J. Chem. Theory Comput., 2019,
     15, 1652-1671. DOI: 10.1021/acs.jctc.8b01176
   for GFN1-xTB:
   * S. Grimme, C. Bannwarth, P. Shushkov, J. Chem. Theory Comput., 2017,
     13, 1989-2009. DOI: 10.1021/acs.jctc.7b00118
   for GFN0-xTB:
   * P. Pracht, E. Caldeweyher, S. Ehlert, S. Grimme, ChemRxiv, 2019, preprint.
     DOI: 10.26434/chemrxiv.8326202.v1
   for GFN-FF:
   * S. Spicher and S. Grimme, Angew. Chem. Int. Ed., 2020, 59, 15665-15673.
     DOI: 10.1002/anie.202004239
   
   for ALPB and GBSA implicit solvation:
   * S. Ehlert, M. Stahn, S. Spicher, S. Grimme, J. Chem. Theory Comput.,
     2021, 17, 4250-4261. DOI: 10.1021/acs.jctc.1c00471
   
   for DFT-D4:
   * E. Caldeweyher, C. Bannwarth and S. Grimme, J. Chem. Phys., 2017,
     147, 034112. DOI: 10.1063/1.4993215
   * E. Caldeweyher, S. Ehlert, A. Hansen, H. Neugebauer, S. Spicher,
     C. Bannwarth and S. Grimme, J. Chem. Phys., 2019, 150, 154122.
     DOI: 10.1063/1.5090222
   * E. Caldeweyher, J.-M. Mewes, S. Ehlert and S. Grimme, Phys. Chem. Chem. Phys.
     2020, 22, 8499-8512. DOI: 10.1039/D0CP00502A
   
   for sTDA-xTB:
   * S. Grimme and C. Bannwarth, J. Chem. Phys., 2016, 145, 054103.
     DOI: 10.1063/1.4959605
   
   in the mass-spec context:
   * V. Asgeirsson, C. Bauer and S. Grimme, Chem. Sci., 2017, 8, 4879.
     DOI: 10.1039/c7sc00601b
   * J. Koopman and S. Grimme, ACS Omega 2019, 4, 12, 15120-15133.
     DOI: 10.1021/acsomega.9b02011
   
   for metadynamics refer to:
   * S. Grimme, J. Chem. Theory Comput., 2019, 155, 2847-2862
     DOI: 10.1021/acs.jctc.9b00143
   
   for SPH calculations refer to:
   * S. Spicher and S. Grimme, J. Chem. Theory Comput., 2021, 17, 1701-1714
     DOI: 10.1021/acs.jctc.0c01306
   
   with help from (in alphabetical order)
   P. Atkinson, C. Bannwarth, F. Bohle, G. Brandenburg, E. Caldeweyher
   M. Checinski, S. Dohm, S. Ehlert, S. Ehrlich, I. Gerasimov, C. Hölzer
   A. Katbashev, J. Koopman, C. Lavigne, S. Lehtola, F. März, M. Müller,
   F. Musil, H. Neugebauer, J. Pisarek, C. Plett, P. Pracht, F. Pultar,
   J. Seibert, P. Shushkov, S. Spicher, M. Stahn, M. Steiner, T. Strunk,
   J. Stückrath, T. Rose, and J. Unsleber
   
 * started run on 2022/07/30 at 14:22:54.924     

           -------------------------------------------------
          |                Calculation Setup                |
           -------------------------------------------------

          program call               : xtb xtbopt.xyz --gfn 1 --vipea
          hostname                   : cx3-15-13.cx3.hpc.ic.ac.uk
          coordinate file            : xtbopt.xyz
          omp threads                :                     1

   ID    Z sym.   atoms
    1   29 Cu     1, 59, 123, 180
    2    6 C      2-6, 8-13, 15-19, 21-26, 28-33, 35-40, 60-64, 66-71, 73-77,
                  79-84, 86-91, 93-98, 117-122, 124-128, 130-135, 137-141,
                  143-148, 150-155, 157-162, 181-185, 187-192, 194-198,
                  200-205, 207-212, 214-219
    3    7 N      7, 14, 20, 27, 34, 41, 65, 72, 78, 85, 92, 99, 129, 136,
                  142, 149, 156, 163, 186, 193, 199, 206, 213, 220
    4    1 H      42-58, 100-116, 164-179, 221-236

           -------------------------------------------------
          |                 I P E A - x T B                 |
           -------------------------------------------------

        Reference                      10.1039/c7sc00601b
      * Hamiltonian:
        H0-scaling (s, p, d)           2.150000    2.300000    2.000000
        zeta-weighting                 0.000000
      * Dispersion:
        s8                             2.400000
        a1                             0.630000
        a2                             5.000000
        s9                             0.000000
      * Repulsion:
        kExp                           1.500000
        rExp                           1.000000
      * Coulomb:
        alpha                          1.000000
        third order                    atomic
        anisotropic                    false
      * Halogen bond correction:
        rad-scale                      1.300000
        damping                        0.440000


          ...................................................
          :                      SETUP                      :
          :.................................................:
          :  # basis functions                1002          :
          :  # atomic orbitals                 998          :
          :  # shells                          642          :
          :  # electrons                       798          :
          :  # halogen bonds                     0          :
          :  max. iterations                   250          :
          :  Hamiltonian                  GFN1-xTB          :
          :  restarted?                      false          :
          :  GBSA solvation                  false          :
          :  PC potential                    false          :
          :  electronic temp.          300.0000000     K    :
          :  accuracy                    1.0000000          :
          :  -> integral cutoff          0.2500000E+02      :
          :  -> integral neglect         0.1000000E-07      :
          :  -> SCF convergence          0.1000000E-05 Eh   :
          :  -> wf. convergence          0.2000000E-04 e    :
          :  Broyden damping             0.4000000          :
          ...................................................

 iter      E             dE          RMSdq      gap      omega  full diag
   1   -496.8956777 -0.496896E+03  0.105E+01    0.02       0.0  T
   2   -496.3897893  0.505888E+00  0.659E+00    0.06       1.0  T
   3   -479.5312052  0.168586E+02  0.643E+00    0.05       1.0  T
   4   -493.1153423 -0.135841E+02  0.198E+00    0.39       1.0  T
   5   -494.5820943 -0.146675E+01  0.137E+00    0.29       1.0  T
   6   -498.3199400 -0.373785E+01  0.940E-01    0.34       1.0  T
   7   -498.4481577 -0.128218E+00  0.691E-01    0.14       1.0  T
   8   -498.5381833 -0.900256E-01  0.616E-01    0.06       1.0  T
   9   -498.5910738 -0.528905E-01  0.683E-01    0.03       1.0  T
  10   -498.6323651 -0.412913E-01  0.516E-01    0.03       1.0  T
  11   -498.6428906 -0.105255E-01  0.623E-01    0.04       1.0  T
  12   -498.6538743 -0.109837E-01  0.605E-01    0.03       1.0  T
  13   -498.6324216  0.214527E-01  0.614E-01    0.05       1.0  T
  14   -498.7379131 -0.105491E+00  0.353E-01    0.02       1.0  T
  15   -498.6214020  0.116511E+00  0.594E-01    0.06       1.0  T
  16   -498.6546673 -0.332652E-01  0.529E-01    0.06       1.0  T
  17   -498.7812963 -0.126629E+00  0.233E-01    0.01       1.0  T
  18   -498.7878724 -0.657604E-02  0.186E-01    0.01       1.0  T
  19   -498.7978442 -0.997183E-02  0.135E-01    0.02       1.0  T
  20   -498.8049722 -0.712803E-02  0.582E-02    0.01       1.0  T
  21   -498.8044607  0.511483E-03  0.616E-02    0.01       1.0  T
  22   -498.8059136 -0.145286E-02  0.418E-02    0.01       1.0  T
  23   -498.8068421 -0.928498E-03  0.852E-03    0.00       1.0  T
  24   -498.8068600 -0.179425E-04  0.422E-03    0.00       1.5  T
  25   -498.8068280  0.320081E-04  0.791E-03    0.00       1.0  T
  26   -498.8068602 -0.322070E-04  0.386E-03    0.00       1.7  T
  27   -498.8068686 -0.831601E-05  0.924E-04    0.00       7.0  T
  28   -498.8068690 -0.470966E-06  0.414E-04    0.00      15.7  T
  29   -498.8068691 -0.907481E-07  0.107E-04    0.00      60.6  T
  30   -498.8068691  0.221375E-07  0.197E-04    0.00      33.0  T

   *** convergence criteria satisfied after 30 iterations ***

         #    Occupation            Energy/Eh            Energy/eV
      -------------------------------------------------------------
         1        2.0000           -1.0277074             -27.9653
       ...           ...                  ...                  ...
       393        2.0000           -0.3963111             -10.7842
       394        2.0000           -0.3961437             -10.7796
       395        2.0000           -0.3961345             -10.7794
       396        2.0000           -0.3857256             -10.4961
       397        2.0000           -0.3754205             -10.2157
       398        1.4135           -0.3309138              -9.0046
       399        0.7881           -0.3296694              -8.9708 (HOMO)
       400        0.7183           -0.3295281              -8.9669 (LUMO)
       401        0.5906           -0.3292518              -8.9594
       402        0.4893           -0.3290071              -8.9527
       403        0.0002           -0.3214678              -8.7476
       404        0.0000           -0.3168701              -8.6225
       ...           ...                  ...                  ...
       998                        552.2057890           15026.2844
      -------------------------------------------------------------
                  HL-Gap            0.0001412 Eh            0.0038 eV
             Fermi-level           -0.3300782 Eh           -8.9819 eV

 SCC (total)                   0 d,  0 h,  0 min, 12.525 sec
 SCC setup                      ...        0 min,  0.007 sec (  0.056%)
 Dispersion                     ...        0 min,  0.010 sec (  0.079%)
 classical contributions        ...        0 min,  0.003 sec (  0.027%)
 integral evaluation            ...        0 min,  0.699 sec (  5.579%)
 iterations                     ...        0 min, 10.224 sec ( 81.628%)
 molecular gradient             ...        0 min,  1.512 sec ( 12.072%)
 printout                       ...        0 min,  0.070 sec (  0.559%)

         :::::::::::::::::::::::::::::::::::::::::::::::::::::
         ::                     SUMMARY                     ::
         :::::::::::::::::::::::::::::::::::::::::::::::::::::
         :: total energy            -488.972197180169 Eh    ::
         :: gradient norm              0.109678876822 Eh/a0 ::
         :: HOMO-LUMO gap              0.003843176816 eV    ::
         ::.................................................::
         :: SCC energy              -498.806869091575 Eh    ::
         :: -> electrostatic           0.362172054541 Eh    ::
         :: repulsion energy          10.063137539348 Eh    ::
         :: dispersion energy         -0.228465627942 Eh    ::
         :: halogen bond corr.         0.000000000000 Eh    ::
         :: add. restraining           0.000000000000 Eh    ::
         :: total charge              -0.000000000017 e     ::
         :::::::::::::::::::::::::::::::::::::::::::::::::::::

           ------------------------------------------------- 
          |        vertical delta SCC IP calculation        |
           ------------------------------------------------- 
   1   -498.4446189 -0.498445E+03  0.142E-01    0.00       0.0  T
   2   -498.3749724  0.696464E-01  0.404E-01    0.05       1.0  T
   3   -498.2963899  0.785825E-01  0.503E-01    0.10       1.0  T
   4   -498.3485402 -0.521503E-01  0.420E-01    0.05       1.0  T
   5   -498.3675735 -0.190333E-01  0.380E-01    0.05       1.0  T
   6   -498.4240470 -0.564735E-01  0.226E-01    0.01       1.0  T
   7   -498.4129334  0.111136E-01  0.249E-01    0.03       1.0  T
   8   -498.4429475 -0.300142E-01  0.114E-01    0.01       1.0  T
   9   -498.4476130 -0.466543E-02  0.735E-02    0.01       1.0  T
  10   -498.4477928 -0.179822E-03  0.698E-02    0.01       1.0  T
  11   -498.4508597 -0.306688E-02  0.222E-02    0.00       1.0  T
  12   -498.4505110  0.348705E-03  0.293E-02    0.00       1.0  T
  13   -498.4510549 -0.543923E-03  0.106E-02    0.00       1.0  T
  14   -498.4511073 -0.524216E-04  0.487E-03    0.00       1.3  T
  15   -498.4511192 -0.118784E-04  0.150E-03    0.00       4.3  T
  16   -498.4511204 -0.123121E-05  0.796E-04    0.00       8.2  T
  17   -498.4511204 -0.811161E-08  0.768E-04    0.00       8.5  T
  18   -498.4511207 -0.301808E-06  0.222E-04    0.00      29.3  T
  19   -498.4511207 -0.156377E-07  0.137E-04    0.00      47.4  T
  20   -498.4511208 -0.903390E-08  0.388E-05    0.00     167.7  T
     SCC iter.                  ...        0 min,  6.823 sec
     gradient                   ...        0 min,  1.505 sec
------------------------------------------------------------------------
empirical IP shift (eV):    4.8455
delta SCC IP (eV):    4.8349
------------------------------------------------------------------------
           ------------------------------------------------- 
          |        vertical delta SCC EA calculation        |
           ------------------------------------------------- 
   1   -499.0841248 -0.499084E+03  0.299E-01    0.01       0.0  T
   2   -498.9312720  0.152853E+00  0.557E-01    0.07       1.0  T
   3   -498.8099088  0.121363E+00  0.698E-01    0.20       1.0  T
   4   -498.8722292 -0.623204E-01  0.685E-01    0.13       1.0  T
   5   -499.0097205 -0.137491E+00  0.461E-01    0.05       1.0  T
   6   -499.0341394 -0.244189E-01  0.347E-01    0.01       1.0  T
   7   -498.8959458  0.138194E+00  0.534E-01    0.08       1.0  T
   8   -498.9432860 -0.473402E-01  0.448E-01    0.06       1.0  T
   9   -499.0839254 -0.140639E+00  0.220E-01    0.01       1.0  T
  10   -499.0550817  0.288436E-01  0.270E-01    0.01       1.0  T
  11   -499.1086464 -0.535647E-01  0.625E-02    0.01       1.0  T
  12   -499.1075615  0.108486E-02  0.823E-02    0.01       1.0  T
  13   -499.1110762 -0.351464E-02  0.214E-02    0.01       1.0  T
  14   -499.1102843  0.791882E-03  0.423E-02    0.00       1.0  T
  15   -499.1111895 -0.905178E-03  0.152E-02    0.00       1.0  T
  16   -499.1113557 -0.166274E-03  0.281E-03    0.01       2.3  T
  17   -499.1113596 -0.388322E-05  0.146E-03    0.01       4.5  T
  18   -499.1113598 -0.184015E-06  0.144E-03    0.01       4.5  T
  19   -499.1113609 -0.109224E-05  0.219E-04    0.01      29.7  T
  20   -499.1113609  0.197116E-07  0.288E-04    0.01      22.6  T
  21   -499.1113609 -0.464173E-07  0.634E-05    0.01     102.7  T
  22   -499.1113609 -0.169007E-08  0.335E-05    0.01     194.6  T
     SCC iter.                  ...        0 min,  7.501 sec
     gradient                   ...        0 min,  1.509 sec
------------------------------------------------------------------------
empirical EA shift (eV):    4.8455
delta SCC EA (eV):    3.4401
------------------------------------------------------------------------
           -------------------------------------------------
          |                Property Printout                |
           -------------------------------------------------

    * Orbital Energies and Occupations

         #    Occupation            Energy/Eh            Energy/eV
      -------------------------------------------------------------
         1        2.0000           -0.9790728             -26.6419
       ...           ...                  ...                  ...
       388        2.0000           -0.3776910             -10.2775
       389        2.0000           -0.3758927             -10.2286
       390        2.0000           -0.3548555              -9.6561
       391        2.0000           -0.3530248              -9.6063
       392        2.0000           -0.3521163              -9.5816
       393        2.0000           -0.3481729              -9.4743
       394        2.0000           -0.3467833              -9.4365
       395        2.0000           -0.3465477              -9.4300
       396        2.0000           -0.3371857              -9.1753
       397        2.0000           -0.3262750              -8.8784
       398        1.7626           -0.2813279              -7.6553
       399        0.9456           -0.2792300              -7.5982
       400        0.8461           -0.2790274              -7.5927 (HOMO)
       401        0.7526           -0.2788317              -7.5874 (LUMO)
       402        0.6906           -0.2786970              -7.5837
       403        0.0020           -0.2726864              -7.4202
       404        0.0003           -0.2707110              -7.3664
       405        0.0001           -0.2702087              -7.3528
       406        0.0000           -0.2656427              -7.2285
       407        0.0000           -0.2653548              -7.2207
       408                         -0.2614285              -7.1138
       409                         -0.2496262              -6.7927
       410                         -0.2375337              -6.4636
       411                         -0.2356390              -6.4121
       ...                                ...                  ...
       998                        552.2545669           15027.6117
      -------------------------------------------------------------
                  HL-Gap            0.0001957 Eh            0.0053 eV
             Fermi-level           -0.2793396 Eh           -7.6012 eV

  Mulliken/CM5 charges         n(s)   n(p)   n(d)
     1Cu    0.31470  0.67033   0.540  0.900  9.245
     2C    -0.02756 -0.06881   1.082  2.945  0.000
     3C     0.05891  0.12035   1.117  2.824  0.000
     4C    -0.03906 -0.08522   1.087  2.952  0.000
     5C    -0.03597 -0.08175   1.081  2.955  0.000
     6C     0.05733  0.12247   1.108  2.835  0.000
     7N    -0.21205 -0.46256   1.327  3.885  0.000
     8C     0.00833  0.01360   1.088  2.903  0.000
     9C     0.01568  0.00692   1.091  2.893  0.000
    10C    -0.01716 -0.07047   1.076  2.941  0.000
    11C    -0.01233 -0.06441   1.091  2.921  0.000
    12C     0.01531  0.01156   1.076  2.909  0.000
    13C     0.11202  0.22958   1.210  2.678  0.000
    14N    -0.26877 -0.39339   1.544  3.725  0.000
    15C    -0.01162 -0.06370   1.092  2.920  0.000
    16C    -0.01629 -0.06953   1.077  2.940  0.000
    17C     0.05599  0.12026   1.105  2.839  0.000
    18C    -0.03670 -0.08250   1.075  2.961  0.000
    19C    -0.03549 -0.08118   1.079  2.956  0.000
    20N    -0.20857 -0.45845   1.329  3.879  0.000
    21C     0.06233  0.12827   1.121  2.817  0.000
    22C     0.01326  0.02002   1.082  2.905  0.000
    23C     0.06229  0.12821   1.121  2.817  0.000
    24C    -0.03551 -0.08120   1.079  2.956  0.000
    25C    -0.03671 -0.08254   1.075  2.961  0.000
    26C     0.05601  0.12027   1.105  2.839  0.000
    27N    -0.20855 -0.45844   1.329  3.879  0.000
    28C     0.00832  0.01359   1.088  2.903  0.000
    29C     0.01564  0.00689   1.091  2.893  0.000
    30C    -0.01715 -0.07048   1.076  2.941  0.000
    31C    -0.01234 -0.06442   1.091  2.921  0.000
    32C     0.01530  0.01156   1.076  2.909  0.000
    33C     0.11201  0.22955   1.210  2.678  0.000
    34N    -0.26880 -0.39340   1.544  3.725  0.000
    35C    -0.01164 -0.06372   1.092  2.920  0.000
    36C    -0.01628 -0.06953   1.077  2.940  0.000
    37C     0.05736  0.12248   1.108  2.835  0.000
    38C    -0.03595 -0.08176   1.081  2.955  0.000
    39C    -0.03905 -0.08522   1.087  2.952  0.000
    40C     0.05890  0.12034   1.117  2.824  0.000
    41N    -0.21206 -0.46256   1.327  3.885  0.000
    42H     0.02432  0.08324   0.976  0.000  0.000
    43H     0.03086  0.08741   0.969  0.000  0.000
    44H     0.02353  0.08233   0.976  0.000  0.000
    45H     0.02920  0.08714   0.971  0.000  0.000
    46H     0.04022  0.09749   0.960  0.000  0.000
    47H     0.04172  0.09898   0.958  0.000  0.000
    48H     0.03051  0.08848   0.969  0.000  0.000
    49H     0.02420  0.08302   0.976  0.000  0.000
    50H     0.02267  0.08124   0.977  0.000  0.000
    51H     0.02265  0.08123   0.977  0.000  0.000
    52H     0.02417  0.08301   0.976  0.000  0.000
    53H     0.02917  0.08712   0.971  0.000  0.000
    54H     0.04021  0.09747   0.960  0.000  0.000
    55H     0.04172  0.09898   0.958  0.000  0.000
    56H     0.03046  0.08845   0.970  0.000  0.000
    57H     0.02352  0.08233   0.976  0.000  0.000
    58H     0.03088  0.08743   0.969  0.000  0.000
    59Cu    0.30563  0.66046   0.537  0.896  9.261
    60C    -0.02632 -0.06759   1.083  2.943  0.000
    61C     0.05908  0.12050   1.117  2.824  0.000
    62C    -0.03861 -0.08478   1.087  2.951  0.000
    63C    -0.03586 -0.08163   1.081  2.955  0.000
    64C     0.05806  0.12319   1.108  2.834  0.000
    65N    -0.21234 -0.46274   1.327  3.886  0.000
    66C     0.00863  0.01391   1.088  2.903  0.000
    67C     0.01571  0.00695   1.091  2.893  0.000
    68C    -0.01715 -0.07045   1.076  2.941  0.000
    69C    -0.01232 -0.06440   1.092  2.921  0.000
    70C     0.01529  0.01155   1.076  2.909  0.000
    71C     0.11202  0.22958   1.210  2.678  0.000
    72N    -0.26878 -0.39340   1.544  3.725  0.000
    73C    -0.01157 -0.06365   1.091  2.920  0.000
    74C    -0.01633 -0.06963   1.076  2.940  0.000
    75C     0.05699  0.12136   1.106  2.837  0.000
    76C    -0.03625 -0.08203   1.077  2.959  0.000
    77C    -0.03486 -0.08034   1.081  2.954  0.000
    78N    -0.20907 -0.45870   1.329  3.880  0.000
    79C     0.06293  0.12892   1.121  2.816  0.000
    80C     0.01483  0.02158   1.082  2.903  0.000
    81C     0.06295  0.12895   1.121  2.816  0.000
    82C    -0.03486 -0.08034   1.081  2.954  0.000
    83C    -0.03625 -0.08202   1.077  2.959  0.000
    84C     0.05696  0.12133   1.106  2.837  0.000
    85N    -0.20905 -0.45872   1.329  3.880  0.000
    86C     0.00863  0.01392   1.088  2.903  0.000
    87C     0.01575  0.00698   1.091  2.893  0.000
    88C    -0.01717 -0.07045   1.076  2.941  0.000
    89C    -0.01230 -0.06438   1.092  2.921  0.000
    90C     0.01530  0.01155   1.076  2.909  0.000
    91C     0.11203  0.22957   1.210  2.678  0.000
    92N    -0.26878 -0.39338   1.544  3.725  0.000
    93C    -0.01155 -0.06363   1.092  2.920  0.000
    94C    -0.01632 -0.06960   1.076  2.940  0.000
    95C     0.05805  0.12318   1.108  2.834  0.000
    96C    -0.03587 -0.08162   1.081  2.955  0.000
    97C    -0.03861 -0.08478   1.087  2.951  0.000
    98C     0.05909  0.12052   1.117  2.824  0.000
    99N    -0.21236 -0.46274   1.327  3.886  0.000
   100H     0.02472  0.08365   0.975  0.000  0.000
   101H     0.03118  0.08773   0.969  0.000  0.000
   102H     0.02382  0.08262   0.976  0.000  0.000
   103H     0.02930  0.08724   0.971  0.000  0.000
   104H     0.04029  0.09755   0.960  0.000  0.000
   105H     0.04192  0.09917   0.958  0.000  0.000
   106H     0.03079  0.08871   0.969  0.000  0.000
   107H     0.02422  0.08310   0.976  0.000  0.000
   108H     0.02328  0.08163   0.977  0.000  0.000
   109H     0.02328  0.08162   0.977  0.000  0.000
   110H     0.02423  0.08309   0.976  0.000  0.000
   111H     0.02933  0.08723   0.971  0.000  0.000
   112H     0.04029  0.09755   0.960  0.000  0.000
   113H     0.04192  0.09918   0.958  0.000  0.000
   114H     0.03086  0.08876   0.969  0.000  0.000
   115H     0.02384  0.08263   0.976  0.000  0.000
   116H     0.03118  0.08772   0.969  0.000  0.000
   117C    -0.03442 -0.03661   1.066  2.968  0.000
   118C    -0.03020 -0.03235   1.071  2.959  0.000
   119C    -0.03271 -0.03490   1.068  2.964  0.000
   120C    -0.03297 -0.03518   1.068  2.965  0.000
   121C    -0.02841 -0.03072   1.072  2.957  0.000
   122C    -0.03317 -0.03550   1.066  2.967  0.000
   123Cu    0.34533  0.69907   0.546  0.911  9.197
   124C     0.00556  0.01240   1.074  2.920  0.000
   125C     0.06196  0.12799   1.121  2.817  0.000
   126C    -0.03854 -0.08424   1.077  2.962  0.000
   127C    -0.03663 -0.08247   1.077  2.960  0.000
   128C     0.05245  0.11673   1.102  2.846  0.000
   129N    -0.20755 -0.45727   1.329  3.879  0.000
   130C     0.01026  0.01547   1.091  2.899  0.000
   131C     0.01604  0.00731   1.091  2.893  0.000
   132C    -0.01634 -0.06959   1.077  2.940  0.000
   133C    -0.01194 -0.06403   1.091  2.921  0.000
   134C     0.01550  0.01175   1.076  2.908  0.000
   135C     0.11213  0.22970   1.210  2.678  0.000
   136N    -0.26893 -0.39355   1.544  3.725  0.000
   137C    -0.01173 -0.06381   1.091  2.920  0.000
   138C    -0.01610 -0.06938   1.076  2.940  0.000
   139C     0.05260  0.11688   1.102  2.846  0.000
   140C    -0.03665 -0.08249   1.077  2.960  0.000
   141C    -0.03773 -0.08333   1.078  2.960  0.000
   142N    -0.20700 -0.45669   1.329  3.878  0.000
   143C     0.06211  0.12825   1.121  2.817  0.000
   144C     0.00738  0.01422   1.076  2.917  0.000
   145C     0.06210  0.12823   1.121  2.817  0.000
   146C    -0.03773 -0.08334   1.078  2.960  0.000
   147C    -0.03664 -0.08249   1.077  2.960  0.000
   148C     0.05263  0.11690   1.102  2.846  0.000
   149N    -0.20701 -0.45669   1.329  3.878  0.000
   150C     0.01025  0.01547   1.091  2.899  0.000
   151C     0.01602  0.00729   1.091  2.893  0.000
   152C    -0.01632 -0.06958   1.077  2.940  0.000
   153C    -0.01198 -0.06406   1.091  2.921  0.000
   154C     0.01549  0.01175   1.076  2.908  0.000
   155C     0.11213  0.22969   1.210  2.678  0.000
   156N    -0.26894 -0.39357   1.544  3.725  0.000
   157C    -0.01172 -0.06380   1.091  2.920  0.000
   158C    -0.01611 -0.06939   1.076  2.940  0.000
   159C     0.05246  0.11673   1.102  2.846  0.000
   160C    -0.03664 -0.08249   1.077  2.960  0.000
   161C    -0.03854 -0.08424   1.077  2.962  0.000
   162C     0.06195  0.12799   1.121  2.817  0.000
   163N    -0.20754 -0.45724   1.329  3.879  0.000
   164H     0.02027  0.07876   0.980  0.000  0.000
   165H     0.02267  0.08147   0.977  0.000  0.000
   166H     0.02951  0.08754   0.970  0.000  0.000
   167H     0.04061  0.09788   0.959  0.000  0.000
   168H     0.04115  0.09842   0.959  0.000  0.000
   169H     0.03008  0.08812   0.970  0.000  0.000
   170H     0.02269  0.08148   0.977  0.000  0.000
   171H     0.02105  0.07943   0.979  0.000  0.000
   172H     0.02102  0.07942   0.979  0.000  0.000
   173H     0.02269  0.08150   0.977  0.000  0.000
   174H     0.02950  0.08755   0.971  0.000  0.000
   175H     0.04061  0.09788   0.959  0.000  0.000
   176H     0.04115  0.09842   0.959  0.000  0.000
   177H     0.03004  0.08809   0.970  0.000  0.000
   178H     0.02264  0.08143   0.977  0.000  0.000
   179H     0.02025  0.07875   0.980  0.000  0.000
   180Cu    0.33594  0.68698   0.545  0.908  9.211
   181C     0.00842  0.01522   1.077  2.915  0.000
   182C     0.06216  0.12832   1.121  2.817  0.000
   183C    -0.03752 -0.08311   1.078  2.959  0.000
   184C    -0.03676 -0.08257   1.077  2.960  0.000
   185C     0.05318  0.11749   1.102  2.845  0.000
   186N    -0.20740 -0.45651   1.329  3.879  0.000
   187C     0.01018  0.01539   1.090  2.900  0.000
   188C     0.01615  0.00737   1.092  2.892  0.000
   189C    -0.01622 -0.06947   1.077  2.940  0.000
   190C    -0.01177 -0.06384   1.092  2.920  0.000
   191C     0.01535  0.01161   1.076  2.908  0.000
   192C     0.11206  0.22961   1.210  2.678  0.000
   193N    -0.26917 -0.39377   1.544  3.725  0.000
   194C    -0.01194 -0.06402   1.091  2.921  0.000
   195C    -0.01639 -0.06970   1.076  2.940  0.000
   196C     0.05323  0.11765   1.102  2.845  0.000
   197C    -0.03645 -0.08226   1.078  2.958  0.000
   198C    -0.03828 -0.08376   1.079  2.960  0.000
   199N    -0.20826 -0.45735   1.328  3.880  0.000
   200C     0.06234  0.12848   1.121  2.816  0.000
   201C     0.00628  0.01308   1.074  2.920  0.000
   202C     0.06235  0.12849   1.121  2.816  0.000
   203C    -0.03828 -0.08376   1.079  2.960  0.000
   204C    -0.03645 -0.08225   1.078  2.958  0.000
   205C     0.05324  0.11766   1.102  2.845  0.000
   206N    -0.20830 -0.45733   1.328  3.880  0.000
   207C     0.01019  0.01539   1.090  2.900  0.000
   208C     0.01614  0.00737   1.092  2.892  0.000
   209C    -0.01620 -0.06946   1.077  2.940  0.000
   210C    -0.01177 -0.06384   1.092  2.920  0.000
   211C     0.01536  0.01161   1.076  2.908  0.000
   212C     0.11207  0.22962   1.210  2.678  0.000
   213N    -0.26915 -0.39376   1.544  3.725  0.000
   214C    -0.01194 -0.06402   1.091  2.921  0.000
   215C    -0.01640 -0.06971   1.076  2.940  0.000
   216C     0.05317  0.11748   1.102  2.845  0.000
   217C    -0.03676 -0.08257   1.077  2.960  0.000
   218C    -0.03752 -0.08312   1.078  2.959  0.000
   219C     0.06215  0.12831   1.121  2.817  0.000
   220N    -0.20736 -0.45653   1.329  3.879  0.000
   221H     0.02109  0.07954   0.979  0.000  0.000
   222H     0.02280  0.08163   0.977  0.000  0.000
   223H     0.02998  0.08796   0.970  0.000  0.000
   224H     0.04098  0.09824   0.959  0.000  0.000
   225H     0.04069  0.09795   0.959  0.000  0.000
   226H     0.02978  0.08774   0.970  0.000  0.000
   227H     0.02240  0.08126   0.978  0.000  0.000
   228H     0.02044  0.07874   0.980  0.000  0.000
   229H     0.02045  0.07875   0.980  0.000  0.000
   230H     0.02240  0.08125   0.978  0.000  0.000
   231H     0.02998  0.08797   0.970  0.000  0.000
   232H     0.04100  0.09826   0.959  0.000  0.000
   233H     0.04068  0.09794   0.959  0.000  0.000
   234H     0.02977  0.08773   0.970  0.000  0.000
   235H     0.02279  0.08163   0.977  0.000  0.000
   236H     0.02107  0.07953   0.979  0.000  0.000

Wiberg/Mayer (AO) data.
largest (>0.10) Wiberg bond orders for each atom

 ---------------------------------------------------------------------------
     #   Z sym  total        # sym  WBO       # sym  WBO       # sym  WBO
 ---------------------------------------------------------------------------
     1  29 Cu   2.713 --    41 N    0.616     7 N    0.616    27 N    0.613
                            20 N    0.613
     2   6 C    3.793 --    40 C    1.384     3 C    1.384    42 H    0.997
     3   6 C    3.946 --     2 C    1.384     7 N    1.271     4 C    1.198
     4   6 C    3.836 --     5 C    1.642     3 C    1.198    43 H    0.993
     5   6 C    3.825 --     4 C    1.642     6 C    1.205    44 H    0.999
     6   6 C    3.915 --     8 C    1.367     7 N    1.261     5 C    1.205
     7   7 N    2.957 --     3 C    1.271     6 C    1.261     1 Cu   0.616
     8   6 C    3.829 --     6 C    1.367    17 C    1.355     9 C    1.054
     9   6 C    3.869 --    10 C    1.416    16 C    1.416     8 C    1.054
    10   6 C    3.863 --    11 C    1.463     9 C    1.416    45 H    0.987
    11   6 C    3.905 --    10 C    1.463    12 C    1.383    46 H    0.986
    12   6 C    3.904 --    11 C    1.383    15 C    1.382    13 C    1.125
    13   6 C    4.102 --    14 N    2.961    12 C    1.125
    14   7 N    2.986 --    13 C    2.961
    15   6 C    3.905 --    16 C    1.464    12 C    1.382    47 H    0.985
    16   6 C    3.864 --    15 C    1.464     9 C    1.416    48 H    0.987
    17   6 C    3.900 --     8 C    1.355    20 N    1.255    18 C    1.222
    18   6 C    3.806 --    19 C    1.613    17 C    1.222    49 H    0.998
    19   6 C    3.807 --    18 C    1.613    21 C    1.233    50 H    0.998
    20   7 N    2.972 --    21 C    1.299    17 C    1.255     1 Cu   0.613
    21   6 C    3.916 --    20 N    1.299    22 C    1.282    19 C    1.233
    22   6 C    3.810 --    21 C    1.282    23 C    1.282   117 C    1.233
    23   6 C    3.916 --    27 N    1.299    22 C    1.282    24 C    1.234
    24   6 C    3.807 --    25 C    1.613    23 C    1.234    51 H    0.998
    25   6 C    3.805 --    24 C    1.613    26 C    1.222    52 H    0.998
    26   6 C    3.900 --    28 C    1.354    27 N    1.255    25 C    1.222
    27   7 N    2.972 --    23 C    1.299    26 C    1.255     1 Cu   0.613
    28   6 C    3.829 --    37 C    1.367    26 C    1.354    29 C    1.055
    29   6 C    3.869 --    30 C    1.415    36 C    1.415    28 C    1.055
    30   6 C    3.863 --    31 C    1.463    29 C    1.415    53 H    0.987
    31   6 C    3.905 --    30 C    1.463    32 C    1.382    54 H    0.986
    32   6 C    3.904 --    31 C    1.382    35 C    1.382    33 C    1.125
    33   6 C    4.102 --    34 N    2.961    32 C    1.125
    34   7 N    2.986 --    33 C    2.961
    35   6 C    3.905 --    36 C    1.464    32 C    1.382    55 H    0.985
    36   6 C    3.864 --    35 C    1.464    29 C    1.415    56 H    0.987
    37   6 C    3.915 --    28 C    1.367    41 N    1.261    38 C    1.205
    38   6 C    3.825 --    39 C    1.642    37 C    1.205    57 H    0.999
    39   6 C    3.836 --    38 C    1.642    40 C    1.198    58 H    0.993
    40   6 C    3.946 --     2 C    1.384    41 N    1.271    39 C    1.198
    41   7 N    2.957 --    40 C    1.271    37 C    1.261     1 Cu   0.616
    42   1 H    1.034 --     2 C    0.997
    43   1 H    1.023 --     4 C    0.993
    44   1 H    1.037 --     5 C    0.999
    45   1 H    1.052 --    10 C    0.987
    46   1 H    1.038 --    11 C    0.986
    47   1 H    1.037 --    15 C    0.985
    48   1 H    1.052 --    16 C    0.987
    49   1 H    1.036 --    18 C    0.998
    50   1 H    1.038 --    19 C    0.998
    51   1 H    1.038 --    24 C    0.998
    52   1 H    1.036 --    25 C    0.998
    53   1 H    1.053 --    30 C    0.987
    54   1 H    1.038 --    31 C    0.986
    55   1 H    1.037 --    35 C    0.985
    56   1 H    1.052 --    36 C    0.987
    57   1 H    1.037 --    38 C    0.999
    58   1 H    1.023 --    39 C    0.993
    59  29 Cu   2.680 --    65 N    0.610    99 N    0.610    85 N    0.607
                            78 N    0.607
    60   6 C    3.796 --    61 C    1.385    98 C    1.385   100 H    0.997
    61   6 C    3.946 --    60 C    1.385    65 N    1.272    62 C    1.197
    62   6 C    3.837 --    63 C    1.643    61 C    1.197   101 H    0.993
    63   6 C    3.825 --    62 C    1.643    64 C    1.204   102 H    0.999
    64   6 C    3.915 --    66 C    1.366    65 N    1.264    63 C    1.204
    65   7 N    2.955 --    61 C    1.272    64 C    1.264    59 Cu   0.610
    66   6 C    3.830 --    64 C    1.366    75 C    1.357    67 C    1.053
    67   6 C    3.869 --    74 C    1.416    68 C    1.416    66 C    1.053
    68   6 C    3.864 --    69 C    1.463    67 C    1.416   103 H    0.987
    69   6 C    3.906 --    68 C    1.463    70 C    1.382   104 H    0.986
    70   6 C    3.904 --    69 C    1.382    73 C    1.382    71 C    1.125
    71   6 C    4.102 --    72 N    2.961    70 C    1.125
    72   7 N    2.986 --    71 C    2.961
    73   6 C    3.905 --    74 C    1.463    70 C    1.382   105 H    0.985
    74   6 C    3.864 --    73 C    1.463    67 C    1.416   106 H    0.987
    75   6 C    3.900 --    66 C    1.357    78 N    1.258    76 C    1.218
    76   6 C    3.810 --    77 C    1.618    75 C    1.218   107 H    0.998
    77   6 C    3.812 --    76 C    1.618    79 C    1.228   108 H    0.999
    78   7 N    2.970 --    79 C    1.299    75 C    1.258    59 Cu   0.607
    79   6 C    3.921 --    78 N    1.299    80 C    1.290    77 C    1.228
    80   6 C    3.814 --    79 C    1.290    81 C    1.290   122 C    1.219
    81   6 C    3.921 --    85 N    1.299    80 C    1.290    82 C    1.228
    82   6 C    3.812 --    83 C    1.618    81 C    1.228   109 H    0.999
    83   6 C    3.810 --    82 C    1.618    84 C    1.218   110 H    0.998
    84   6 C    3.900 --    86 C    1.358    85 N    1.258    83 C    1.218
    85   7 N    2.970 --    81 C    1.299    84 C    1.258    59 Cu   0.607
    86   6 C    3.830 --    95 C    1.366    84 C    1.358    87 C    1.052
    87   6 C    3.870 --    94 C    1.417    88 C    1.416    86 C    1.052
    88   6 C    3.864 --    89 C    1.463    87 C    1.416   111 H    0.987
    89   6 C    3.906 --    88 C    1.463    90 C    1.383   112 H    0.986
    90   6 C    3.905 --    89 C    1.383    93 C    1.382    91 C    1.125
    91   6 C    4.102 --    92 N    2.961    90 C    1.125
    92   7 N    2.986 --    91 C    2.961
    93   6 C    3.905 --    94 C    1.463    90 C    1.382   113 H    0.985
    94   6 C    3.864 --    93 C    1.463    87 C    1.417   114 H    0.987
    95   6 C    3.915 --    86 C    1.366    99 N    1.264    96 C    1.204
    96   6 C    3.825 --    97 C    1.643    95 C    1.204   115 H    0.999
    97   6 C    3.837 --    96 C    1.643    98 C    1.197   116 H    0.993
    98   6 C    3.946 --    60 C    1.385    99 N    1.272    97 C    1.197
    99   7 N    2.955 --    98 C    1.272    95 C    1.264    59 Cu   0.610
   100   1 H    1.034 --    60 C    0.997
   101   1 H    1.023 --    62 C    0.993
   102   1 H    1.037 --    63 C    0.999
   103   1 H    1.052 --    68 C    0.987
   104   1 H    1.038 --    69 C    0.986
   105   1 H    1.037 --    73 C    0.985
   106   1 H    1.052 --    74 C    0.987
   107   1 H    1.036 --    76 C    0.998
   108   1 H    1.040 --    77 C    0.999
   109   1 H    1.040 --    82 C    0.999
   110   1 H    1.036 --    83 C    0.998
   111   1 H    1.052 --    88 C    0.987
   112   1 H    1.038 --    89 C    0.986
   113   1 H    1.037 --    93 C    0.985
   114   1 H    1.052 --    94 C    0.987
   115   1 H    1.037 --    96 C    0.999
   116   1 H    1.022 --    97 C    0.993
   117   6 C    3.760 --   118 C    2.591    22 C    1.233
   118   6 C    3.761 --   117 C    2.591   124 C    1.235
   119   6 C    3.760 --   120 C    2.583   144 C    1.240
   120   6 C    3.760 --   119 C    2.583   181 C    1.240
   121   6 C    3.760 --   122 C    2.604   201 C    1.220
   122   6 C    3.758 --   121 C    2.604    80 C    1.219
   123  29 Cu   2.800 --   129 N    0.635   163 N    0.634   149 N    0.634
                           142 N    0.634
   124   6 C    3.793 --   125 C    1.277   162 C    1.276   118 C    1.235
   125   6 C    3.916 --   129 N    1.299   124 C    1.277   126 C    1.236
   126   6 C    3.801 --   127 C    1.609   125 C    1.236   164 H    0.998
   127   6 C    3.808 --   126 C    1.609   128 C    1.225   165 H    0.999
   128   6 C    3.901 --   130 C    1.362   129 N    1.242   127 C    1.225
   129   7 N    2.970 --   125 C    1.299   128 C    1.242   123 Cu   0.635
   130   6 C    3.826 --   128 C    1.362   139 C    1.360   131 C    1.058
   131   6 C    3.869 --   138 C    1.415   132 C    1.415   130 C    1.058
   132   6 C    3.863 --   133 C    1.464   131 C    1.415   166 H    0.987
   133   6 C    3.905 --   132 C    1.464   134 C    1.382   167 H    0.985
   134   6 C    3.904 --   137 C    1.382   133 C    1.382   135 C    1.125
   135   6 C    4.102 --   136 N    2.961   134 C    1.125
   136   7 N    2.985 --   135 C    2.961
   137   6 C    3.905 --   138 C    1.464   134 C    1.382   168 H    0.985
   138   6 C    3.862 --   137 C    1.464   131 C    1.415   169 H    0.987
   139   6 C    3.900 --   130 C    1.360   142 N    1.243   140 C    1.226
   140   6 C    3.809 --   141 C    1.607   139 C    1.226   170 H    0.999
   141   6 C    3.804 --   140 C    1.607   143 C    1.237   171 H    0.999
   142   7 N    2.973 --   143 C    1.300   139 C    1.243   123 Cu   0.634
   143   6 C    3.919 --   142 N    1.300   144 C    1.275   141 C    1.237
   144   6 C    3.795 --   145 C    1.275   143 C    1.275   119 C    1.240
   145   6 C    3.919 --   149 N    1.300   144 C    1.275   146 C    1.237
   146   6 C    3.804 --   147 C    1.607   145 C    1.237   172 H    0.999
   147   6 C    3.809 --   146 C    1.607   148 C    1.226   173 H    0.999
   148   6 C    3.900 --   150 C    1.359   149 N    1.243   147 C    1.226
   149   7 N    2.973 --   145 C    1.300   148 C    1.243   123 Cu   0.634
   150   6 C    3.826 --   159 C    1.361   148 C    1.359   151 C    1.059
   151   6 C    3.869 --   158 C    1.415   152 C    1.414   150 C    1.059
   152   6 C    3.862 --   153 C    1.464   151 C    1.414   174 H    0.987
   153   6 C    3.905 --   152 C    1.464   154 C    1.382   175 H    0.985
   154   6 C    3.903 --   157 C    1.382   153 C    1.382   155 C    1.125
   155   6 C    4.102 --   156 N    2.961   154 C    1.125
   156   7 N    2.985 --   155 C    2.961
   157   6 C    3.905 --   158 C    1.464   154 C    1.382   176 H    0.985
   158   6 C    3.862 --   157 C    1.464   151 C    1.415   177 H    0.987
   159   6 C    3.901 --   150 C    1.361   163 N    1.242   160 C    1.225
   160   6 C    3.808 --   161 C    1.609   159 C    1.225   178 H    0.999
   161   6 C    3.801 --   160 C    1.609   162 C    1.236   179 H    0.998
   162   6 C    3.916 --   163 N    1.299   124 C    1.276   161 C    1.236
   163   7 N    2.971 --   162 C    1.299   159 C    1.242   123 Cu   0.634
   164   1 H    1.038 --   126 C    0.998
   165   1 H    1.037 --   127 C    0.999
   166   1 H    1.052 --   132 C    0.987
   167   1 H    1.038 --   133 C    0.985
   168   1 H    1.037 --   137 C    0.985
   169   1 H    1.052 --   138 C    0.987
   170   1 H    1.037 --   140 C    0.999
   171   1 H    1.040 --   141 C    0.999
   172   1 H    1.040 --   146 C    0.999
   173   1 H    1.038 --   147 C    0.999
   174   1 H    1.052 --   152 C    0.987
   175   1 H    1.037 --   153 C    0.985
   176   1 H    1.037 --   157 C    0.985
   177   1 H    1.052 --   158 C    0.987
   178   1 H    1.038 --   160 C    0.999
   179   1 H    1.038 --   161 C    0.998
   180  29 Cu   2.766 --   199 N    0.628   220 N    0.628   206 N    0.628
                           186 N    0.628
   181   6 C    3.798 --   182 C    1.276   219 C    1.276   120 C    1.240
   182   6 C    3.919 --   186 N    1.301   181 C    1.276   183 C    1.236
   183   6 C    3.805 --   184 C    1.609   182 C    1.236   221 H    0.999
   184   6 C    3.808 --   183 C    1.609   185 C    1.225   222 H    0.999
   185   6 C    3.899 --   187 C    1.359   186 N    1.246   184 C    1.225
   186   7 N    2.970 --   182 C    1.301   185 C    1.246   180 Cu   0.628
   187   6 C    3.826 --   196 C    1.364   185 C    1.359   188 C    1.056
   188   6 C    3.869 --   195 C    1.416   189 C    1.416   187 C    1.056
   189   6 C    3.863 --   190 C    1.464   188 C    1.416   223 H    0.987
   190   6 C    3.905 --   189 C    1.464   191 C    1.382   224 H    0.985
   191   6 C    3.904 --   194 C    1.382   190 C    1.382   192 C    1.125
   192   6 C    4.102 --   193 N    2.961   191 C    1.125
   193   7 N    2.986 --   192 C    2.961
   194   6 C    3.905 --   195 C    1.463   191 C    1.382   225 H    0.985
   195   6 C    3.863 --   194 C    1.463   188 C    1.416   226 H    0.987
   196   6 C    3.900 --   187 C    1.364   199 N    1.245   197 C    1.222
   197   6 C    3.812 --   198 C    1.614   196 C    1.222   227 H    0.999
   198   6 C    3.805 --   197 C    1.614   200 C    1.231   228 H    0.999
   199   7 N    2.968 --   200 C    1.299   196 C    1.245   180 Cu   0.628
   200   6 C    3.921 --   199 N    1.299   201 C    1.284   198 C    1.231
   201   6 C    3.795 --   202 C    1.285   200 C    1.284   121 C    1.220
   202   6 C    3.921 --   206 N    1.299   201 C    1.285   203 C    1.231
   203   6 C    3.805 --   204 C    1.614   202 C    1.231   229 H    0.999
   204   6 C    3.812 --   203 C    1.614   205 C    1.221   230 H    0.999
   205   6 C    3.900 --   207 C    1.365   206 N    1.245   204 C    1.221
   206   7 N    2.968 --   202 C    1.299   205 C    1.245   180 Cu   0.628
   207   6 C    3.826 --   205 C    1.365   216 C    1.359   208 C    1.056
   208   6 C    3.869 --   215 C    1.416   209 C    1.415   207 C    1.056
   209   6 C    3.863 --   210 C    1.464   208 C    1.415   231 H    0.987
   210   6 C    3.905 --   209 C    1.464   211 C    1.382   232 H    0.985
   211   6 C    3.904 --   214 C    1.382   210 C    1.382   212 C    1.125
   212   6 C    4.102 --   213 N    2.961   211 C    1.125
   213   7 N    2.986 --   212 C    2.961
   214   6 C    3.905 --   215 C    1.463   211 C    1.382   233 H    0.985
   215   6 C    3.863 --   214 C    1.463   208 C    1.416   234 H    0.987
   216   6 C    3.899 --   207 C    1.359   220 N    1.246   217 C    1.225
   217   6 C    3.808 --   218 C    1.609   216 C    1.225   235 H    0.999
   218   6 C    3.805 --   217 C    1.609   219 C    1.236   236 H    0.999
   219   6 C    3.919 --   220 N    1.301   181 C    1.276   218 C    1.236
   220   7 N    2.971 --   219 C    1.301   216 C    1.246   180 Cu   0.628
   221   1 H    1.039 --   183 C    0.999
   222   1 H    1.037 --   184 C    0.999
   223   1 H    1.052 --   189 C    0.987
   224   1 H    1.037 --   190 C    0.985
   225   1 H    1.038 --   194 C    0.985
   226   1 H    1.052 --   195 C    0.987
   227   1 H    1.038 --   197 C    0.999
   228   1 H    1.040 --   198 C    0.999
   229   1 H    1.040 --   203 C    0.999
   230   1 H    1.038 --   204 C    0.999
   231   1 H    1.052 --   209 C    0.987
   232   1 H    1.037 --   210 C    0.985
   233   1 H    1.038 --   214 C    0.985
   234   1 H    1.052 --   215 C    0.987
   235   1 H    1.037 --   217 C    0.999
   236   1 H    1.039 --   218 C    0.999
 ---------------------------------------------------------------------------

Topologies differ in total number of bonds
Writing topology from bond orders to xtbtopo.mol

 dipole moment from electron density (au)
     X       Y       Z   
-133.6757  -0.0531   0.0247  total (Debye):  339.770


           -------------------------------------------------
          | TOTAL ENERGY             -489.276689015240 Eh   |
          | GRADIENT NORM               0.119289593264 Eh/α |
          | HOMO-LUMO GAP               0.005324965098 eV   |
           -------------------------------------------------
########################################################################
[WARNING] Runtime exception occurred
-1- restart_readRestart: Dimension missmatch in restart file.
########################################################################

------------------------------------------------------------------------
 * finished run on 2022/07/30 at 14:23:27.035     
------------------------------------------------------------------------
 total:
 * wall-time:     0 d,  0 h,  0 min, 32.111 sec
 *  cpu-time:     0 d,  0 h,  0 min, 31.938 sec
 * ratio c/w:     0.995 speedup
 SCF:
 * wall-time:     0 d,  0 h,  0 min, 31.436 sec
 *  cpu-time:     0 d,  0 h,  0 min, 31.271 sec
 * ratio c/w:     0.995 speedup

