126
 energy: -227.867449815561 gnorm: 0.433620512973 xtb: 6.5.1 (b24c23e)
Co          14.41082000000000       -0.00895200000000       -0.00102800000000
C           11.04906700000000        0.12615400000000       -0.12005200000000
C           11.71512700000000        1.27984700000000       -0.01961900000000
C           11.06530100000000        2.58144600000000        0.07431200000000
C           12.00540500000000        3.49566500000000        0.21953500000000
C           13.31074100000000        2.82059800000000        0.22049600000000
N           13.13336900000000        1.41203200000000        0.06566200000000
C           14.50015500000000        3.43293500000000        0.39354900000000
C           14.53648600000000        4.89987700000000        0.58608700000000
C           14.79134800000000        5.43759200000000        1.85573500000000
C           14.83009200000000        6.82278500000000        2.03888100000000
C           14.60974700000000        7.68827400000000        0.95323800000000
C           14.64307200000000        9.15179900000000        1.12709900000000
O           14.87742100000000        9.66810100000000        2.25235000000000
C           14.35366100000000        7.14636900000000       -0.31596200000000
C           14.31964500000000        5.76112800000000       -0.49949500000000
C           15.79589700000000        2.70201800000000        0.41023500000000
C           17.09068000000000        3.34385800000000        0.66893700000000
C           18.02483400000000        2.42055600000000        0.57610100000000
N           15.93459300000000        1.43560900000000        0.15908600000000
C           17.33653100000000        1.17850000000000        0.24737700000000
C           17.93264300000000       -0.00019600000000        0.00005400000000
C           17.17775600000000       -1.22365000000000       -0.35839000000000
C           17.73137699999999       -2.31209200000000       -0.87838700000000
C           16.68741000000000       -3.30704100000000       -1.01210800000000
C           15.56270600000000       -2.76337200000000       -0.56313000000000
N           15.78122600000000       -1.41892000000000       -0.12896600000000
C           14.26600500000000       -3.48355700000000       -0.47685600000000
C           14.27549300000000       -4.96358400000000       -0.55235600000000
C           13.71316200000000       -5.62278400000000       -1.65682100000000
C           13.74265900000000       -7.01804800000000       -1.73391800000000
C           14.33952700000000       -7.77264700000000       -0.71161000000000
C           14.36725200000000       -9.24322800000000       -0.81297100000000
O           14.94329500000000       -9.94459100000000        0.05956800000000
C           14.90722700000000       -7.11012600000000        0.39135800000000
C           14.87784300000000       -5.71475500000000        0.46740900000000
C           13.09776300000000       -2.83020500000000       -0.33317800000000
C           11.77606100000000       -3.44386200000000       -0.21601000000000
C           10.91561400000000       -2.44826800000000       -0.13055100000000
C           11.67853000000000       -1.20226500000000       -0.18050000000000
N           12.95199200000000       -1.41203500000000       -0.29865600000000
H            9.96579600000000        0.15896900000000       -0.13689100000000
H           10.00146200000000        2.77921300000000        0.04703900000000
H           11.81688900000000        4.55560700000000        0.32981500000000
H           14.96078600000000        4.78291900000000        2.70197400000000
H           15.03070900000000        7.21537500000000        3.02785800000000
H           14.46558200000000        9.80169200000000        0.27984700000000
H           14.18073800000000        7.79570500000000       -1.16560300000000
H           14.12262100000000        5.35829400000000       -1.48570200000000
H           17.27323100000000        4.38722300000000        0.88795500000000
H           19.08579600000000        2.58795200000000        0.70608900000000
H           18.77149000000000       -2.44899300000000       -1.14157300000000
H           16.81137000000000       -4.31213800000000       -1.39332800000000
H           13.25678800000000       -5.05488800000000       -2.45916500000000
H           13.30479100000000       -7.50863900000000       -2.59550000000000
H           13.89571000000000       -9.73609700000000       -1.65318600000000
H           15.37347300000000       -7.66920100000000        1.19370100000000
H           15.32099100000000       -5.21898800000000        1.32282500000000
H           11.52495000000000       -4.49639000000000       -0.19700400000000
H            9.84260600000000       -2.55034000000000       -0.03241500000000
Co          30.72679700000000        0.00862500000000        0.00023000000000
C           34.08855000000000       -0.10815500000000       -0.13682100000000
C           33.42249000000000       -1.26439100000000       -0.20170600000000
C           34.07231599999999       -2.56610100000000       -0.29408900000000
C           33.13221200000000       -3.49168300000000       -0.28053700000000
C           31.82687600000000       -2.82363400000000       -0.18345200000000
N           32.00424800000000       -1.40737400000000       -0.13611800000000
C           30.63746200000000       -3.45437400000000       -0.09936400000000
C           30.60113100000000       -4.93378400000000       -0.11769100000000
C           30.34626900000000       -5.64682500000000        1.06244300000000
C           30.30752500000000       -7.04398200000000        1.04646100000000
C           30.52786900000000       -7.74604600000000       -0.15136900000000
C           30.49454400000000       -9.21941400000000       -0.18769600000000
O           30.26019600000000       -9.89069800000000        0.85256200000000
C           30.78395600000000       -7.02892100000000       -1.33046200000000
C           30.81797200000000       -5.63166200000000       -1.31485700000000
C           29.34172000000000       -2.73328200000000        0.02124000000000
C           28.04693700000000       -3.40542100000000        0.18590300000000
C           27.11278200000000       -2.47830900000000        0.22549800000000
N           29.20302400000000       -1.44401500000000       -0.04700300000000
C           27.80108600000000       -1.20209900000000        0.07700200000000
C           27.20497400000000       -0.00019600000000        0.00005400000000
C           27.95986100000000        1.26183400000000       -0.18050900000000
C           27.40624000000000        2.41323400000000       -0.54020400000000
C           28.45020600000000        3.41708500000000       -0.53087400000000
C           29.57491100000000        2.81501900000000       -0.16389400000000
N           29.35639100000000        1.42244200000000        0.07438500000000
C           30.87161200000000        3.51557800000000        0.02406000000000
C           30.86212400000000        4.99127300000000        0.16009500000000
C           31.42445500000000        5.80103800000000       -0.83923900000000
C           31.39495700000000        7.19306100000000       -0.71685400000000
C           30.79809000000000        7.79438500000000        0.40249500000000
C           30.77036500000000        9.26441300000000        0.51158800000000
O           30.19432100000000        9.83437300000000        1.47511300000000
C           30.23039000000000        6.98154600000000        1.39987400000000
C           30.25977400000000        5.58956700000000        1.27643900000000
C           32.03985400000000        2.84842500000000        0.07323200000000
C           33.36155600000000        3.43914200000000        0.27659500000000
C           34.22200200000000        2.44152500000000        0.21940300000000
C           33.45908700000000        1.21533400000000       -0.00747700000000
N           32.18562500000000        1.43979200000000       -0.09455600000000
H           35.17182000000000       -0.13823700000000       -0.15816100000000
H           35.13615500000000       -2.75796800000000       -0.34924700000000
H           33.32072800000000       -4.55652800000000       -0.32232400000000
H           30.17683100000000       -5.11933500000000        1.99328800000000
H           30.10690800000000       -7.57340800000000        1.96945100000000
H           30.67203400000000       -9.74202900000000       -1.11886200000000
H           30.95687900000000       -7.55064500000000       -2.26391400000000
H           31.01499600000000       -5.09249100000000       -2.23364600000000
H           27.86438600000000       -4.46934200000000        0.25410700000000
H           26.05182000000000       -2.66251000000000        0.33032300000000
H           26.36612700000000        2.58621900000000       -0.78121200000000
H           28.32624600000000        4.46622700000000       -0.76507600000000
H           31.88082899999999        5.35319000000000       -1.71427700000000
H           31.83282600000000        7.80134700000000       -1.49979100000000
H           31.24190600000000        9.87191100000000       -0.24987600000000
H           29.76414400000000        7.42066500000000        2.27365500000000
H           29.81662600000000        4.97703500000000        2.05253700000000
H           33.61266600000000        4.47823600000000        0.44529400000000
H           35.29501000000000        2.52858100000000        0.33107400000000
C           23.17272900000000        0.00111600000000        0.00848600000000
C           21.96378899999999       -0.01233900000000        0.00003900000000
C           20.54226000000000       -0.00352000000000       -0.01194400000000
C           19.33059099999999        0.00391900000000       -0.00108100000000
C           24.58933300000000       -0.00555900000000        0.00901900000000
C           25.81002900000000        0.00391900000000       -0.00108100000000
126
 energy: -227.954284997597 gnorm: 0.231623860907 xtb: 6.5.1 (b24c23e)
Co          14.41795211264903        0.00246981074562       -0.01410944816667
C           11.05016228865013        0.10407531653032       -0.12031723371410
C           11.72547265807378        1.27318284849159       -0.01804589887284
C           11.07191774741967        2.56777064729932        0.07232685641837
C           12.02517483467922        3.49189831040570        0.21934261083314
C           13.31686567916133        2.80740293709077        0.21848995509495
N           13.12190424258523        1.41934845220523        0.06981594418581
C           14.51966781429642        3.42868681734481        0.39356503539974
C           14.54610916052302        4.90206791044364        0.58571222897651
C           14.79561911104995        5.44448495872681        1.85086794926827
C           14.82901800418459        6.82086470559474        2.03378825790921
C           14.60962895248008        7.68716160858939        0.95313199612488
C           14.64803012212798        9.14708025146125        1.14835010432778
O           14.87360341590260        9.65407308071427        2.23577669482069
C           14.35332088335853        7.14169091298396       -0.31221846194475
C           14.31942705650362        5.76408334312230       -0.49360886549575
C           15.78122885665254        2.71955229436942        0.41548916932301
C           17.06606141277362        3.35996027393259        0.66793232246775
C           18.01006546723122        2.41248910599372        0.57267772248610
N           15.93154589436968        1.42764773683516        0.17409554709151
C           17.32117412461052        1.17919403119893        0.24909748147262
C           17.92234921175450       -0.01619968180402       -0.01223676890817
C           17.16122245346681       -1.21567680213905       -0.34936927991678
C           17.73278265196639       -2.33780719043975       -0.88029729020943
C           16.71069278113635       -3.31044593002716       -1.00943100363143
C           15.55197982714092       -2.74691504548641       -0.54932188011468
N           15.77247142028327       -1.40543336198848       -0.15572507661387
C           14.28627372234124       -3.46805911777291       -0.47329764578647
C           14.29300850013533       -4.95647912465446       -0.55893789277486
C           13.71654075490498       -5.62219920591424       -1.65077096998335
C           13.74378584257398       -7.01093877958761       -1.72809738560383
C           14.33916874641510       -7.76975993320714       -0.71112573103858
C           14.38085514489230       -9.24104485994388       -0.79533618309929
O           14.93355714971322       -9.92752894223280        0.04899267292608
C           14.90388936099863       -7.10462357131415        0.38687950954568
C           14.88099921226007       -5.71690879697790        0.45959863314378
C           13.10399894341984       -2.81924671667887       -0.32877880694929
C           11.78953122264393       -3.43365843624211       -0.21723954012910
C           10.90568585808414       -2.42860824393550       -0.13227716483578
C           11.66201033795218       -1.18856334672644       -0.17720844937770
N           12.96014612797720       -1.41065885453593       -0.27909271107348
H            9.96707298498838        0.14414363653812       -0.13741077909665
H           10.00689519240058        2.75812454933898        0.04375489303485
H           11.84525510961649        4.55305366164556        0.32978178571905
H           14.96046777749783        4.78638655683525        2.69731530726674
H           15.02872103401524        7.22062650592098        3.02216832590294
H           14.46523865292943        9.79072948441989        0.27823077719840
H           14.18157667780123        7.79423954574248       -1.16202208876331
H           14.12428321613513        5.35802422695703       -1.48042500155814
H           17.24969046826379        4.39931467775970        0.88787031109805
H           19.07419018417691        2.56529322223731        0.70106037073099
H           18.77124587175262       -2.46178343425859       -1.14478799344803
H           16.82371520391444       -4.31205310372023       -1.39437761479020
H           13.25990227678088       -5.05374930874705       -2.45392027359324
H           13.30669291938064       -7.50548358363733       -2.59035456423359
H           13.89486954502146       -9.72448602528152       -1.65266571475038
H           15.36947343493127       -7.67144797188041        1.18679362409177
H           15.31994801932033       -5.22024044111601        1.31800631833106
H           11.55016934423215       -4.48906603465243       -0.19986037875587
H            9.83605629026555       -2.53138631528753       -0.03353317702035
Co          30.71957301625874       -0.00085885981748       -0.01433662613564
C           34.08744965442384       -0.08626721894943       -0.13393942647582
C           33.41213149015551       -1.25801701405510       -0.19919926451037
C           34.06567540455158       -2.55228225353687       -0.29410478817718
C           33.11239801251280       -3.48791612447046       -0.28018670152437
C           31.82069468699455       -2.81025159559227       -0.18355495030581
N           32.01568603420576       -1.41517800880643       -0.13306029952374
C           30.61781815126038       -3.45004710957812       -0.09874274188288
C           30.59145486237902       -4.93583070354973       -0.11837566411829
C           30.34198927478108       -5.65292763455687        1.05663842210192
C           30.30860287120259       -7.04133745511791        1.04168985496906
C           30.52798755816726       -7.74491875236159       -0.15131496312250
C           30.48958614122443       -9.21776334127239       -0.16598980477224
O           30.26401467768425       -9.87444733714867        0.83815396369033
C           30.78429657707430       -7.02480316542262       -1.32608333152574
C           30.81817956037283       -5.63539501636524       -1.30944128150740
C           29.35614187939276       -2.75120221615638        0.02390103656468
C           28.07145834149861       -3.42118876700366        0.18258133766099
C           27.12725255200467       -2.46992490424726        0.22327639758470
N           29.20538963995067       -1.43800584942405       -0.03106446251695
C           27.81553481864781       -1.20300986185476        0.07879365160504
C           27.21373760455581        0.01766883943116       -0.00857425565402
C           27.97632521728134        1.25260090176597       -0.17255215208500
C           27.40490933707212        2.43888692705140       -0.53845839223457
C           28.42697609813446        3.42005213441017       -0.52774463137400
C           29.58566493305353        2.79674575485286       -0.15257705335352
N           29.36512238374927        1.41286769333923        0.04595686395055
C           30.85135487792299        3.49973106911205        0.02537791306919
C           30.84461322810568        4.98517670188483        0.15257036185449
C           31.42107720473155        5.79959732003303       -0.83333349670174
C           31.39382977497051        7.18519513175173       -0.71210557770545
C           30.79844809843541        7.79145826058124        0.40256302058597
C           30.75676136518824        9.25974094423652        0.52873188989061
O           30.20405935541374        9.81898996439923        1.46221548332298
C           30.23372756318608        6.97673687086108        1.39465728197627
C           30.25661803229292        5.59280983572033        1.26901496213019
C           32.03362356446823        2.83694846820645        0.07602622896514
C           33.34808648533421        3.42921612645329        0.27392578569837
C           34.23192928729718        2.42230843591790        0.21489464379220
C           33.47559740269576        1.20130448065703       -0.00616826469769
N           32.17746060029492        1.43563207792586       -0.07538149275674
H           35.17053960423689       -0.12349268804355       -0.15656603696590
H           35.13070207765085       -2.73663168936464       -0.34949285728897
H           33.29233339882141       -4.55398547419650       -0.32199096128357
H           30.17714435794217       -5.12209560715224        1.98818577334748
H           30.10889869188183       -7.57778381214382        1.96306676982763
H           30.67237718667955       -9.73094415016949       -1.11890039091081
H           30.95604111089764       -7.54968952608413       -2.26015399408730
H           31.01333002224570       -5.09296492253082       -2.22838328682397
H           27.88796309968027       -4.48129367222861        0.25228978582528
H           26.06321191154997       -2.63952041466137        0.32861963925074
H           26.36641776217796        2.59930316948658       -0.78254172777672
H           28.31392097204082        4.46627445938146       -0.76612286529332
H           31.87771515833382        5.35131579605417       -1.70924854200894
H           31.83092378199976        7.79749086762705       -1.49514767708289
H           31.24274660811578        9.86034454266439       -0.25101447818540
H           29.76814339136735        7.42387199983103        2.26713796446799
H           29.81766929724828        4.97896023521315        2.04794525943610
H           33.58744766445636        4.47139263530583        0.44142349643798
H           35.30155927200039        2.50997673673976        0.32726740049839
C           23.18378450105967        0.00154216005971        0.00829822752851
C           21.95507315271117       -0.01373990013370       -0.00220149911894
C           20.56485649905067       -0.01239728991720       -0.01246080828975
C           19.33880997246687       -0.02455604026128        0.00070180046801
C           24.57213865212473        0.00367803182063        0.00453725595546
C           25.79838792156527        0.03219954211481        0.00528314438215
126
 energy: -227.999271242390 gnorm: 0.083016506674 xtb: 6.5.1 (b24c23e)
Co          14.43357871570682        0.00859788229215       -0.01666847018054
C           11.05777297894796        0.08198581169234       -0.11830034387909
C           11.74233668963168        1.27096121720163       -0.01779134961094
C           11.08342588060069        2.55256638277425        0.07032878886425
C           12.04806639142280        3.48393875029791        0.21767817876788
C           13.32011244773021        2.78925251781517        0.21533512887695
N           13.11027974258466        1.42946867767702        0.07033687341751
C           14.54226943789358        3.41756603127719        0.39502861190500
C           14.55253692310137        4.89879449717118        0.58567195209908
C           14.79924044555745        5.44691045160617        1.84698566245346
C           14.82848755844922        6.81713417696711        2.02791622558508
C           14.60922551909373        7.68369190963556        0.95046133558307
C           14.65233279206537        9.14530207631758        1.17138256712271
O           14.87295895420381        9.64702490809201        2.23289681951813
C           14.35307026148259        7.13530403576674       -0.31012468780384
C           14.32045644222164        5.76289622479000       -0.48907565594018
C           15.76349659253605        2.73420161678737        0.42032234849184
C           17.03811333771723        3.36499856493535        0.66322317370118
C           17.98638941111201        2.39809910756223        0.56757742564094
N           15.93014093192946        1.40776753856041        0.18638307781991
C           17.29954739895065        1.17564150444761        0.25664914528310
C           17.91545527797206       -0.04026971206379       -0.02370531199559
C           17.14747073443929       -1.20339043320250       -0.34589080251631
C           17.73109164675406       -2.36993158898784       -0.87696430131164
C           16.74193654863015       -3.30929437039581       -0.99732143694295
C           15.54194995143121       -2.72449999075273       -0.54032945581258
N           15.77610216138989       -1.39562316952781       -0.18973449053794
C           14.31791803449991       -3.44277807514878       -0.47176854895517
C           14.31359783463850       -4.94092978788259       -0.56708281044567
C           13.72332377951729       -5.61478770773903       -1.64642198241593
C           13.74500979350303       -6.99896857533954       -1.72320015216155
C           14.33854482418168       -7.76214105839735       -0.71274648147530
C           14.39053171578515       -9.24041718362093       -0.77413498072980
O           14.93193349771767       -9.91777633583076        0.04791800047420
C           14.90240012168909       -7.09461467351737        0.38088822647535
C           14.88753795313347       -5.71234943792953        0.45096432330471
C           13.11245506869884       -2.79694003320002       -0.31581939096113
C           11.81052166242680       -3.41393029581371       -0.21798220505231
C           10.90613997759364       -2.40674051200522       -0.13706279423993
C           11.64759642510243       -1.17097257999684       -0.17128406431329
N           12.97674698470981       -1.40725714987249       -0.25538785358861
H            9.97388353376226        0.13358123468494       -0.13491610010888
H           10.01727369021899        2.73173770699890        0.04042092881489
H           11.88091642415341        4.54611896080951        0.32895449834485
H           14.96232285965843        4.78657940995887        2.69290018286600
H           15.02566227444884        7.22758283015182        3.01424349681260
H           14.46372120065853        9.77155667582786        0.26862538024057
H           14.18132778599553        7.79235797151627       -1.15829626659998
H           14.12566675966973        5.35444240436083       -1.47564595246997
H           17.22197500850675        4.40299742529863        0.88439264282368
H           19.05336225603723        2.53551022519778        0.69324955302827
H           18.77013071518788       -2.47358302730073       -1.14265951452522
H           16.83401469634095       -4.30990144825595       -1.38770384967472
H           13.26348472535107       -5.04768146917960       -2.44924056942796
H           13.30633871368406       -7.49902441938199       -2.58344996292148
H           13.89207034408984       -9.70181782929610       -1.65831422781481
H           15.36272168746824       -7.67245568243791        1.17834466497762
H           15.32279930424826       -5.21674797199860        1.31262781235063
H           11.58493365553944       -4.47284200618122       -0.20440886060466
H            9.83771445158938       -2.51047222237883       -0.03840097597085
Co          30.70401426699101       -0.00642946418711       -0.01775069435920
C           34.07983496131199       -0.06469216222736       -0.12880180477088
C           33.39523967098059       -1.25584546567617       -0.19863482997652
C           34.05413187583874       -2.53695043005938       -0.29391912904824
C           33.08947979607275       -3.47980244345176       -0.28069689306771
C           31.81741903494920       -2.79184086607691       -0.18409178187805
N           32.02727068021462       -1.42524692050057       -0.13397373794945
C           30.59520337849603       -3.43922723202133       -0.09572782800022
C           30.58497191929658       -4.93256262944561       -0.11795818120169
C           30.33835280245880       -5.65476005427637        1.05244371477346
C           30.30913793035561       -7.03679284234091        1.03640616633393
C           30.52839152092122       -7.74109136034520       -0.15346566380040
C           30.48528255295510       -9.21927396351924       -0.14294234208160
O           30.26466040200359       -9.86705036899201        0.83630332962831
C           30.78455035708774       -7.01875917555734       -1.32309793549495
C           30.81712427757331       -5.63484584048498       -1.30478460932345
C           29.37390860365709       -2.76635092623089        0.02659698941124
C           28.09938868758945       -3.42541336073458        0.17721413627118
C           27.15096358931638       -2.45482489426874        0.22032369335471
N           29.20706508318927       -1.42009404848300       -0.01614075137647
C           27.83749590027720       -1.20052756578489        0.08651944913266
C           27.22156846939088        0.04290774272028       -0.01664168286559
C           27.99047703673151        1.23990608976755       -0.17078121838788
C           27.40669890304545        2.47012223740840       -0.53041311237306
C           28.39576357228408        3.41718789081690       -0.51596432033015
C           29.59576401552100        2.77335864978308       -0.14688035515303
N           29.36171933211354        1.40811535268967        0.01110209764015
C           30.81975517000094        3.47453707198920        0.02326757109675
C           30.82403728463996        4.97097166474599        0.14229070482355
C           31.41430015183597        5.79165751209921       -0.83009109961051
C           31.39260747472856        7.17266080129618       -0.70896802772395
C           30.79907202685472        7.78415319394659        0.39987117298468
C           30.74708464820399        9.25610497126434        0.54962584725305
O           30.20568265334856        9.80949168864161        1.45976112908356
C           30.23521657176863        6.96768951326777        1.38729994416990
C           30.25008326406426        5.58953436730807        1.25981754126980
C           32.02521072987386        2.81306160641432        0.08567292748021
C           33.32713218264237        3.40981474673913        0.27038525158121
C           34.23151031741619        2.40135980321918        0.20704323759205
C           33.49004736017026        1.18307331378408       -0.00281954777355
N           32.16092066258738        1.42894475883507       -0.05243870713121
H           35.16372505455742       -0.11340782376515       -0.15259567867485
H           35.12029002282735       -2.71004060393885       -0.34904041104523
H           33.25666207518906       -4.54700070128301       -0.32182421929680
H           30.17528055060705       -5.12165151150962        1.98378912482043
H           30.11196668976626       -7.58352523089044        1.95422986721269
H           30.67389449984078       -9.71059120447161       -1.12568019718891
H           30.95629660981770       -7.54833565280444       -2.25619489374352
H           31.01193460387287       -5.09009054484373       -2.22314704922602
H           27.91560011975705       -4.48435628521395        0.24829860599969
H           26.08401578937873       -2.60884865564414        0.32511619761638
H           26.36762080624181        2.61049662664252       -0.77869634993660
H           28.30358549619455        4.46317719389669       -0.75988661443419
H           31.87413503820340        5.34465148170136       -1.70548630875737
H           31.83127750630146        7.79012372428084       -1.48923907015527
H           31.24554521517404        9.83871514156289       -0.25983615707762
H           29.77489396024802        7.42607575486838        2.25891732644591
H           29.81482215779526        4.97627121496611        2.04211837742251
H           33.55270829937339        4.45599975019284        0.43461338842954
H           35.29993069379376        2.48997507854866        0.31947324112910
C           23.18886189811355        0.00494357165614        0.00703051811820
C           21.94732073959952       -0.01469223279784        0.00172372856739
C           20.58473391176075       -0.02632379324448       -0.01631010426402
C           19.34909994085519       -0.05304240302034       -0.01253320447986
C           24.55290152768719        0.01890835771344        0.00286628119031
C           25.78767174092359        0.05788680448877       -0.00261822352910
126
 energy: -228.012315618956 gnorm: 0.043052475528 xtb: 6.5.1 (b24c23e)
Co          14.45074312227661        0.00997411079101       -0.01955548399483
C           11.06487792722441        0.08005756499051       -0.11163026862642