126
 energy: -228.032040275204 gnorm: 0.000917412756 xtb: 6.5.1 (b24c23e)
Co          14.59365006289793        0.05739669188798       -0.12181707054521
C           11.22581239616125        0.10656334118019       -0.30054743759970
C           11.90373621811868        1.30479676810580       -0.36103608595919
C           11.25633676554780        2.57520363649522       -0.48644602638099
C           12.20564501874557        3.51654948561548       -0.27627539073550
C           13.43694764411867        2.82010410444610       -0.04237542562942
N           13.24791087384934        1.46511331854670       -0.13399377321478
C           14.61369535896413        3.43193496723650        0.36972014957096
C           14.62190075132155        4.89535667461511        0.60021439967182
C           14.83786426653170        5.40455326680262        1.88371909067384
C           14.84480529363958        6.76930579760984        2.09936100926063
C           14.64119968604845        7.65467358814883        1.03580863415183
C           14.65501054976752        9.10694875364092        1.29138358046725
O           14.83239861977613        9.59310966995075        2.37868390596823
C           14.42951137850354        7.14591674341686       -0.24770734849325
C           14.41820095946960        5.77900100034577       -0.46253634434254
C           15.78927098473201        2.72013255294785        0.55122620289432
C           17.04209665337308        3.32519670748486        0.89244308482046
C           17.99238057995286        2.37428636270520        0.73018722719939
N           15.96830909217548        1.39173449926336        0.23554968299456
C           17.31819031105168        1.19078767149506        0.29935688118014
C           17.98494732483216        0.02854716047816       -0.09627380390380
C           17.29694326322509       -1.13784252668776       -0.43816094326905
C           17.94823356057880       -2.34891453221251       -0.82494142913655
C           16.98999560571545       -3.30517233921792       -0.87670443637290
C           15.75574678789526       -2.67210276928405       -0.52213272764098
N           15.94936262437686       -1.32765570768553       -0.30759739040467
C           14.55542961138458       -3.34743123856428       -0.35294628305138
C           14.54773175955358       -4.82303633011533       -0.45921540498173
C           13.77484754764665       -5.45747337475747       -1.43583269096687
C           13.78002887940473       -6.83644512599951       -1.54687514002300
C           14.55433001875851       -7.60946157529106       -0.67841143423266
C           14.57854639261820       -9.08048105905057       -0.77765700880298
O           15.23106427954895       -9.78916287640769       -0.05507390058675
C           15.32424957923348       -6.97510897861610        0.30216991309153
C           15.32383803069445       -5.59772170272658        0.40837199713778
C           13.36287618625232       -2.67555051485072       -0.12164208338075
C           12.09499359047406       -3.32224189834071        0.05336259191015
C           11.15474180712899       -2.34868803686782        0.03889598944751
C           11.85091205725437       -1.10815167309135       -0.11857235909634
N           13.20724119595108       -1.31291876977828       -0.15467009193968
H           10.14476479535017        0.12322692287369       -0.37268310659028
H           10.20454671872586        2.70781856719370       -0.68362795236761
H           12.09138465275024        4.58819074123024       -0.26104229386870
H           14.98570625578297        4.71975132450878        2.71101592621256
H           15.00677137666202        7.17374020233422        3.09273747245287
H           14.48666420661418        9.73039005393972        0.38742956512126
H           14.27534794772215        7.82615450265136       -1.07903583483434
H           14.26748546818211        5.38696188871196       -1.46201719826167
H           17.16992531789379        4.35378146199111        1.18741441522077
H           19.05781731363533        2.45357972602134        0.87384672132530
H           19.00509783794776       -2.44124374283873       -1.01624687013323
H           17.09700110386106       -4.34585168884942       -1.13569425414076
H           13.18499410812042       -4.85949231445645       -2.12137122819752
H           13.18360796742702       -7.32037796003959       -2.31349311311829
H           13.94167249573993       -9.49291870818615       -1.58910007609238
H           15.91950989413604       -7.58376066942762        0.97433461013302
H           15.91433398929620       -5.10891919036363        1.17498707812772
H           11.95661589197177       -4.38531691491759        0.16560693855050
H           10.08393302618038       -2.44116399178242        0.12597197417946
Co          30.54392117570814       -0.03994477572193       -0.13061020307175
C           33.91080717280215       -0.06355207349023       -0.30891450173275
C           33.23224098917039       -1.23877747324132       -0.54921208073932
C           33.87750368050464       -2.47703364240344       -0.86422137058411
C           32.92766788506945       -3.43852522515291       -0.79284205450764
C           31.69820587645701       -2.78381498174772       -0.45290201381648
N           31.88844247663976       -1.43019458457827       -0.34526956683539
C           30.52384561970395       -3.44833328927310       -0.12372640800012
C           30.51585494539260       -4.92968983314193       -0.10387952512010
C           30.31433385019061       -5.61634438441791        1.09657340565170
C           30.30767059538434       -6.99790058557718        1.11578775201317
C           30.49664947600498       -7.72279019346964       -0.06542956488107
C           30.48297033326396       -9.19666143195623       -0.01913035395222
O           30.31875640534026       -9.83268340012942        0.99009877708089
C           30.69385023048788       -7.03648292571110       -1.26590431493417
C           30.70538887481653       -5.65290127887699       -1.28399366956931
C           29.35061511448786       -2.76942122920535        0.16658981087821
C           28.09945729585851       -3.41553502769597        0.42979220342651
C           27.14880431901753       -2.45144754305833        0.40471920218232
N           29.17054245356741       -1.41021552042498        0.03850323286474
C           27.82113037712132       -1.21998266577181        0.13567937546556
C           27.15389087770589       -0.01525141681954       -0.10015427148932
C           27.84226697926931        1.18614411176631       -0.28402086526191
C           27.19285299179708        2.43858171286858       -0.50773504628579
C           28.15104134263860        3.39280706838130       -0.42409445420875
C           29.38344148716227        2.71727580471492       -0.15083993368875
N           29.18924806521123        1.35628026189795       -0.12340015864980
C           30.58165184168643        3.36185621663701        0.12254276267123
C           30.58851470177711        4.83727979672838        0.22839406855806
C           31.37579335995453        5.60515849325353       -0.63432577596227
C           31.37128433557080        6.98569632343591       -0.54492635713714
C           30.58279231256719        7.62629814390941        0.41385196934634
C           30.55922831541547        9.09621982967222        0.52820664844987
O           29.89472896672997        9.69396523504081        1.33528268925542
C           29.79790314083344        6.85803492965761        1.28011530477153
C           29.79799116755484        5.47978834354084        1.18632116959412
C           31.77263366385366        2.66306858989693        0.26680746645749
C           33.03910777723531        3.27604405260467        0.54385592077489
C           33.97980244185652        2.31440697663183        0.39338972935739
C           33.28529410128583        1.11079361426072        0.05074568653016
N           31.92915014193939        1.31959003125530        0.03734495890295
H           34.99198645156159       -0.06988392877504       -0.38061484468361
H           34.92842402272316       -2.57977856241572       -1.08272739691205
H           33.04043367022171       -4.50062760343900       -0.93762996100807
H           30.17757994025865       -5.05626816347839        2.01463428084351
H           30.15708510903673       -7.53966723634369        2.04336859218366
H           30.63845277104624       -9.68504017521955       -1.00476319135959
H           30.83660424021057       -7.59144629204640       -2.18743963590988
H           30.84517324946490       -5.12246879294175       -2.21912239849296
H           27.97280845266415       -4.47480738665103        0.58232689688780
H           26.08417758297426       -2.54985598674449        0.54248133369678
H           26.13705672096781        2.55638103532562       -0.69081423616705
H           28.04506200627559        4.45898041643520       -0.54074749377221
H           31.97681400014627        5.11176108013388       -1.38983752032706
H           31.97892142548917        7.57445014897223       -1.22444092222746
H           31.20879692098147        9.62071784444619       -0.20471778073453
H           29.19130099100753        7.36403675203693        2.02348268691906
H           29.19641877779396        4.88626318104845        1.86539954571292
H           33.17657249222284        4.31102936659927        0.81176828398651
H           35.04994354798689        2.39259246281374        0.50041693076095
C           23.18383213429744        0.00777554151276       -0.15085640421087
C           21.95507115911496        0.01364006230514       -0.15048716411961
C           20.61162397783059        0.02067215055663       -0.14069790415663
C           19.38763467379737        0.02429636310383       -0.12176834735962
C           24.52729765162289        0.00086219369718       -0.14159212126062
C           25.75127393578982       -0.00760346895699       -0.12481395556098
