      -----------------------------------------------------------      
     |                   =====================                   |     
     |                           x T B                           |     
     |                   =====================                   |     
     |                         S. Grimme                         |     
     |          Mulliken Center for Theoretical Chemistry        |     
     |                    University of Bonn                     |     
      -----------------------------------------------------------      

   * xtb version 6.5.1 (b24c23e) compiled by 'conda@728c89f4b128' on 2022-07-12

   xtb is free software: you can redistribute it and/or modify it under
   the terms of the GNU Lesser General Public License as published by
   the Free Software Foundation, either version 3 of the License, or
   (at your option) any later version.
   
   xtb is distributed in the hope that it will be useful,
   but WITHOUT ANY WARRANTY; without even the implied warranty of
   MERCHANTABILITY or FITNESS FOR A PARTICULAR PURPOSE.  See the
   GNU Lesser General Public License for more details.
   
   Cite this work as:
   * C. Bannwarth, E. Caldeweyher, S. Ehlert, A. Hansen, P. Pracht,
     J. Seibert, S. Spicher, S. Grimme, WIREs Comput. Mol. Sci., 2020, 11,
     e01493. DOI: 10.1002/wcms.1493
   
   for GFN2-xTB:
   * C. Bannwarth, S. Ehlert and S. Grimme., J. Chem. Theory Comput., 2019,
     15, 1652-1671. DOI: 10.1021/acs.jctc.8b01176
   for GFN1-xTB:
   * S. Grimme, C. Bannwarth, P. Shushkov, J. Chem. Theory Comput., 2017,
     13, 1989-2009. DOI: 10.1021/acs.jctc.7b00118
   for GFN0-xTB:
   * P. Pracht, E. Caldeweyher, S. Ehlert, S. Grimme, ChemRxiv, 2019, preprint.
     DOI: 10.26434/chemrxiv.8326202.v1
   for GFN-FF:
   * S. Spicher and S. Grimme, Angew. Chem. Int. Ed., 2020, 59, 15665-15673.
     DOI: 10.1002/anie.202004239
   
   for ALPB and GBSA implicit solvation:
   * S. Ehlert, M. Stahn, S. Spicher, S. Grimme, J. Chem. Theory Comput.,
     2021, 17, 4250-4261. DOI: 10.1021/acs.jctc.1c00471
   
   for DFT-D4:
   * E. Caldeweyher, C. Bannwarth and S. Grimme, J. Chem. Phys., 2017,
     147, 034112. DOI: 10.1063/1.4993215
   * E. Caldeweyher, S. Ehlert, A. Hansen, H. Neugebauer, S. Spicher,
     C. Bannwarth and S. Grimme, J. Chem. Phys., 2019, 150, 154122.
     DOI: 10.1063/1.5090222
   * E. Caldeweyher, J.-M. Mewes, S. Ehlert and S. Grimme, Phys. Chem. Chem. Phys.
     2020, 22, 8499-8512. DOI: 10.1039/D0CP00502A
   
   for sTDA-xTB:
   * S. Grimme and C. Bannwarth, J. Chem. Phys., 2016, 145, 054103.
     DOI: 10.1063/1.4959605
   
   in the mass-spec context:
   * V. Asgeirsson, C. Bauer and S. Grimme, Chem. Sci., 2017, 8, 4879.
     DOI: 10.1039/c7sc00601b
   * J. Koopman and S. Grimme, ACS Omega 2019, 4, 12, 15120-15133.
     DOI: 10.1021/acsomega.9b02011
   
   for metadynamics refer to:
   * S. Grimme, J. Chem. Theory Comput., 2019, 155, 2847-2862
     DOI: 10.1021/acs.jctc.9b00143
   
   for SPH calculations refer to:
   * S. Spicher and S. Grimme, J. Chem. Theory Comput., 2021, 17, 1701-1714
     DOI: 10.1021/acs.jctc.0c01306
   
   with help from (in alphabetical order)
   P. Atkinson, C. Bannwarth, F. Bohle, G. Brandenburg, E. Caldeweyher
   M. Checinski, S. Dohm, S. Ehlert, S. Ehrlich, I. Gerasimov, C. Hölzer
   A. Katbashev, J. Koopman, C. Lavigne, S. Lehtola, F. März, M. Müller,
   F. Musil, H. Neugebauer, J. Pisarek, C. Plett, P. Pracht, F. Pultar,
   J. Seibert, P. Shushkov, S. Spicher, M. Stahn, M. Steiner, T. Strunk,
   J. Stückrath, T. Rose, and J. Unsleber
   
 * started run on 2022/07/30 at 06:18:25.903     

           -------------------------------------------------
          |                Calculation Setup                |
           -------------------------------------------------

          program call               : xtb xtbopt.xyz --gfn 1 --vipea
          hostname                   : cx3-14-28.cx3.hpc.ic.ac.uk
          coordinate file            : xtbopt.xyz
          omp threads                :                     1

   ID    Z sym.   atoms
    1   28 Ni     1, 63
    2    6 C      2-6, 8-11, 13-24, 27-32, 35-39, 42, 43, 64-68, 70-73,
                  75-86, 89-94, 97-101, 104, 105, 125-128
    3    7 N      7, 12, 33, 34, 69, 74, 95, 96
    4    8 O      25, 26, 40, 41, 87, 88, 102, 103
    5    1 H      44-62, 106-124

           -------------------------------------------------
          |                 I P E A - x T B                 |
           -------------------------------------------------

        Reference                      10.1039/c7sc00601b
      * Hamiltonian:
        H0-scaling (s, p, d)           2.150000    2.300000    2.000000
        zeta-weighting                 0.000000
      * Dispersion:
        s8                             2.400000
        a1                             0.630000
        a2                             5.000000
        s9                             0.000000
      * Repulsion:
        kExp                           1.500000
        rExp                           1.000000
      * Coulomb:
        alpha                          1.000000
        third order                    atomic
        anisotropic                    false
      * Halogen bond correction:
        rad-scale                      1.300000
        damping                        0.440000


          ...................................................
          :                      SETUP                      :
          :.................................................:
          :  # basis functions                 536          :
          :  # atomic orbitals                 534          :
          :  # shells                          346          :
          :  # electrons                       434          :
          :  # halogen bonds                     0          :
          :  max. iterations                   250          :
          :  Hamiltonian                  GFN1-xTB          :
          :  restarted?                      false          :
          :  GBSA solvation                  false          :
          :  PC potential                    false          :
          :  electronic temp.          300.0000000     K    :
          :  accuracy                    1.0000000          :
          :  -> integral cutoff          0.2500000E+02      :
          :  -> integral neglect         0.1000000E-07      :
          :  -> SCF convergence          0.1000000E-05 Eh   :
          :  -> wf. convergence          0.2000000E-04 e    :
          :  Broyden damping             0.4000000          :
          ...................................................

 iter      E             dE          RMSdq      gap      omega  full diag
   1   -274.3590061 -0.274359E+03  0.102E+01    1.44       0.0  T
   2   -274.6919369 -0.332931E+00  0.632E+00    1.12       1.0  T
   3   -271.0773572  0.361458E+01  0.460E+00    1.16       1.0  T
   4   -275.4620708 -0.438471E+01  0.974E-01    1.80       1.0  T
   5   -275.7446370 -0.282566E+00  0.226E-01    1.59       1.0  T
   6   -275.7593934 -0.147563E-01  0.938E-02    1.63       1.0  T
   7   -275.7614964 -0.210307E-02  0.368E-02    1.61       1.0  T
   8   -275.7617533 -0.256877E-03  0.218E-02    1.62       1.0  T
   9   -275.7618148 -0.615358E-04  0.835E-03    1.62       1.1  T
  10   -275.7618251 -0.102237E-04  0.295E-03    1.62       3.0  T
  11   -275.7618270 -0.195702E-05  0.142E-03    1.62       6.2  T
  12   -275.7618275 -0.518528E-06  0.609E-04    1.62      14.5  T
  13   -275.7618276 -0.818036E-07  0.207E-04    1.62      42.7  T
  14   -275.7618276 -0.824980E-08  0.105E-04    1.62      84.3  T
  15   -275.7618276 -0.284865E-08  0.402E-05    1.62     219.8  T

   *** convergence criteria satisfied after 15 iterations ***

         #    Occupation            Energy/Eh            Energy/eV
      -------------------------------------------------------------
         1        2.0000           -1.0614496             -28.8835
       ...           ...                  ...                  ...
       211        2.0000           -0.3867755             -10.5247
       212        2.0000           -0.3867120             -10.5230
       213        2.0000           -0.3864734             -10.5165
       214        2.0000           -0.3864613             -10.5161
       215        2.0000           -0.3863309             -10.5126
       216        2.0000           -0.3863294             -10.5126
       217        2.0000           -0.3817997             -10.3893 (HOMO)
       218                         -0.3223871              -8.7726 (LUMO)
       219                         -0.3112104              -8.4685
       220                         -0.3112075              -8.4684
       221                         -0.3052895              -8.3074
       222                         -0.2773117              -7.5460
       ...                                ...                  ...
       534                        522.3981319           14215.1767
      -------------------------------------------------------------
                  HL-Gap            0.0594126 Eh            1.6167 eV
             Fermi-level           -0.3520934 Eh           -9.5809 eV

 SCC (total)                   0 d,  0 h,  0 min,  2.675 sec
 SCC setup                      ...        0 min,  0.003 sec (  0.118%)
 Dispersion                     ...        0 min,  0.004 sec (  0.167%)
 classical contributions        ...        0 min,  0.002 sec (  0.065%)
 integral evaluation            ...        0 min,  0.397 sec ( 14.855%)
 iterations                     ...        0 min,  1.312 sec ( 49.028%)
 molecular gradient             ...        0 min,  0.936 sec ( 34.972%)
 printout                       ...        0 min,  0.021 sec (  0.793%)

         :::::::::::::::::::::::::::::::::::::::::::::::::::::
         ::                     SUMMARY                     ::
         :::::::::::::::::::::::::::::::::::::::::::::::::::::
         :: total energy            -270.898886261182 Eh    ::
         :: gradient norm              0.073976235976 Eh/a0 ::
         :: HOMO-LUMO gap              1.616698064705 eV    ::
         ::.................................................::
         :: SCC energy              -275.761827640347 Eh    ::
         :: -> electrostatic           0.254278651709 Eh    ::
         :: repulsion energy           4.976635053654 Eh    ::
         :: dispersion energy         -0.113693674490 Eh    ::
         :: halogen bond corr.         0.000000000000 Eh    ::
         :: add. restraining           0.000000000000 Eh    ::
         :: total charge               0.000000000000 e     ::
         :::::::::::::::::::::::::::::::::::::::::::::::::::::

           ------------------------------------------------- 
          |        vertical delta SCC IP calculation        |
           ------------------------------------------------- 
   1   -275.3345910 -0.275335E+03  0.170E-01    1.62       0.0  T
   2   -275.3412505 -0.665956E-02  0.120E-01    1.64       1.0  T
   3   -275.3427114 -0.146082E-02  0.106E-01    1.61       1.0  T
   4   -275.3434646 -0.753236E-03  0.852E-02    1.61       1.0  T
   5   -275.3443225 -0.857884E-03  0.463E-02    1.62       1.0  T
   6   -275.3438582  0.464328E-03  0.488E-02    1.61       1.0  T
   7   -275.3439504 -0.922211E-04  0.464E-02    1.61       1.0  T
   8   -275.3445008 -0.550381E-03  0.124E-02    1.61       1.0  T
   9   -275.3445130 -0.122040E-04  0.807E-03    1.61       1.1  T
  10   -275.3445213 -0.834205E-05  0.360E-03    1.61       2.5  T
  11   -275.3445235 -0.222307E-05  0.169E-03    1.61       5.2  T
  12   -275.3445240 -0.480802E-06  0.631E-04    1.61      14.0  T
  13   -275.3445241 -0.629747E-07  0.217E-04    1.61      40.6  T
  14   -275.3445241 -0.872399E-08  0.862E-05    1.61     102.5  T
  15   -275.3445241 -0.153346E-08  0.484E-05    1.61     182.5  T
     SCC iter.                  ...        0 min,  1.332 sec
     gradient                   ...        0 min,  0.946 sec
------------------------------------------------------------------------
empirical IP shift (eV):    4.8455
delta SCC IP (eV):    6.5099
------------------------------------------------------------------------
           ------------------------------------------------- 
          |        vertical delta SCC EA calculation        |
           ------------------------------------------------- 
   1   -276.0120440 -0.276012E+03  0.283E-01    0.38       0.0  T
   2   -276.0384078 -0.263638E-01  0.199E-01    0.15       1.0  T
   3   -276.0455491 -0.714136E-02  0.128E-01    0.22       1.0  T
   4   -276.0471592 -0.161009E-02  0.812E-02    0.15       1.0  T
   5   -276.0472413 -0.820814E-04  0.494E-02    0.17       1.0  T
   6   -276.0476292 -0.387872E-03  0.226E-02    0.16       1.0  T
   7   -276.0477782 -0.149012E-03  0.719E-03    0.16       1.2  T
   8   -276.0477857 -0.746211E-05  0.395E-03    0.16       2.2  T
   9   -276.0477880 -0.233360E-05  0.165E-03    0.16       5.3  T
  10   -276.0477882 -0.239502E-06  0.118E-03    0.16       7.5  T
  11   -276.0477889 -0.672916E-06  0.708E-04    0.16      12.5  T
  12   -276.0477892 -0.318033E-06  0.257E-04    0.16      34.4  T
  13   -276.0477892 -0.226682E-07  0.689E-05    0.16     128.2  T
  14   -276.0477892 -0.109753E-08  0.248E-05    0.16     356.8  T
     SCC iter.                  ...        0 min,  1.247 sec
     gradient                   ...        0 min,  0.953 sec
------------------------------------------------------------------------
empirical EA shift (eV):    4.8455
delta SCC EA (eV):    2.9359
------------------------------------------------------------------------
           -------------------------------------------------
          |                Property Printout                |
           -------------------------------------------------

    * Orbital Energies and Occupations

         #    Occupation            Energy/Eh            Energy/eV
      -------------------------------------------------------------
         1        2.0000           -1.0148286             -27.6149
       ...           ...                  ...                  ...
       206        2.0000           -0.3269987              -8.8981
       207        2.0000           -0.3261894              -8.8761
       208        2.0000           -0.3261860              -8.8760
       209        2.0000           -0.3181653              -8.6577
       210        2.0000           -0.3181216              -8.6565
       211        2.0000           -0.3160198              -8.5993
       212        2.0000           -0.3159655              -8.5979
       213        2.0000           -0.3158036              -8.5935
       214        2.0000           -0.3157507              -8.5920
       215        2.0000           -0.3156663              -8.5897
       216        2.0000           -0.3156656              -8.5897
       217        2.0000           -0.3100313              -8.4364
       218        0.9409           -0.2497160              -6.7951 (HOMO)
       219        0.0296           -0.2437706              -6.6333 (LUMO)
       220        0.0295           -0.2437676              -6.6333
       221        0.0000           -0.2332196              -6.3462
       222                         -0.2217554              -6.0343
       223                         -0.2209851              -6.0133
       224                         -0.2158299              -5.8730
       225                         -0.2158176              -5.8727
       226                         -0.2015344              -5.4840
       227                         -0.2010969              -5.4721
       228                         -0.2003740              -5.4525
       229                         -0.1997569              -5.4357
       ...                                ...                  ...
       534                        522.4693503           14217.1147
      -------------------------------------------------------------
                  HL-Gap            0.0059454 Eh            0.1618 eV
             Fermi-level           -0.2634801 Eh           -7.1697 eV

  Mulliken/CM5 charges         n(s)   n(p)   n(d)
     1Ni    0.25836  0.62676   0.574  0.791  8.377
     2C    -0.03251 -0.07388   1.075  2.958  0.000
     3C     0.05633  0.11693   1.111  2.833  0.000
     4C    -0.04345 -0.08999   1.084  2.960  0.000
     5C    -0.03998 -0.08601   1.078  2.962  0.000
     6C     0.05482  0.11892   1.099  2.846  0.000
     7N    -0.21454 -0.46557   1.314  3.901  0.000
     8C     0.00592  0.01121   1.082  2.912  0.000
     9C     0.05378  0.11716   1.097  2.849  0.000
    10C    -0.04090 -0.08690   1.075  2.966  0.000
    11C    -0.04063 -0.08622   1.082  2.959  0.000
    12N    -0.21039 -0.46107   1.316  3.894  0.000
    13C     0.06066  0.12581   1.115  2.824  0.000
    14C     0.00820  0.01507   1.074  2.918  0.000
    15C     0.06050  0.12560   1.115  2.824  0.000
    16C    -0.04062 -0.08622   1.082  2.959  0.000
    17C    -0.04083 -0.08696   1.075  2.966  0.000
    18C     0.05383  0.11721   1.097  2.849  0.000
    19C     0.00533  0.01061   1.081  2.913  0.000
    20C     0.01706  0.00818   1.096  2.887  0.000
    21C    -0.01762 -0.07091   1.079  2.938  0.000
    22C    -0.01398 -0.06557   1.089  2.925  0.000
    23C     0.00315 -0.00035   1.086  2.911  0.000
    24C     0.23160  0.28654   1.195  2.573  0.000
    25O    -0.28243 -0.47897   1.682  4.601  0.000
    26O    -0.33550 -0.38519   1.629  4.707  0.000
    27C    -0.01554 -0.06718   1.087  2.929  0.000
    28C    -0.01775 -0.07105   1.079  2.939  0.000
    29C     0.05496  0.11901   1.100  2.845  0.000
    30C    -0.03970 -0.08586   1.078  2.962  0.000
    31C    -0.04327 -0.08983   1.083  2.960  0.000
    32C     0.05635  0.11692   1.110  2.833  0.000
    33N    -0.21453 -0.46573   1.314  3.901  0.000
    34N    -0.21032 -0.46115   1.316  3.894  0.000
    35C     0.01761  0.00868   1.097  2.885  0.000
    36C    -0.01747 -0.07073   1.079  2.938  0.000
    37C    -0.01358 -0.06517   1.090  2.924  0.000
    38C     0.00322 -0.00028   1.086  2.911  0.000
    39C     0.23174  0.28667   1.195  2.573  0.000
    40O    -0.28253 -0.47906   1.682  4.601  0.000
    41O    -0.33511 -0.38482   1.629  4.706  0.000
    42C    -0.01556 -0.06718   1.087  2.929  0.000
    43C    -0.01812 -0.07136   1.079  2.939  0.000
    44H     0.01558  0.07462   0.984  0.000  0.000
    45H     0.02242  0.07906   0.978  0.000  0.000
    46H     0.01651  0.07550   0.983  0.000  0.000
    47H     0.01696  0.07596   0.983  0.000  0.000
    48H     0.01983  0.07805   0.980  0.000  0.000
    49H     0.01975  0.07797   0.980  0.000  0.000
    50H     0.01646  0.07551   0.984  0.000  0.000
    51H     0.02437  0.08231   0.976  0.000  0.000
    52H     0.03997  0.10046   0.960  0.000  0.000
    53H     0.23859  0.41438   0.761  0.000  0.000
    54H     0.04199  0.10324   0.958  0.000  0.000
    55H     0.02475  0.08267   0.975  0.000  0.000
    56H     0.01599  0.07498   0.984  0.000  0.000
    57H     0.02251  0.07915   0.977  0.000  0.000
    58H     0.02469  0.08240   0.975  0.000  0.000
    59H     0.04036  0.10086   0.960  0.000  0.000
    60H     0.23860  0.41440   0.761  0.000  0.000
    61H     0.04166  0.10289   0.958  0.000  0.000
    62H     0.02431  0.08202   0.976  0.000  0.000
    63Ni    0.25837  0.62682   0.574  0.791  8.376
    64C    -0.03251 -0.07388   1.075  2.958  0.000
    65C     0.05633  0.11693   1.111  2.833  0.000
    66C    -0.04345 -0.08999   1.084  2.960  0.000
    67C    -0.03998 -0.08601   1.078  2.962  0.000
    68C     0.05482  0.11892   1.099  2.846  0.000
    69N    -0.21454 -0.46558   1.314  3.901  0.000
    70C     0.00592  0.01121   1.082  2.912  0.000
    71C     0.05378  0.11716   1.097  2.849  0.000
    72C    -0.04090 -0.08690   1.075  2.966  0.000
    73C    -0.04063 -0.08621   1.082  2.958  0.000
    74N    -0.21039 -0.46110   1.316  3.894  0.000
    75C     0.06065  0.12581   1.115  2.824  0.000
    76C     0.00820  0.01507   1.074  2.918  0.000
    77C     0.06050  0.12560   1.115  2.824  0.000
    78C    -0.04062 -0.08622   1.081  2.959  0.000
    79C    -0.04084 -0.08696   1.075  2.966  0.000
    80C     0.05383  0.11721   1.097  2.849  0.000
    81C     0.00533  0.01061   1.081  2.913  0.000
    82C     0.01706  0.00818   1.096  2.887  0.000
    83C    -0.01762 -0.07091   1.079  2.938  0.000
    84C    -0.01398 -0.06558   1.089  2.925  0.000
    85C     0.00315 -0.00035   1.086  2.911  0.000
    86C     0.23160  0.28654   1.195  2.573  0.000
    87O    -0.28243 -0.47897   1.682  4.601  0.000
    88O    -0.33550 -0.38519   1.629  4.707  0.000
    89C    -0.01554 -0.06718   1.087  2.929  0.000
    90C    -0.01775 -0.07105   1.079  2.939  0.000
    91C     0.05496  0.11901   1.100  2.845  0.000
    92C    -0.03970 -0.08585   1.078  2.962  0.000
    93C    -0.04327 -0.08982   1.083  2.960  0.000
    94C     0.05635  0.11692   1.110  2.833  0.000
    95N    -0.21453 -0.46575   1.314  3.901  0.000
    96N    -0.21031 -0.46115   1.316  3.894  0.000
    97C     0.01761  0.00868   1.097  2.885  0.000
    98C    -0.01747 -0.07073   1.079  2.938  0.000
    99C    -0.01358 -0.06517   1.090  2.924  0.000
   100C     0.00322 -0.00028   1.086  2.911  0.000
   101C     0.23173  0.28666   1.195  2.573  0.000
   102O    -0.28253 -0.47905   1.682  4.601  0.000
   103O    -0.33511 -0.38482   1.629  4.706  0.000
   104C    -0.01556 -0.06718   1.087  2.929  0.000
   105C    -0.01812 -0.07136   1.079  2.939  0.000
   106H     0.01558  0.07462   0.984  0.000  0.000
   107H     0.02242  0.07906   0.978  0.000  0.000
   108H     0.01651  0.07549   0.983  0.000  0.000
   109H     0.01696  0.07597   0.983  0.000  0.000
   110H     0.01984  0.07806   0.980  0.000  0.000
   111H     0.01974  0.07796   0.980  0.000  0.000
   112H     0.01646  0.07551   0.984  0.000  0.000
   113H     0.02437  0.08231   0.976  0.000  0.000
   114H     0.03997  0.10046   0.960  0.000  0.000
   115H     0.23859  0.41438   0.761  0.000  0.000
   116H     0.04199  0.10324   0.958  0.000  0.000
   117H     0.02475  0.08267   0.975  0.000  0.000
   118H     0.01598  0.07498   0.984  0.000  0.000
   119H     0.02251  0.07916   0.977  0.000  0.000
   120H     0.02469  0.08241   0.975  0.000  0.000
   121H     0.04036  0.10086   0.960  0.000  0.000
   122H     0.23860  0.41440   0.761  0.000  0.000
   123H     0.04166  0.10289   0.958  0.000  0.000
   124H     0.02432  0.08202   0.976  0.000  0.000
   125C    -0.03184 -0.03269   1.061  2.971  0.000
   126C    -0.03002 -0.03179   1.088  2.942  0.000
   127C    -0.03184 -0.03269   1.061  2.971  0.000
   128C    -0.03003 -0.03180   1.088  2.942  0.000

Wiberg/Mayer (AO) data.
largest (>0.10) Wiberg bond orders for each atom

 ---------------------------------------------------------------------------
     #   Z sym  total        # sym  WBO       # sym  WBO       # sym  WBO
 ---------------------------------------------------------------------------
     1  28 Ni   3.314 --    34 N    0.714    12 N    0.714    33 N    0.714
                             7 N    0.713
     2   6 C    3.777 --    32 C    1.385     3 C    1.385    44 H    0.997
     3   6 C    3.942 --     2 C    1.385     7 N    1.256     4 C    1.204
     4   6 C    3.835 --     5 C    1.633     3 C    1.204    45 H    0.994
     5   6 C    3.826 --     4 C    1.633     6 C    1.212    46 H    1.000
     6   6 C    3.906 --     8 C    1.371     7 N    1.240     5 C    1.212
     7   7 N    2.992 --     3 C    1.256     6 C    1.240     1 Ni   0.713
     8   6 C    3.827 --     6 C    1.371     9 C    1.361    35 C    1.046
     9   6 C    3.891 --     8 C    1.361    12 N    1.233    10 C    1.225
    10   6 C    3.813 --    11 C    1.607     9 C    1.225    47 H    0.999
    11   6 C    3.822 --    10 C    1.607    13 C    1.236    48 H    0.999
    12   7 N    3.013 --    13 C    1.283     9 C    1.233     1 Ni   0.714
    13   6 C    3.914 --    14 C    1.284    12 N    1.283    11 C    1.236
    14   6 C    3.789 --    13 C    1.284    15 C    1.284   126 C    1.234
    15   6 C    3.914 --    14 C    1.284    34 N    1.282    16 C    1.236
    16   6 C    3.820 --    17 C    1.606    15 C    1.236    49 H    0.999
    17   6 C    3.813 --    16 C    1.606    18 C    1.227    50 H    0.998
    18   6 C    3.891 --    19 C    1.357    34 N    1.234    17 C    1.227
    19   6 C    3.827 --    29 C    1.369    18 C    1.357    20 C    1.054
    20   6 C    3.898 --    28 C    1.419    21 C    1.417    19 C    1.054
    21   6 C    3.867 --    22 C    1.466    20 C    1.417    51 H    0.989
    22   6 C    3.896 --    21 C    1.466    23 C    1.398    52 H    0.987
    23   6 C    3.895 --    22 C    1.398    27 C    1.397    24 C    1.042
    24   6 C    4.096 --    26 O    1.813    25 O    1.208    23 C    1.042
    25   8 O    2.366 --    24 C    1.208    53 H    0.945    26 O    0.182
    26   8 O    2.026 --    24 C    1.813    25 O    0.182
    27   6 C    3.892 --    28 C    1.464    23 C    1.397    54 H    0.987
    28   6 C    3.868 --    27 C    1.464    20 C    1.419    55 H    0.989
    29   6 C    3.908 --    19 C    1.369    33 N    1.241    30 C    1.212
    30   6 C    3.827 --    31 C    1.633    29 C    1.212    56 H    0.999
    31   6 C    3.834 --    30 C    1.633    32 C    1.204    57 H    0.994
    32   6 C    3.942 --     2 C    1.385    33 N    1.256    31 C    1.204
    33   7 N    2.992 --    32 C    1.256    29 C    1.241     1 Ni   0.714
    34   7 N    3.013 --    15 C    1.282    18 C    1.234     1 Ni   0.714
    35   6 C    3.899 --    43 C    1.422    36 C    1.421     8 C    1.046
    36   6 C    3.868 --    37 C    1.465    35 C    1.421    58 H    0.989
    37   6 C    3.897 --    36 C    1.465    38 C    1.399    59 H    0.987
    38   6 C    3.897 --    37 C    1.399    42 C    1.398    39 C    1.042
    39   6 C    4.097 --    41 O    1.813    40 O    1.208    38 C    1.042
    40   8 O    2.366 --    39 C    1.208    60 H    0.945    41 O    0.182
    41   8 O    2.027 --    39 C    1.813    40 O    0.182
    42   6 C    3.893 --    43 C    1.463    38 C    1.398    61 H    0.987
    43   6 C    3.870 --    42 C    1.463    35 C    1.422    62 H    0.989
    44   1 H    1.042 --     2 C    0.997
    45   1 H    1.029 --     4 C    0.994
    46   1 H    1.044 --     5 C    1.000
    47   1 H    1.043 --    10 C    0.999
    48   1 H    1.040 --    11 C    0.999
    49   1 H    1.041 --    16 C    0.999
    50   1 H    1.045 --    17 C    0.998
    51   1 H    1.055 --    21 C    0.989
    52   1 H    1.034 --    22 C    0.987
    53   1 H    0.983 --    25 O    0.945
    54   1 H    1.024 --    27 C    0.987
    55   1 H    1.056 --    28 C    0.989
    56   1 H    1.046 --    30 C    0.999
    57   1 H    1.029 --    31 C    0.994
    58   1 H    1.055 --    36 C    0.989
    59   1 H    1.034 --    37 C    0.987
    60   1 H    0.983 --    40 O    0.945
    61   1 H    1.024 --    42 C    0.987
    62   1 H    1.056 --    43 C    0.989
    63  28 Ni   3.314 --    96 N    0.714    74 N    0.714    95 N    0.714
                            69 N    0.713
    64   6 C    3.777 --    94 C    1.385    65 C    1.385   106 H    0.997
    65   6 C    3.942 --    64 C    1.385    69 N    1.256    66 C    1.204
    66   6 C    3.835 --    67 C    1.633    65 C    1.204   107 H    0.994
    67   6 C    3.826 --    66 C    1.633    68 C    1.212   108 H    1.000
    68   6 C    3.906 --    70 C    1.371    69 N    1.240    67 C    1.212
    69   7 N    2.992 --    65 C    1.256    68 C    1.240    63 Ni   0.713
    70   6 C    3.827 --    68 C    1.371    71 C    1.361    97 C    1.046
    71   6 C    3.891 --    70 C    1.361    74 N    1.233    72 C    1.225
    72   6 C    3.813 --    73 C    1.607    71 C    1.225   109 H    0.999
    73   6 C    3.822 --    72 C    1.607    75 C    1.236   110 H    0.999
    74   7 N    3.013 --    75 C    1.283    71 C    1.233    63 Ni   0.714
    75   6 C    3.914 --    76 C    1.284    74 N    1.283    73 C    1.236
    76   6 C    3.789 --    75 C    1.284    77 C    1.284   128 C    1.234
    77   6 C    3.914 --    76 C    1.284    96 N    1.281    78 C    1.236
    78   6 C    3.820 --    79 C    1.606    77 C    1.236   111 H    0.999
    79   6 C    3.813 --    78 C    1.606    80 C    1.227   112 H    0.998
    80   6 C    3.891 --    81 C    1.357    96 N    1.234    79 C    1.227
    81   6 C    3.827 --    91 C    1.369    80 C    1.357    82 C    1.054
    82   6 C    3.898 --    90 C    1.419    83 C    1.417    81 C    1.054
    83   6 C    3.867 --    84 C    1.466    82 C    1.417   113 H    0.989
    84   6 C    3.896 --    83 C    1.466    85 C    1.398   114 H    0.987
    85   6 C    3.895 --    84 C    1.398    89 C    1.397    86 C    1.042
    86   6 C    4.096 --    88 O    1.813    87 O    1.208    85 C    1.042
    87   8 O    2.366 --    86 C    1.208   115 H    0.945    88 O    0.182
    88   8 O    2.026 --    86 C    1.813    87 O    0.182
    89   6 C    3.892 --    90 C    1.464    85 C    1.397   116 H    0.987
    90   6 C    3.868 --    89 C    1.464    82 C    1.419   117 H    0.989
    91   6 C    3.908 --    81 C    1.369    95 N    1.241    92 C    1.212
    92   6 C    3.827 --    93 C    1.633    91 C    1.212   118 H    0.999
    93   6 C    3.834 --    92 C    1.633    94 C    1.204   119 H    0.994
    94   6 C    3.942 --    64 C    1.385    95 N    1.256    93 C    1.204
    95   7 N    2.992 --    94 C    1.256    91 C    1.241    63 Ni   0.714
    96   7 N    3.013 --    77 C    1.281    80 C    1.234    63 Ni   0.714
    97   6 C    3.899 --   105 C    1.422    98 C    1.421    70 C    1.046
    98   6 C    3.868 --    99 C    1.465    97 C    1.421   120 H    0.989
    99   6 C    3.897 --    98 C    1.465   100 C    1.399   121 H    0.987
   100   6 C    3.897 --    99 C    1.399   104 C    1.398   101 C    1.042
   101   6 C    4.097 --   103 O    1.813   102 O    1.208   100 C    1.042
   102   8 O    2.366 --   101 C    1.208   122 H    0.945   103 O    0.182
   103   8 O    2.027 --   101 C    1.813   102 O    0.182
   104   6 C    3.893 --   105 C    1.463   100 C    1.398   123 H    0.987
   105   6 C    3.870 --   104 C    1.463    97 C    1.422   124 H    0.989
   106   1 H    1.042 --    64 C    0.997
   107   1 H    1.029 --    66 C    0.994
   108   1 H    1.044 --    67 C    1.000
   109   1 H    1.043 --    72 C    0.999
   110   1 H    1.040 --    73 C    0.999
   111   1 H    1.041 --    78 C    0.999
   112   1 H    1.045 --    79 C    0.998
   113   1 H    1.055 --    83 C    0.989
   114   1 H    1.034 --    84 C    0.987
   115   1 H    0.983 --    87 O    0.945
   116   1 H    1.024 --    89 C    0.987
   117   1 H    1.056 --    90 C    0.989
   118   1 H    1.046 --    92 C    0.999
   119   1 H    1.029 --    93 C    0.994
   120   1 H    1.055 --    98 C    0.989
   121   1 H    1.034 --    99 C    0.987
   122   1 H    0.983 --   102 O    0.945
   123   1 H    1.024 --   104 C    0.987
   124   1 H    1.056 --   105 C    0.989
   125   6 C    3.799 --   126 C    2.480   127 C    1.340
   126   6 C    3.795 --   125 C    2.480    14 C    1.234   128 C    0.172
   127   6 C    3.799 --   128 C    2.480   125 C    1.340
   128   6 C    3.795 --   127 C    2.480    76 C    1.234   126 C    0.172
 ---------------------------------------------------------------------------

Topologies differ in total number of bonds
Writing topology from bond orders to xtbtopo.mol

 dipole moment from electron density (au)
     X       Y       Z   
 -46.1929   2.3794   0.1370  total (Debye):  117.567


           -------------------------------------------------
          | TOTAL ENERGY             -271.184847860771 Eh   |
          | GRADIENT NORM               0.092208289958 Eh/α |
          | HOMO-LUMO GAP               0.161781928258 eV   |
           -------------------------------------------------
########################################################################
[WARNING] Runtime exception occurred
-1- restart_readRestart: Dimension missmatch in restart file.
########################################################################

------------------------------------------------------------------------
 * finished run on 2022/07/30 at 06:18:34.364     
------------------------------------------------------------------------
 total:
 * wall-time:     0 d,  0 h,  0 min,  8.461 sec
 *  cpu-time:     0 d,  0 h,  0 min,  8.410 sec
 * ratio c/w:     0.994 speedup
 SCF:
 * wall-time:     0 d,  0 h,  0 min,  8.031 sec
 *  cpu-time:     0 d,  0 h,  0 min,  7.983 sec
 * ratio c/w:     0.994 speedup

