250
 energy: -497.839963276777 gnorm: 4.081858475410 xtb: 6.5.1 (b24c23e)
Cu          48.25770199999999        0.04602500000000       -0.01957300000000
C           44.92095599999999       -0.07897300000000       -0.09726900000000
C           45.58415200000000       -1.23030600000000       -0.23998800000000
C           44.93344500000000       -2.52883700000000       -0.36602100000000
C           45.87393500000000       -3.44194500000000       -0.52045200000000
C           47.17935199999999       -2.76731200000000       -0.51162300000000
N           47.00234600000000       -1.36254600000000       -0.32426600000000
C           48.37182100000000       -3.37737100000000       -0.67423700000000
C           48.41920400000000       -4.83926500000000       -0.90349100000000
C           48.93450500000000       -5.68870400000000        0.08460900000000
C           48.99326499999999       -7.06778700000000       -0.13283400000000
C           48.54047800000000       -7.61994800000000       -1.34557400000000
N           48.59634300000000       -9.04013800000000       -1.57221500000000
O           48.15189200000000       -9.57742400000000       -2.75911200000000
O           49.03597800000000       -9.80837800000000       -0.69110200000000
C           48.03123500000000       -6.76140200000000       -2.33590900000000
C           47.97319900000000       -5.38220800000000       -2.11717800000000
C           49.66483300000000       -2.64418100000000       -0.64512400000000
C           50.95141400000000       -3.24327300000000       -1.02168300000000
C           51.88575700000000       -2.32875700000000       -0.85746200000000
N           49.80558400000000       -1.41023800000000       -0.26751600000000
C           51.20277500000000       -1.13486300000000       -0.37383000000000
C           51.79619300000000        0.01716000000000       -0.02148300000000
C           51.03289899999999        1.19209800000000        0.45620800000000
C           51.56532899999999        2.20497200000000        1.12821200000000
C           50.52174000000000        3.19398700000000        1.31634200000000
C           49.42125500000000        2.72153000000000        0.74219000000000
N           49.65415900000000        1.43261300000000        0.17128900000000
C           48.13931600000000        3.46670000000000        0.64813900000000
C           48.15681200000000        4.93439700000000        0.85998500000000
C           47.49466799999999        5.50289900000000        1.95824400000000
C           47.53175999999999        6.88425300000000        2.16674000000000
C           48.23612100000000        7.72085200000000        1.28330000000000
N           48.27089000000000        9.14334100000000        1.49997200000000
O           47.66578699999999        9.69705200000000        2.60545400000000
O           48.85461299999999        9.89650600000000        0.69276000000000
C           48.90668200000000        7.14437100000000        0.18851100000000
C           48.86972700000000        5.76248200000000       -0.01835200000000
C           46.97719600000000        2.84058000000000        0.38094300000000
C           45.66703200000000        3.47349600000000        0.23789800000000
C           44.80557900000000        2.49395200000000        0.04472900000000
C           45.55699099999999        1.23981800000000        0.04937500000000
N           46.82350500000000        1.42957000000000        0.24370100000000
H           43.83747400000000       -0.10715200000000       -0.09142200000000
H           43.86930200000000       -2.72671400000000       -0.33687800000000
H           45.68606400000000       -4.50193200000000       -0.63218500000000
H           49.28846100000000       -5.28190300000000        1.02411400000000
H           49.39383200000000       -7.70174700000000        0.64725900000000
H           47.67878899999999       -7.15507900000000       -3.28065500000000
H           47.58190099999999       -4.73631400000000       -2.89351400000000
H           51.12427900000000       -4.25135500000000       -1.37561000000000
H           52.94135000000000       -2.46802200000000       -1.05043900000000
H           52.59193100000000        2.29622400000000        1.45563300000000
H           50.63189400000000        4.15049400000000        1.81149700000000
H           46.95363700000000        4.87438800000000        2.65535100000000
H           47.00981899999999        7.29728800000000        3.02041500000000
H           49.46495100000000        7.76064300000000       -0.50379800000000
H           49.39661400000000        5.33669500000000       -0.86382500000000
H           45.42366199999999        4.52706000000000        0.27823300000000
H           43.73905300000000        2.61222400000000       -0.09545500000000
Cu          89.01433099999998       -0.01031500000000       -0.03053600000000
C           92.35107700000000        0.13469500000000       -0.05569400000000
C           91.68787999999999        1.25554300000000        0.24370200000000
C           92.33858700000000        2.50659300000000        0.61376000000000
C           91.39809800000000        3.41098600000000        0.81297400000000
C           90.09268000000000        2.78226400000000        0.56819900000000
N           90.26968700000000        1.40973600000000        0.21515800000000
C           88.90021199999998        3.40878700000000        0.64619700000000
C           88.85282800000000        4.84998400000000        0.98181900000000
C           88.33752800000001        5.26695200000000        2.21633300000000
C           88.27876699999999        6.62695100000000        2.53185300000000
C           88.73155499999999        7.59355500000000        1.61463100000000
N           88.67569000000000        8.99511100000000        1.93703800000000
O           89.12014000000001        9.93823500000000        1.03819500000000
O           88.23605400000000        9.37692000000000        3.04192500000000
C           89.24079800000000        7.16898200000000        0.37462900000000
C           89.29883400000000        5.80839700000000        0.06026200000000
C           87.60719899999999        2.71817300000000        0.39827000000000
C           86.32061899999999        3.41475000000000        0.27381800000000
C           85.38627500000000        2.50538000000000        0.08315200000000
N           87.46644899999998        1.43267000000000        0.28564900000000
C           86.06925800000000        1.21724900000000        0.08383800000000
C           85.47584000000001        0.01716000000000       -0.02148300000000
C           86.23913399999999       -1.25117100000000       -0.01919700000000
C           85.70670299999999       -2.44212100000000        0.22399300000000
C           86.75029300000000       -3.42952000000000        0.02755600000000
C           87.85077699999998       -2.77624900000000       -0.32755400000000
N           87.61787400000000       -1.36730500000000       -0.37351200000000
C           89.13271599999999       -3.43178800000000       -0.69415100000000
C           89.11522100000001       -4.87183700000000       -1.04808700000000
C           89.77736400000001       -5.81066400000000       -0.24312100000000
C           89.74027200000000       -7.16941300000000       -0.56778700000000
C           89.03591200000000       -7.61372200000000       -1.70046200000000
N           89.00114200000000       -9.01367200000000       -2.03297300000000
O           89.60624600000000       -9.94149400000000       -1.21576400000000
O           88.41741900000000       -9.40921500000000       -3.06369800000000
C           88.36535000000001       -6.66879900000000       -2.49922000000000
C           88.40230599999998       -5.31016600000000       -2.17284000000000
C           90.29483700000000       -2.75116000000000       -0.70708400000000
C           91.60499999999999       -3.28426400000000       -1.07701000000000
C           92.46645399999998       -2.30375600000000       -0.88879700000000
C           91.71504199999998       -1.14286300000000       -0.41424100000000
N           90.44852699999998       -1.39163600000000       -0.30524200000000
H           93.43455899999999        0.15862700000000       -0.03970800000000
H           93.40273100000000        2.67910500000000        0.71497200000000
H           91.58596900000001        4.43553300000000        1.10684400000000
H           87.98357100000000        4.53755600000000        2.93475900000000
H           87.87820100000000        6.92215600000000        3.49274100000000
H           89.59324299999999        7.88817800000000       -0.35357700000000
H           89.69013199999999        5.50072000000000       -0.90161800000000
H           86.14775400000001        4.48199200000000        0.32370200000000
H           84.33068299999999        2.70684300000000       -0.04352700000000
H           84.68010200000001       -2.64948500000000        0.49331000000000
H           86.64013900000000       -4.50190400000000        0.12793500000000
H           90.31839600000001       -5.48939400000000        0.63879200000000
H           90.26221400000000       -7.87240700000000        0.06873400000000
H           87.80708199999999       -6.98052100000000       -3.37209700000000
H           87.87541800000000       -4.59842600000000       -2.79697500000000
H           91.84836999999999       -4.27608600000000       -1.43466100000000
H           93.53297999999998       -2.36083600000000       -1.06310100000000
C           54.97475099999999        0.02959600000000       -0.01904100000000
C           53.72248000000000        0.01041500000000       -0.02339000000000
C           56.28841899999999        0.02883000000000       -0.01710900000000
C           57.79155300000000        0.01041500000000       -0.02339000000000
C           67.89875400000000        0.02959600000000       -0.01904100000000
C           66.64648300000000        0.01041500000000       -0.02339000000000
C           69.21242200000000        0.02883000000000       -0.01710900000000
C           70.71555499999999        0.01041500000000       -0.02339000000000
C           80.82275600000000        0.02959600000000       -0.01904100000000
C           79.57048600000000        0.01041500000000       -0.02339000000000
C           82.13642500000000        0.02883000000000       -0.01710900000000
C           83.63955799999999        0.01041500000000       -0.02339000000000
Cu          62.08732000000000        0.06106000000000       -0.03861000000000
C           58.72012500000000       -0.01851000000000        0.02422600000000
C           59.37624399999999       -1.19004600000000        0.11292900000000
C           58.73514899999999       -2.49303200000000        0.30092000000000
C           59.67234200000000       -3.42048300000000        0.29351500000000
C           60.97027500000000       -2.76564500000000        0.10209200000000
N           60.79247500000000       -1.35141300000000       -0.00706800000000
C           62.15509800000000       -3.40788800000000        0.03213800000000
C           62.18664900000000       -4.88546100000000        0.10607300000000
C           62.66513499999999       -5.52199900000000        1.25912000000000
C           62.70470400000000       -6.91748000000000        1.32862000000000
C           62.26982500000000       -7.69838500000000        0.24123000000000
N           62.30922500000000       -9.13578100000000        0.30829600000000
O           61.93465399999999       -9.89591600000000       -0.77588200000000
O           62.66472000000000       -9.71645400000000        1.35600700000000
C           61.79616600000000       -7.05235500000000       -0.91570300000000
C           61.75674000000000       -5.65699200000000       -0.98219300000000
C           63.45464900000000       -2.70441100000000       -0.10966500000000
C           64.72720000000000       -3.38692400000000       -0.37587000000000
C           65.67959100000000       -2.47644300000000       -0.38174900000000
N           63.62028000000000       -1.42672600000000        0.03875000000000
C           65.02135800000001       -1.20274900000000       -0.12064500000000
C           65.63624400000000       -0.01851000000000        0.02422600000000
C           64.88637300000001        1.23154100000000        0.27067900000000
C           65.42237900000001        2.34476900000000        0.75412500000000
C           64.38983600000000        3.36328300000000        0.73201200000000
C           63.29429199999999        2.80348800000000        0.23206300000000
N           63.51768400000000        1.42966200000000       -0.08173700000000
C           62.03708400000000        3.53380400000000       -0.06138000000000
C           62.09426400000000        5.00883800000000       -0.21166300000000
C           62.87694600000000        5.58222100000000       -1.22355900000000
C           62.94841000000000        6.97141400000000       -1.35967400000000
C           62.24147499999999        7.81212100000000       -0.48203900000000
N           62.31339600000000        9.24235400000000       -0.62772600000000
O           63.04780599999999        9.80536900000000       -1.64689100000000
O           61.70398400000000        9.99489500000000        0.16137100000000
C           61.46556200000000        7.23251900000000        0.53832500000000
C           61.39587999999999        5.84333000000000        0.67383600000000
C           60.86472799999999        2.88616500000000       -0.20604300000000
C           59.58637499999999        3.49497400000000       -0.55977200000000
C           58.69765199999999        2.52236800000000       -0.53316500000000
C           59.39738400000000        1.28480500000000       -0.17044300000000
N           60.66423399999999        1.48975700000000        0.01870300000000
H           57.67972700000000       -2.69431800000000        0.42703400000000
H           59.48668200000000       -4.47934600000000        0.41824200000000
H           63.00395499999999       -4.93710500000000        2.10508700000000
H           63.07878500000000       -7.38550300000000        2.23131800000000
H           61.45635600000000       -7.62529700000000       -1.76936200000000
H           61.39337600000000       -5.17644600000000       -1.88176600000000
H           64.87905100000000       -4.44618300000000       -0.53769000000000
H           66.73159000000000       -2.66832800000000       -0.54627600000000
H           66.44595900000000        2.48400200000000        1.07536100000000
H           64.50624800000000        4.39679000000000        1.03143800000000
H           63.42879700000000        4.95187200000000       -1.91010100000000
H           63.55770200000000        7.38743200000000       -2.15130300000000
H           60.91355000000000        7.85300200000000        1.23264700000000
H           60.79969699999999        5.41663600000000        1.47095300000000
H           59.38120899999999        4.52839100000000       -0.80760100000000
H           57.64545499999999        2.64002000000000       -0.75469200000000
Cu          75.01132300000000        0.06106000000000       -0.03861000000000
C           71.64412799999999       -0.01851000000000        0.02422600000000
C           72.30024700000000       -1.19004600000000        0.11292900000000
C           71.65915199999999       -2.49303200000000        0.30092000000000
C           72.59634499999999       -3.42048300000000        0.29351500000000
C           73.89427800000000       -2.76564500000000        0.10209200000000
N           73.71647799999998       -1.35141300000000       -0.00706800000000
C           75.07910099999999       -3.40788800000000        0.03213800000000
C           75.11065200000000       -4.88546100000000        0.10607300000000
C           75.58913800000001       -5.52199900000000        1.25912000000000
C           75.62870599999999       -6.91748000000000        1.32862000000000
C           75.19382800000000       -7.69838500000000        0.24123000000000
N           75.23322800000000       -9.13578100000000        0.30829600000000
O           74.85865699999999       -9.89591600000000       -0.77588200000000
O           75.58872200000000       -9.71645400000000        1.35600700000000
C           74.72016900000000       -7.05235500000000       -0.91570300000000
C           74.68074300000001       -5.65699200000000       -0.98219300000000
C           76.37865199999999       -2.70441100000000       -0.10966500000000
C           77.65120300000000       -3.38692400000000       -0.37587000000000
C           78.60359400000000       -2.47644300000000       -0.38174900000000
N           76.54428299999998       -1.42672600000000        0.03875000000000
C           77.94536100000001       -1.20274900000000       -0.12064500000000
C           78.56024599999999       -0.01851000000000        0.02422600000000
C           77.81037499999999        1.23154100000000        0.27067900000000
C           78.34638200000001        2.34476900000000        0.75412500000000
C           77.31383900000000        3.36328300000000        0.73201200000000
C           76.21829500000000        2.80348800000000        0.23206300000000
N           76.44168700000000        1.42966200000000       -0.08173700000000
C           74.96108700000001        3.53380400000000       -0.06138000000000
C           75.01826699999999        5.00883800000000       -0.21166300000000
C           75.80094800000001        5.58222100000000       -1.22355900000000
C           75.87241299999999        6.97141400000000       -1.35967400000000
C           75.16547799999999        7.81212100000000       -0.48203900000000
N           75.23739900000000        9.24235400000000       -0.62772600000000
O           75.97180899999998        9.80536900000000       -1.64689100000000
O           74.62798700000000        9.99489500000000        0.16137100000000
C           74.38956499999999        7.23251900000000        0.53832500000000
C           74.31988300000000        5.84333000000000        0.67383600000000
C           73.78873100000000        2.88616500000000       -0.20604300000000
C           72.51037700000001        3.49497400000000       -0.55977200000000
C           71.62165500000000        2.52236800000000       -0.53316500000000
C           72.32138700000000        1.28480500000000       -0.17044300000000
N           73.58823599999999        1.48975700000000        0.01870300000000
H           70.60372900000000       -2.69431800000000        0.42703400000000
H           72.41068500000000       -4.47934600000000        0.41824200000000
H           75.92795799999999       -4.93710500000000        2.10508700000000
H           76.00278800000000       -7.38550300000000        2.23131800000000
H           74.38035900000000       -7.62529700000000       -1.76936200000000
H           74.31737799999999       -5.17644600000000       -1.88176600000000
H           77.80305300000001       -4.44618300000000       -0.53769000000000
H           79.65559300000000       -2.66832800000000       -0.54627600000000
H           79.36996199999999        2.48400200000000        1.07536100000000
H           77.43025100000000        4.39679000000000        1.03143800000000
H           76.35280000000000        4.95187200000000       -1.91010100000000
H           76.48170399999999        7.38743200000000       -2.15130300000000
H           73.83755300000000        7.85300200000000        1.23264700000000
H           73.72369999999999        5.41663600000000        1.47095300000000
H           72.30521200000000        4.52839100000000       -0.80760100000000
H           70.56945800000000        2.64002000000000       -0.75469200000000
250
 energy: -499.285100568828 gnorm: 1.103180722142 xtb: 6.5.1 (b24c23e)
Cu          48.26043301545531        0.04573642253100       -0.01985641646685
C           44.92147775544559       -0.07181696091973       -0.09648700996241
C           45.58799677690384       -1.23224302449615       -0.24021973042687
C           44.93233206001325       -2.52627366010127       -0.36566654632447
C           45.87731945059353       -3.44327986164720       -0.52077328223943
C           47.17723134602622       -2.76360784995651       -0.51104333605454
N           46.99543355314881       -1.36930706007308       -0.32510827952344
C           48.37806437996169       -3.37586006992133       -0.67450372284563
C           48.41998953466830       -4.83956602217306       -0.90390649358345
C           48.93442667324648       -5.69057228970618        0.08318913888823
C           48.99296827407873       -7.06758334372518       -0.13346552701662
C           48.54008905909463       -7.62103618045170       -1.34689434611789
N           48.59410709496134       -9.04984285251328       -1.57912745333150
O           48.15762602702439       -9.56788810947899       -2.74332228453249
O           49.03280572297991       -9.80178815478479       -0.69743569760464
C           48.03130873434785       -6.76087152447555       -2.33544994042658
C           47.97339080005232       -5.38423321450655       -2.11631172029428
C           49.66153745798299       -2.65107897149410       -0.64621958004241
C           50.94663069933486       -3.24699582605482       -1.02204679957239
C           51.88659236519470       -2.32562195265363       -0.85651245862796
N           49.80959676918393       -1.40707778235603       -0.26776621583955
C           51.20479369810355       -1.13545399332429       -0.37424547093734
C           51.80643346668758        0.02161496950213       -0.01901185551687
C           51.03177321504022        1.18524329854998        0.45053737413585
C           51.56555541505552        2.21402882840924        1.13232648943967
C           50.53105214082085        3.19420279330190        1.31860037417159
C           49.41450493185522        2.71796857776339        0.73736387791260
N           49.65684555429084        1.43441357993148        0.17374398067769
C           48.14442475428149        3.46417438128165        0.64827374100124
C           48.15792748375426        4.93405803030814        0.86054170097254
C           47.49508500821131        5.50468692460612        1.95737786133696
C           47.53193357408782        6.88369446509000        2.16629484208700
C           48.23549308193712        7.72192699996812        1.28446515485941
N           48.26820555876548        9.15312887492760        1.50668062848108
O           47.67350294378716        9.68731744275592        2.59067122648592
O           48.85031036668494        9.89001779063785        0.69851527718514
C           48.90619256192373        7.14407839353695        0.18907697568367
C           48.86937805960670        5.76423603189184       -0.01702841651449
C           46.97567876375620        2.83978969812038        0.38062354683802
C           45.67048428976062        3.47457272013441        0.23852304225260
C           44.80243649885101        2.48964686430520        0.04398126790815
C           45.54921493693735        1.23545039467055        0.04852727985971
N           46.82542873632183        1.43402285835627        0.24417148317418
H           43.83764065722917       -0.10644466238192       -0.09151267173413
H           43.86939407897543       -2.72540815832663       -0.33670798709074
H           45.68761795313416       -4.50197471532262       -0.63228467064098
H           49.28833886211146       -5.28202813856773        1.02379245830400
H           49.39373828305943       -7.70229039330046        0.64700985625295
H           47.67893714762282       -7.15567621306182       -3.28055070183823
H           47.58204643541024       -4.73646464470787       -2.89324680519370
H           51.12297882438978       -4.25177579595501       -1.37554698926848
H           52.94116511520652       -2.46648441564662       -1.04993875139522
H           52.59181747677737        2.29670009454155        1.45592533916187
H           50.63246043854181        4.15020023182213        1.81168964221702
H           46.95384132151541        4.87454324098365        2.65510623264129
H           47.00999620496069        7.29785967150658        3.02033541509286
H           49.46481120988313        7.76116319319306       -0.50358798184082
H           49.39642363103781        5.33682423794893       -0.86353285548177
H           45.42514307774117        4.52694449799110        0.27839300869481
H           43.73881507405553        2.61108771430826       -0.09557632434198
Cu          89.01160287899835       -0.00994528209360       -0.03068588925139
C           92.35055651324049        0.12776314825675       -0.05765181632844
C           91.68404053963643        1.25744099869072        0.24421848775250
C           92.33970629677475        2.50407121200914        0.61312082132665
C           91.39469548994369        3.41234332681383        0.81318350267396
C           90.09483812126570        2.77860010011785        0.56735433259186
N           90.27660177896297        1.41632903990201        0.21690390727088
C           88.89389731845780        3.40747573284114        0.64537055315133
C           88.85204269740123        4.85042593787625        0.98154487754022
C           88.33761059549899        5.26921155271383        2.21571688868931
C           88.27906618029391        6.62700242960259        2.53118945026697
C           88.73194343084261        7.59505117251430        1.61381178124612
N           88.67791943251237        9.00672342508146        1.93426167399572
O           89.11440519083905        9.92345847217560        1.04928098810988
O           88.23923585528514        9.37318124170986        3.03357378986115
C           89.24072256156664        7.16832125294075        0.37485785277097
C           89.29864068160816        5.80994552262696        0.06182307717794
C           87.61052915656384        2.72511308574603        0.39986157201943
C           86.32546710962239        3.41837526305490        0.27490752755222
C           85.38546725914678        2.50208494344487        0.08284102031696
N           87.46223967996896        1.42967727030456        0.28417139412901
C           86.06750475319107        1.21843164375723        0.08371652231635
C           85.46347776353579        0.01188337027004       -0.02090510586318
C           86.24036300127642       -1.24295694852650       -0.02188273088517
C           85.70650327042323       -2.45202902627152        0.22442459263452
C           86.74102347438141       -3.43058252387685        0.02954768999154
C           87.85752196828579       -2.77117665794264       -0.33069041510613
N           87.61512000099607       -1.36985045694720       -0.37188264252761
C           89.12760605865540       -3.42949945104234       -0.69307687938092
C           89.11410646852489       -4.87173342041821       -1.04744507854672
C           89.77694762145921       -5.81199511974758       -0.24459370766247
C           89.74009731989220       -7.16873053073075       -0.56799157989942
C           89.03653915781285       -7.61514981446728       -1.69978292828030
N           89.00381883424190       -9.02528541385456       -2.03042236502054
O           89.59852539903548       -9.92691075308861       -1.22583829240066
O           88.42173699662095       -9.40535144865117       -3.05591654060757
C           88.36584070805841       -6.66874170200174       -2.49858496361442
C           88.40265463113415       -5.31228628713936       -2.17227103991712
C           90.29635681649322       -2.75031041933926       -0.70708779326596
C           91.60154722910346       -3.28549575602569       -1.07683662208370
C           92.46959702251264       -2.29948368714230       -0.88787690963598
C           91.72281656649109       -1.13850164382127       -0.41339385398863
N           90.44660526142813       -1.39594015504192       -0.30646163357366
H           93.43439218839022        0.15800525757380       -0.04005740632139
H           93.40263867037108        2.67782955322710        0.71464027500905
H           91.58441359966355        4.43560961694017        1.10676643320718
H           87.98369231007149        4.53779208727651        2.93450743587265
H           87.87829308617570        6.92275244805005        3.49271267208933
H           89.59309414788487        7.88869265203706       -0.35325706275645
H           89.68998544834415        5.50076001326084       -0.90131414528187
H           86.14905324621110        4.48235681285994        0.32391576568324
H           84.33085476971191        2.70519629834097       -0.04364064782663
H           84.68020074775143       -2.65001325023848        0.49339671114730
H           86.63957253016811       -4.50170180408144        0.12822375062593
H           90.31819115879821       -5.48944657208564        0.63850730407456
H           90.26203622057326       -7.87290724724299        0.06844653434707
H           87.80722075888140       -6.98108156611446       -3.37209651493393
H           87.87560782764650       -4.59865547539357       -2.79675246809713
H           91.84688877503010       -4.27603848553493       -1.43446918552474
H           93.53321720664518       -2.35973674067926       -1.06278756864552
C           54.97005145577083        0.02968733416245       -0.01917525089396
C           53.71004863699066        0.01125200176294       -0.02315995198658
C           56.29071880398669        0.02886335173446       -0.01721250735128
C           57.62845346808220        0.01777430789479       -0.02934263277614
C           67.92992082387177        0.03057928412976       -0.01970961512639
C           66.73212497633888        0.01691628493581       -0.02694357496708
C           69.21337049110343        0.02890117480755       -0.01735050661561
C           70.55427890951334        0.01763923668329       -0.02908275761794
C           80.85304358714522        0.03047452006644       -0.01947471310295
C           79.65898554271899        0.01691448157798       -0.02684090381523
C           82.16821916406882        0.02830024915969       -0.01739701814966
C           83.62591535209788        0.01008345057317       -0.02332831690850