197
 energy: -367.141572883008 gnorm: 1.609760021845 xtb: 6.5.1 (b24c23e)
Zn          32.88355900000000        0.01453900000000        0.00021800000000
C           29.46553400000000       -0.09247600000000        0.08943800000000
C           30.13082600000000       -0.19407000000000        1.24357100000000
C           29.48296400000000       -0.33659900000000        2.54215600000000
C           30.42508900000000       -0.35761400000000        3.46660000000000
C           31.72812700000000       -0.22736400000000        2.80077600000000
N           31.54864800000000       -0.12870100000000        1.38770900000000
C           32.91728400000000       -0.15643300000000        3.43190200000000
C           34.20876900000000        0.00323700000000        2.71431900000000
C           35.49549500000000        0.22005900000000        3.38682500000000
C           36.42998100000000        0.27767200000000        2.46005100000000
N           34.35130500000000       -0.07529100000000        1.42652100000000
C           35.74842900000000        0.09056300000000        1.18492300000000
C           36.34475600000000        0.01009300000000       -0.01599200000000
C           35.58701700000000       -0.19995800000000       -1.27070600000000
C           36.13012400000000       -0.61256500000000       -2.40916800000000
C           35.08632699999999       -0.60085100000000       -3.41474800000000
C           33.97415400000000       -0.17772700000000       -2.82534600000000
C           32.68615800000000        0.04526500000000       -3.53151400000000
C           32.70394400000000        0.18120700000000       -5.00850300000000
C           32.06080100000000       -0.76580700000000       -5.81950200000000
C           32.09626100000000       -0.64338700000000       -7.21131300000000
C           32.78257900000000        0.42522900000000       -7.81581500000000
C           32.82363000000000        0.55927300000000       -9.28865100000000
O           33.50762800000000        1.61939400000000       -9.87824200000000
O           32.24050600000000       -0.28349000000000      -10.02323600000000
C           33.43372400000000        1.36605700000000       -6.99927800000000
C           33.39674200000000        1.24279200000000       -5.60747100000000
C           31.51963900000000        0.12851600000000       -2.86338000000000
C           30.20400500000000        0.38074300000000       -3.44901300000000
C           29.34256200000000        0.33154200000000       -2.45161900000000
C           30.09874000000000        0.06167800000000       -1.23001100000000
N           31.36872100000000       -0.05801600000000       -1.45758500000000
N           34.19980500000000        0.09422700000000       -1.44075100000000
C           32.95703300000000       -0.22811200000000        4.90773800000000
C           32.89281000000000       -1.46908500000000        5.55479000000000
C           32.93212600000000       -1.53755700000000        6.95030800000000
C           33.03749300000000       -0.36386400000000        7.71906700000000
C           33.08003300000000       -0.43063300000000        9.19641100000000
O           33.18321800000000        0.73643300000000        9.94911500000000
O           33.02345700000000       -1.54297500000000        9.78744000000000
C           33.10233700000000        0.87791100000000        7.06267000000000
C           33.06230100000000        0.94455100000000        5.66705000000000
H           28.38228700000000       -0.11110200000000        0.11761600000000
H           28.41952400000000       -0.40482800000000        2.73237300000000
H           30.24098000000000       -0.44441200000000        4.52967600000000
H           35.67048999999999        0.31290700000000        4.45050000000000
H           37.48632100000000        0.42288800000000        2.64298800000000
H           37.16353300000000       -0.88766200000000       -2.57203400000000
H           35.20317800000000       -0.86672300000000       -4.45738800000000
H           31.53503000000000       -1.60080600000000       -5.37268600000000
H           31.58895900000000       -1.38687500000000       -7.81329300000000
H           33.54187100000000        1.72055300000000      -10.88564000000000
H           33.97314900000000        2.19781000000000       -7.43452300000000
H           33.90583500000000        1.97709300000000       -4.99506300000000
H           29.95701600000000        0.57474700000000       -4.48445200000000
H           28.27328200000000        0.47465400000000       -2.53591300000000
H           32.81212300000000       -2.38213900000000        4.97763700000000
H           32.88040700000000       -2.50866000000000        7.42651000000000
H           33.21314200000000        0.70197500000000       10.96113500000000
H           33.18413900000000        1.79872500000000        7.62624500000000
H           33.11361800000000        1.90921800000000        5.17706000000000
Zn          65.97658600000000        0.01637800000000       -0.03158100000000
C           69.39461100000000       -0.07963500000000       -0.13254600000000
C           68.72931899999999       -0.04746600000000       -1.29069500000000
C           69.37718099999999       -0.03930200000000       -2.59705200000000
C           68.43505599999999        0.04642200000000       -3.51775300000000
C           67.13201700000000        0.09902600000000       -2.84135200000000
N           67.31149600000001        0.03408800000000       -1.42633400000000
C           65.94286099999999        0.24225900000000       -3.46008900000000
C           64.65137600000000        0.31811900000000       -2.72888000000000
C           63.36465000000000        0.61104200000000       -3.37189800000000
C           62.43016400000000        0.56140300000000       -2.44466300000000
N           64.50883899999999        0.09161700000000       -1.45872800000000
C           63.11171599999999        0.22850600000000       -1.19961700000000
C           62.51538900000000        0.01009300000000       -0.01599200000000
C           63.27312799999999       -0.34324000000000        1.20613100000000
C           62.73002099999999       -0.88437200000000        2.28942000000000
C           63.77381799999999       -0.98869100000000        3.28964400000000
C           64.88599100000000       -0.50042500000000        2.75296400000000
C           66.17398700000000       -0.36034900000000        3.48013500000000
C           66.15620100000000       -0.39562800000000        4.96294700000000
C           66.79934400000000       -1.42984300000000        5.65933500000000
C           66.76388400000000       -1.46873100000000        7.05597800000000
C           66.07756600000000       -0.47695000000000        7.77967100000000
C           66.03651499999999       -0.51363500000000        9.25814000000000
O           65.35251700000001        0.47142800000000        9.96604200000000
O           66.61963900000001       -1.43548200000000        9.89064400000000
C           65.42642100000000        0.55175800000000        7.07706900000000
C           65.46340300000000        0.58980700000000        5.68033300000000
C           67.34050600000000       -0.20061100000000        2.82605800000000
C           68.65613999999999       -0.01759700000000        3.43686900000000
C           69.51758300000000        0.04854200000000        2.44045500000000
C           68.76140500000000       -0.07865700000000        1.19587700000000
N           67.49142399999999       -0.22379400000000        1.40813100000000
N           64.66033899999999       -0.07062600000000        1.40896400000000
C           65.90311199999999        0.34124000000000       -4.93434500000000
C           65.96733500000001       -0.81684300000000       -5.72018000000000
C           65.92801900000001       -0.72393800000000       -7.11428400000000
C           65.82265200000001        0.53057200000000       -7.74257500000000
C           65.78011200000000        0.63460300000000       -9.21776300000000
O           65.67692700000001        1.88068000000000       -9.83087000000000
O           65.83668800000000       -0.40216600000000       -9.93311600000000
C           65.75780800000000        1.68837300000000       -6.94736500000000
C           65.79784400000000        1.59363800000000       -5.55337100000000
H           70.47785700000000       -0.09488700000000       -0.16268300000000
H           70.44062099999999       -0.08514200000000       -2.79386900000000
H           68.61916500000000        0.08278800000000       -4.58374700000000
H           63.18965499999999        0.82592500000000       -4.41777200000000
H           61.37382400000000        0.72674500000000       -2.60963400000000
H           61.69661200000000       -1.17641400000000        2.41947900000000
H           63.65696700000000       -1.37301900000000        4.29467100000000
H           67.32511500000000       -2.20774900000000        5.11921400000000
H           67.27118600000000       -2.27667500000000        7.56821000000000
H           65.31827400000000        0.45574800000000       10.97838400000000
H           64.88699500000000        1.32777400000000        7.60532200000000
H           64.95431000000001        1.38982800000000        5.15668400000000
H           68.90312800000000        0.05571600000000        4.48777200000000
H           70.58686299999999        0.18097900000000        2.54068900000000
H           66.04802200000000       -1.79035900000000       -5.25216200000000
H           65.97973700000000       -1.63365200000000       -7.69928800000000
H           65.64700300000000        1.96314900000000      -10.84011200000000
H           65.67600600000000        2.66803200000000       -7.40100000000000
H           65.74652700000000        2.49536800000000       -4.95541200000000
C           42.27857600000000        0.01140500000000       -0.00756000000000
C           41.06963600000000       -0.00205000000000       -0.01600700000000
C           39.64810700000000        0.00676900000000       -0.02799000000000
C           38.43643800000000        0.01420800000000       -0.01712700000000
C           43.69517999999999        0.00473000000000       -0.00702600000000
C           44.91587600000000        0.01420800000000       -0.01712700000000
C           57.78941000000000        0.01140500000000       -0.00756000000000
C           56.58046999999999       -0.00205000000000       -0.01600700000000
C           55.15894100000000        0.00676900000000       -0.02799000000000
C           53.94727199999999        0.01420800000000       -0.01712700000000
C           59.20601400000000        0.00473000000000       -0.00702600000000
C           60.42671000000000        0.01420800000000       -0.01712700000000
Zn          49.41744099999999        0.00690400000000       -0.03420900000000
C           45.96498900000000       -0.02331200000000        0.03587700000000
C           46.62008500000000       -1.19900200000000        0.02728800000000
C           45.97945099999999       -2.51118100000000       -0.07997800000000
C           46.91662699999999       -3.43657600000000       -0.02298600000000
C           48.21359500000000       -2.77183100000000        0.13312700000000
N           48.03525800000000       -1.35333400000000        0.15638800000000
C           49.39865400000000       -3.40734000000000        0.25213700000000
C           50.69305800000000       -2.68963300000000        0.37178900000000
C           51.95729699999999       -3.33776400000000        0.74756600000000
C           52.90995599999999       -2.42739300000000        0.69410300000000
N           50.86336000000000       -1.43226300000000        0.10348900000000
C           52.25946400000000       -1.18863000000000        0.28586400000000
C           52.87714100000000       -0.02331200000000        0.03587700000000
C           52.12745499999999        1.18985500000000       -0.35036600000000
C           52.66061300000000        2.24197700000000       -0.95882000000000
C           51.62735800000000        3.25794900000000       -1.04134700000000
C           50.53553500000000        2.75633300000000       -0.47412100000000
C           49.28193100000000        3.51413200000000       -0.24783100000000
C           49.33936600000000        4.99582400000000       -0.25532000000000
C           50.11485000000000        5.67376700000000        0.69434200000000
C           50.18958799999999        7.06887600000000        0.67621700000000
C           49.49684400000000        7.80881400000000       -0.29971900000000
C           49.56867600000000        9.28575900000000       -0.32038800000000
O           48.93628200000000       10.00748300000000       -1.33307500000000
O           50.19498600000000        9.90519100000000        0.58212700000000
C           48.73185300000000        7.12413800000000       -1.25884800000000
C           48.65553700000000        5.72896700000000       -1.23740200000000
C           48.11275700000000        2.88549500000000       -0.02254500000000
C           46.83862100000000        3.52786600000000        0.28271700000000
C           45.94924399999999        2.55866500000000        0.36140600000000
C           46.64474800000000        1.29057000000000        0.11275200000000
N           47.90967400000000        1.47472600000000       -0.10869000000000
N           50.76127800000000        1.42594800000000       -0.01159000000000
C           49.44016599999999       -4.88775100000000        0.25812900000000
C           48.92770399999999       -5.61031900000000        1.34706800000000
C           48.98784700000000       -7.00705500000000        1.35682800000000
C           49.56650200000000       -7.70321600000000        0.27904700000000
C           49.63608199999999       -9.18142400000000        0.28541700000000
O           50.20660700000000       -9.86148200000000       -0.78749600000000
O           49.18112500000000       -9.83879600000000        1.26015000000000
C           50.08299300000000       -6.97334600000000       -0.80716500000000
C           50.02207500000000       -5.57695500000000       -0.81568400000000
H           44.92477300000000       -2.71948300000000       -0.19664600000000
H           46.73108100000000       -4.50072100000000       -0.08996900000000
H           52.10387399999999       -4.37440000000000        1.02153300000000
H           53.95667800000000       -2.59691700000000        0.91505900000000
H           53.68266200000000        2.34333400000000       -1.29895600000000
H           51.74150500000000        4.25380000000000       -1.45036700000000
H           50.65738200000000        5.12091200000000        1.45145800000000
H           50.79223400000000        7.56718700000000        1.42333600000000
H           48.97800000000000       11.01902200000000       -1.35537000000000
H           48.18991500000000        7.66533300000000       -2.02636200000000
H           48.06762800000000        5.21826100000000       -1.99058600000000
H           46.63690200000000        4.58120700000000        0.42861800000000
H           44.89913299999999        2.69993900000000        0.58068000000000
H           48.48349199999999       -5.09091700000000        2.18852700000000
H           48.58391699999999       -7.54130900000000        2.20875300000000
H           50.25858900000000      -10.87361400000000       -0.79303800000000
H           50.53640200000000       -7.47997300000000       -1.65088800000000
H           50.42685200000000       -5.03141900000000       -1.66038400000000
197
 energy: -367.584177104621 gnorm: 0.451697293614 xtb: 6.5.1 (b24c23e)
Zn          32.88266143023355        0.01328646275248       -0.00069452757555
C           29.46640284571443       -0.09096555368568        0.07622802919095
C           30.13649533213305       -0.19378435425997        1.24554107763859
C           29.48188395850269       -0.33624143615197        2.53741491570467
C           30.43183964289811       -0.35735553421636        3.46877842005185
C           31.72583355171620       -0.22734697791789        2.79501828988533
N           31.53370413358352       -0.13116476748874        1.40315594704819
C           32.92972646243810       -0.15515755140208        3.42812999733768
C           34.20413079717401        0.00281329614821        2.72746448158813
C           35.48656742319446        0.21899258042151        3.39477328174389
C           36.43109468046703        0.27712304145753        2.45550646812115
N           34.36372944250868       -0.07184652322103        1.42426058001489
C           35.75917613182569        0.09096871193900        1.18326070032963
C           36.36420133449325        0.00642293042009       -0.02592050507565
C           35.58902605329591       -0.19204377652006       -1.25834297504586
C           36.13227034027945       -0.61596818882933       -2.42757635809017
C           35.10396761978339       -0.60363388782078       -3.41622743630954
C           33.96541145577761       -0.17031420670156       -2.81580435226244
C           32.69610784160590        0.04470485994582       -3.52554942803382
C           32.70809659001934        0.17931710865826       -5.00764729402621
C           32.06197157216818       -0.76236082248201       -5.82241932237748
C           32.09831058871139       -0.63992367278581       -7.21084330256331
C           32.78526109422646        0.42942185226107       -7.81857402578427
C           32.81967730031604        0.55386506884668       -9.30419570219791
O           33.50367214974572        1.61321508439513       -9.87223219052320
O           32.24865910764910       -0.27146015978406      -10.01613976225460
C           33.43282625686886        1.36509995203964       -6.99719407723409
C           33.39639113401803        1.24077175947379       -5.61014502013053
C           31.51760383167011        0.12866632299266       -2.86227031078497
C           30.20941404589075        0.37991127263459       -3.44992852045298
C           29.33549559250171        0.33082183089154       -2.44353452549642
C           30.08471634706313        0.06086161263427       -1.22309907236461
N           31.36879611368940       -0.05446800226479       -1.46664172820386
N           34.20867032729624        0.09021527551430       -1.44495953376583
C           32.95953061213425       -0.22782608362760        4.90971877886061
C           32.89279219357115       -1.46627690260574        5.55914063060288
C           32.93223265895147       -1.53362807547979        6.95089010202332
C           33.03791013000981       -0.35932114727299        7.72246726889081
C           33.07995402661879       -0.43937709127221        9.21087021548672
O           33.18254405359731        0.73003410612432        9.94220174208341
O           33.02429659499582       -1.52763613537934        9.78237497369712
C           33.10217132482139        0.87696391409757        7.06098043179659
C           33.06287361454905        0.94230738315304        5.67022554813203
H           28.38271112191596       -0.11052699286931        0.11478029378224
H           28.41955982631752       -0.40460407506867        2.72799491084319
H           30.24627656399179       -0.44428448915763        4.53016671190119
H           35.66616257284240        0.31254971594556        4.45308351251704
H           37.48611355836648        0.42260291630124        2.63805818370700
H           37.16403705335651       -0.88879032444878       -2.57528397026402
H           35.20600456581277       -0.86785559639909       -4.45730656197965
H           31.53594884556523       -1.59951483453210       -5.37322770604057
H           31.59008477371579       -1.38523498710998       -7.81442485394354
H           33.53598671563822        1.71082824222910      -10.86888393225742
H           33.97261396962919        2.19713293605140       -7.43513039017834
H           33.90525721291917        1.97611335179115       -4.99533194412341
H           29.96196419277328        0.57415958733646       -4.48435876568047
H           28.27118657569351        0.47428496253047       -2.53229639482676
H           32.81233632778945       -2.38060129282246        4.97851842139345
H           32.88061244540221       -2.50691283562786        7.42808157623533
H           33.21196820903422        0.69300999845577       10.94301996961827
H           33.18403174919167        1.79785173622012        7.62693447636769
H           33.11354482485073        1.90797889412770        5.17730450140645
Zn          65.97754817475176        0.01504499682066       -0.03079930448685
C           69.39373114495513       -0.07965860419452       -0.11927466261327
C           68.72367519526378       -0.04695411860134       -1.29261452367387
C           69.37826394598784       -0.03949271372509       -2.59230680379836
C           68.42831039563740        0.04692679133618       -3.51988056730289
C           67.13432548106837        0.09837837617258       -2.83558619658402
N           67.32640555556590        0.03341620464657       -1.44198297153996
C           65.93035297598790        0.24310085467395       -3.45617834670900
C           64.65606460528954        0.31921702856211       -2.74201148994824
C           63.37356376975838        0.61089103655674       -3.37993216378718
C           62.42903872399964        0.56035930361693       -2.44027752759154
N           64.49637920761938        0.09474623197286       -1.45602735839113
C           63.10095489430292        0.22872728110134       -1.19802207881847
C           62.49624027838045        0.00525405347679       -0.00668167242499
C           63.27100619192331       -0.33398477854904        1.19480868851134
C           62.72784037534739       -0.88991089714105        2.30735539229165
C           63.75617252100065       -0.99162181972497        3.29078267044915
C           64.89471034782790       -0.49196219159763        2.74430827973955
C           66.16405764368152       -0.36021854085538        3.47414399291588
C           66.15204059864402       -0.39740753822782        4.96190550414035
C           66.79817594728055       -1.42675833592471        5.66262030722942
C           66.76182635077357       -1.46522773014169        7.05591880541358
C           66.07488278375345       -0.47310068819019        7.78287302723939
C           66.04045420197521       -0.52078869864504        9.27303295264007
O           65.35649862392505        0.46595356771142        9.95933008665281
O           66.61148640194604       -1.42270553394317        9.88493904234966
C           65.42732642781296        0.55104106205274        7.07489853121474
C           65.46374803037411        0.58749436704800        5.68274634222332
C           67.34252529719248       -0.20032544993202        2.82497649066097
C           68.65074242859632       -0.01853041439207        3.43768040380742
C           69.52464320132441        0.04875865020001        2.43235883033433
C           68.77540868650703       -0.07867130901158        1.18893496244144
N           67.49134236673709       -0.22131940616890        1.41751107869009
N           64.65142920208370       -0.07505099705733        1.41264509899080
C           65.90060149810945        0.34175781413444       -4.93629585228417
C           65.96735057317962       -0.81355363990010       -5.72417184639183
C           65.92791211561638       -0.71996170414624       -7.11441294778560
C           65.82223504093473        0.53547803368569       -7.74541802535567
C           65.78020014755757        0.62759916769505       -9.23317201972629
O           65.67759412104471        1.87350224052159       -9.82472648532772
O           65.83583648178393       -0.38751562585756       -9.92629307838388
C           65.75797537388756        1.68723330443291       -6.94580123704618
C           65.79727187610527        1.59177902478618       -5.55677818121573
H           70.47742473857220       -0.09464362741662       -0.15980336840826
H           70.44058037934417       -0.08542370213055       -2.78949494150498
H           68.61386428430498        0.08297175560182       -4.58421245113322
H           63.19397477871730        0.82586874154205       -4.42037781569129
H           61.37402348396118        0.72590249668705       -2.60478256016930
H           61.69609241636929       -1.17791798540651        2.42259800536597
H           63.65413970722562       -1.37412922162932        4.29444433660202
H           67.32419597818644       -2.20653248837363        5.11989741657776
H           67.27005902720080       -2.27517329330066        7.56952301912679
H           65.32414697498464        0.44802998639994       10.96062104338330
H           64.88753215574968        1.32702761501482        7.60584557823426
H           64.95488963273645        1.38882854696869        5.15683697360755
H           68.89817878740884        0.05514253950835        4.48760475706082
H           70.58894949671317        0.18102990147404        2.53705310274645
H           66.04780948332082       -1.78873219507836       -5.25285844158707
H           65.97953365926512       -1.63173384810163       -7.70064720968911
H           65.64818244954341        1.95216386997526      -10.82315263048936
H           65.67611398868270        2.66724136750010       -7.40178441048963
H           65.74660134475859        2.49416619892327       -4.95579662600381
C           42.27047850812744        0.01135423075418       -0.00789325556378
C           41.04801501906698       -0.00174646672068       -0.01603330660462
C           39.63806381575591        0.00672248713800       -0.02765222709604
C           38.40508912293713        0.01386728315724       -0.01897096355250
C           43.62312937990789        0.00635797578655       -0.00852673489640
C           44.80008347636151        0.02304066338139       -0.02221231107269
C           57.81045080123251        0.01120003933300       -0.00794512017052
C           56.58705352355605       -0.00143529539673       -0.01676714477678
C           55.22836415164803        0.00777951761569       -0.02890179347836
C           54.04628075104966        0.02714885189674       -0.01974743469175
C           59.21883248321943        0.00498235824139       -0.00693476400872
C           60.45448100249924        0.01371530568523       -0.01498878298745
Zn          49.41680986224456        0.00737746922763       -0.03316140712179
C           46.06749591086752       -0.01453726206656        0.04123731377261
C           46.66016650300395       -1.21854134060940        0.02766335274420
C           45.98051089819140       -2.50288718909316       -0.07975888589302
C           46.92496137256997       -3.44007694948019       -0.02210434787556
C           48.21201382829221       -2.77009577883342        0.13286576336440
N           48.03047896994453       -1.37430406237578        0.15451974331591
C           49.41085422195355       -3.40710241350134        0.25390831057737
C           50.68629133595783       -2.70946779366919        0.37225407628225
C           51.94637566494467       -3.34767623904507        0.74694095685479
C           52.90691773874822       -2.42091286551683        0.69208324021597
N           50.86470292104369       -1.43667745351028        0.10811904221176
C           52.22646485487800       -1.20654969143730        0.29203850079508
C           52.78039490340132       -0.01681324652566        0.03427702329255
C           52.09602459023208        1.19186327748343       -0.34632829767085
C           52.65915868980090        2.25920685530771       -0.96354602292003
C           51.64406000785178        3.26045926491302       -1.04474152688444
C           50.52607700107475        2.75243209294856       -0.46569255675768
C           49.29177972088073        3.51005585200364       -0.24835902882664
C           49.34309603779221        4.99525907445362       -0.25783413890670
C           50.11403659797319        5.67758299661537        0.69162784406870
C           50.18691439724222        7.06913641945243        0.67310319456418
C           49.49457687570516        7.81209544275597       -0.30386555937849
C           49.57360400796356        9.30074826709030       -0.31364448510477
O           48.93998786455711       10.00046256631560       -1.32695634964556
O           50.18650635866375        9.89988352870892        0.56912878351945
C           48.73211638192588        7.12186943629463       -1.25793952424862
C           48.65636395771752        5.73099086918040       -1.23506349848353
C           48.11175973388566        2.88778592130314       -0.02264468249655
C           46.84448912480575        3.52909300612565        0.28131070718974
C           45.94368944523788        2.54861051234446        0.36141234502615
C           46.65705138766756        1.29640270054441        0.11586386010041
N           47.91978964449772        1.49027464442668       -0.10698671044556
N           50.75938550027103        1.43512237156756       -0.01731061995679
C           49.44291445418839       -4.88963784802684        0.25950451496926
C           48.92838803960299       -5.61446821598674        1.34394395597529
C           48.98949991525301       -7.00724384106430        1.35310015792237
C           49.56877670362835       -7.70635568465508        0.27479018094041
C           49.63322253795386       -9.19626445413665        0.29266917693500
O           50.20330327044763       -9.85504255616424       -0.78156033247313
O           49.18752223240510       -9.83275599053563        1.24669069459308
C           50.08229595676359       -6.97158353528819       -0.80617870283472
C           50.02196153138809       -5.58005737093324       -0.81322925586316
H           44.92488630176782       -2.71226497783282       -0.19623688155625
H           46.73601106725495       -4.50141702683773       -0.08932385295355
H           52.09984078890217       -4.37732563036617        1.02149351929551
H           53.95481862061864       -2.59035265283895        0.91339889922269
H           53.68187387472737        2.34476458415208       -1.30005059440383
H           51.74456160817696        4.25373036429501       -1.45202862090805