183
 energy: -363.175632527105 gnorm: 1.008984763034 xtb: 6.5.1 (b24c23e)
Ni          34.48830800000000        0.04122500000000       -0.01392900000000
C           31.15156200000000       -0.08377200000000       -0.09162500000000
C           31.81475900000000       -1.23510600000000       -0.23434400000000
C           31.16405200000000       -2.53363700000000       -0.36037700000000
C           32.10454100000000       -3.44674400000000       -0.51480800000000
C           33.40995900000000       -2.77211200000000       -0.50597900000000
N           33.23295200000000       -1.36734600000000       -0.31862100000000
C           34.60242700000000       -3.38217100000000       -0.66859200000000
C           34.64981100000000       -4.84406500000000       -0.89784600000000
C           35.16511100000000       -5.69350400000000        0.09025300000000
C           35.22387200000000       -7.07258700000000       -0.12719000000000
C           34.77108400000000       -7.62474800000000       -1.33993000000000
N           34.82694899999999       -9.04493800000000       -1.56657100000000
O           34.38249900000000       -9.58222300000000       -2.75346800000000
O           35.26658499999999       -9.81317800000000       -0.68545800000000
C           34.26184100000000       -6.76620100000000       -2.33026500000000
C           34.20380500000000       -5.38700800000000       -2.11153300000000
C           35.89543999999999       -2.64898100000000       -0.63947900000000
C           37.18202100000000       -3.24807200000000       -1.01603900000000
C           38.11636399999999       -2.33355700000000       -0.85181800000000
N           36.03619000000000       -1.41503800000000       -0.26187200000000
C           37.43338100000000       -1.13966300000000       -0.36818600000000
C           38.02680000000000        0.01236000000000       -0.01583900000000
C           37.26350600000000        1.18729800000000        0.46185200000000
C           37.79593600000000        2.20017200000000        1.13385700000000
C           36.75234600000000        3.18918700000000        1.32198600000000
C           35.65186200000000        2.71673000000000        0.74783400000000
N           35.88476600000000        1.42781300000000        0.17693300000000
C           34.36992300000000        3.46190000000000        0.65378300000000
C           34.38741799999999        4.92959700000000        0.86562900000000
C           33.72527500000000        5.49810000000000        1.96388800000000
C           33.76236700000000        6.87945300000000        2.17238400000000
C           34.46672699999999        7.71605200000000        1.28894400000000
N           34.50149700000000        9.13854100000000        1.50561600000000
O           33.89639300000000        9.69225200000000        2.61109900000000
O           35.08522000000000        9.89170600000000        0.69840400000000
C           35.13728900000000        7.13957100000000        0.19415600000000
C           35.10033400000000        5.75768200000000       -0.01270800000000
C           33.20780200000000        2.83578000000000        0.38658700000000
C           31.89763900000000        3.46869600000000        0.24354200000000
C           31.03618500000000        2.48915200000000        0.05037300000000
C           31.78759700000000        1.23501800000000        0.05501900000000
N           33.05411200000000        1.42477000000000        0.24934600000000
H           30.06807999999999       -0.11195200000000       -0.08577800000000
H           30.09990800000000       -2.73151300000000       -0.33123400000000
H           31.91667000000000       -4.50673200000000       -0.62654100000000
H           35.51906799999999       -5.28670300000000        1.02975800000000
H           35.62443800000000       -7.70654700000000        0.65290300000000
H           33.90939600000000       -7.15987900000000       -3.27501100000000
H           33.81250800000000       -4.74111300000000       -2.88787000000000
H           37.35488600000000       -4.25615500000000       -1.36996600000000
H           39.17195700000000       -2.47282200000000       -1.04479500000000
H           38.82253800000000        2.29142400000000        1.46127800000000
H           36.86250100000000        4.14569400000000        1.81714100000000
H           33.18424400000000        4.86958800000000        2.66099500000000
H           33.24042500000000        7.29248800000000        3.02605900000000
H           35.69555799999999        7.75584300000000       -0.49815400000000
H           35.62722100000000        5.33189500000000       -0.85818000000000
H           31.65426900000000        4.52226100000000        0.28387700000000
H           29.96965900000000        2.60742400000000       -0.08981100000000
Ni          57.02899500000000       -0.01511500000000       -0.02489200000000
C           60.36574100000000        0.12989600000000       -0.05005000000000
C           59.70254400000000        1.25074300000000        0.24934600000000
C           60.35325099999999        2.50179300000000        0.61940400000000
C           59.41276200000000        3.40618600000000        0.81861800000000
C           58.10734400000000        2.77746400000000        0.57384300000000
N           58.28435100000000        1.40493600000000        0.22080200000000
C           56.91487600000000        3.40398700000000        0.65184100000000
C           56.86749199999999        4.84518400000000        0.98746300000000
C           56.35219200000000        5.26215300000000        2.22197700000000
C           56.29343100000000        6.62215200000000        2.53749700000000
C           56.74621900000000        7.58875600000000        1.62027500000000
N           56.69035400000000        8.99031200000000        1.94268300000000
O           57.13480400000000        9.93343500000000        1.04383900000000
O           56.25071799999999        9.37212000000000        3.04756900000000
C           57.25546199999999        7.16418200000000        0.38027400000000
C           57.31349800000000        5.80359700000000        0.06590600000000
C           55.62186300000000        2.71337300000000        0.40391400000000
C           54.33528299999999        3.40995000000000        0.27946200000000
C           53.40093899999999        2.50058000000000        0.08879600000000
N           55.48111300000000        1.42787000000000        0.29129400000000
C           54.08392200000000        1.21244900000000        0.08948300000000
C           53.49050299999999        0.01236000000000       -0.01583900000000
C           54.25379700000000       -1.25597100000000       -0.01355300000000
C           53.72136700000000       -2.44692100000000        0.22963700000000
C           54.76495700000000       -3.43432000000000        0.03320100000000
C           55.86544100000000       -2.78104900000000       -0.32191000000000
N           55.63253699999999       -1.37210500000000       -0.36786800000000
C           57.14738000000000       -3.43658700000000       -0.68850700000000
C           57.12988500000000       -4.87663700000000       -1.04244300000000
C           57.79202800000000       -5.81546400000000       -0.23747700000000
C           57.75493600000000       -7.17421300000000       -0.56214300000000
C           57.05057600000000       -7.61852100000000       -1.69481800000000
N           57.01580599999999       -9.01847100000000       -2.02732900000000
O           57.62090999999999       -9.94629400000000       -1.21012000000000
O           56.43208300000000       -9.41401500000000       -3.05805400000000
C           56.38001400000000       -6.67359900000000       -2.49357600000000
C           56.41696900000000       -5.31496500000000       -2.16719500000000
C           58.30950100000000       -2.75596000000000       -0.70144000000000
C           59.61966400000000       -3.28906400000000       -1.07136600000000
C           60.48111800000000       -2.30855600000000       -0.88315300000000
C           59.72970600000000       -1.14766300000000       -0.40859700000000
N           58.46319099999999       -1.39643600000000       -0.29959800000000
H           61.44922300000000        0.15382700000000       -0.03406400000000
H           61.41739500000000        2.67430500000000        0.72061600000000
H           59.60063300000000        4.43073400000000        1.11248800000000
H           55.99823500000000        4.53275600000000        2.94040300000000
H           55.89286499999999        6.91735600000000        3.49838500000000
H           57.60790700000000        7.88337800000000       -0.34793200000000
H           57.70479500000000        5.49592100000000       -0.89597400000000
H           54.16241699999999        4.47719200000000        0.32934700000000
H           52.34534599999999        2.70204300000000       -0.03788300000000
H           52.69476499999999       -2.65428500000000        0.49895400000000
H           54.65480199999999       -4.50670400000000        0.13357900000000
H           58.33305899999999       -5.49419400000000        0.64443700000000
H           58.27687800000000       -7.87720700000000        0.07437800000000
H           55.82174500000000       -6.98532100000000       -3.36645300000000
H           55.89008199999999       -4.60322600000000       -2.79133100000000
H           59.86303400000000       -4.28088600000000       -1.42901700000000
H           61.54764399999999       -2.36563500000000       -1.05745600000000
C           39.91347200000000        0.01236000000000       -0.01583900000000
C           41.13538900000000        0.01236000000000       -0.01583900000000
C           50.38191400000000        0.01236000000000       -0.01583900000000
C           51.60383100000000        0.01236000000000       -0.01583900000000
Ni          45.67226900000000        0.05359300000000       -0.02954800000000
C           42.30507399999999       -0.02597700000000        0.03328800000000
C           42.96119200000000       -1.19751300000000        0.12199200000000
C           42.32009700000000       -2.50049900000000        0.30998300000000
C           43.25728999999999       -3.42795100000000        0.30257700000000
C           44.55522300000000       -2.77311200000000        0.11115500000000
N           44.37742400000000       -1.35888100000000        0.00199400000000
C           45.74004700000000       -3.41535500000000        0.04120000000000
C           45.77159699999999       -4.89292800000000        0.11513600000000
C           46.25008399999999       -5.52946600000000        1.26818300000000
C           46.28965199999999       -6.92494700000000        1.33768200000000
C           45.85477300000000       -7.70585200000000        0.25029200000000
N           45.89417300000000       -9.14324900000000        0.31735800000000
O           45.51960200000000       -9.90338300000000       -0.76682000000000
O           46.24966800000000       -9.72392200000000        1.36507000000000
C           45.38111500000000       -7.05982200000000       -0.90664100000000
C           45.34168799999999       -5.66445900000000       -0.97313100000000
C           47.03959799999999       -2.71187900000000       -0.10060200000000
C           48.31214800000000       -3.39439100000000       -0.36680800000000
C           49.26453900000000       -2.48391000000000       -0.37268600000000
N           47.20522900000000       -1.43419400000000        0.04781200000000
C           48.60630700000000       -1.21021600000000       -0.11158300000000
C           49.22119200000000       -0.02597700000000        0.03328800000000
C           48.47132100000000        1.22407400000000        0.27974100000000
C           49.00732800000000        2.33730200000000        0.76318700000000
C           47.97478500000000        3.35581600000000        0.74107400000000
C           46.87924000000000        2.79602100000000        0.24112600000000
N           47.10263300000000        1.42219400000000       -0.07267400000000
C           45.62203200000000        3.52633600000000       -0.05231700000000
C           45.67921300000000        5.00137100000000       -0.20260100000000
C           46.46189400000000        5.57475300000000       -1.21449600000000
C           46.53335900000000        6.96394700000000       -1.35061100000000
C           45.82642300000000        7.80465400000000       -0.47297700000000
N           45.89834500000000        9.23488700000000       -0.61866300000000
O           46.63275500000000        9.79790100000000       -1.63782800000000
O           45.28893300000000        9.98742800000000        0.17043300000000
C           45.05051000000000        7.22505200000000        0.54738700000000
C           44.98082800000000        5.83586300000000        0.68289800000000
C           44.44967600000000        2.87869800000000       -0.19698000000000
C           43.17132300000000        3.48750600000000       -0.55071000000000
C           42.28260000000000        2.51490100000000       -0.52410300000000
C           42.98233200000000        1.27733800000000       -0.16138000000000
N           44.24918200000000        1.48229000000000        0.02776500000000
H           41.26467500000000       -2.70178500000000        0.43609700000000
H           43.07162999999999       -4.48681300000000        0.42730400000000
H           46.58890399999999       -4.94457300000000        2.11415000000000
H           46.66373300000000       -7.39297000000000        2.24038100000000
H           45.04130500000000       -7.63276400000000       -1.76030000000000
H           44.97832399999999       -5.18391400000000       -1.87270300000000
H           48.46399900000000       -4.45365000000000       -0.52862800000000
H           50.31653899999999       -2.67579500000000       -0.53721400000000
H           50.03090699999999        2.47653500000000        1.08442400000000
H           48.09119700000000        4.38932300000000        1.04050100000000
H           47.01374599999999        4.94440500000000       -1.90103900000000
H           47.14265000000000        7.37996500000000       -2.14224100000000
H           44.49849900000000        7.84553500000000        1.24171000000000
H           44.38464600000000        5.40916800000000        1.48001500000000
H           42.96615800000000        4.52092400000000       -0.79853900000000
H           41.23040399999999        2.63255300000000       -0.74562900000000
183
 energy: -363.535173377852 gnorm: 0.506074350945 xtb: 6.5.1 (b24c23e)
Ni          34.49725830711572        0.03607578337625       -0.01678268274654
C           31.15233743359239       -0.06812188399557       -0.09012738800868
C           31.82190055732791       -1.23566374582637       -0.23360419704434
C           31.16403136726336       -2.52713869490254       -0.35935957672237
C           32.11381925750429       -3.44779237450720       -0.51542261660761
C           33.40910347758339       -2.76356672224280       -0.50416430499661
N           33.22045884381473       -1.37689412969965       -0.31969235256935
C           34.61697522883979       -3.37806661797618       -0.66932798309220
C           34.65424447748892       -4.84495861495091       -0.89972752943472
C           35.16533942511408       -5.69943203849154        0.08529599567464
C           35.22253268540278       -7.07477025295527       -0.13080613657951
C           34.76971253724967       -7.62910201704999       -1.34468391075089
N           34.82219709074368       -9.05849337485192       -1.57787341281414
O           34.39773761145807       -9.55239759283629       -2.71078007398831
O           35.25805572813100       -9.79566916778422       -0.70304346864395
C           34.26175879857951       -6.76668069133962       -2.32954414995789
C           34.20413076890915       -5.39274398161118       -2.10870793710619
C           35.88862503512392       -2.66121156341963       -0.64034044932190
C           37.16945415732911       -3.25693934808366       -1.01553675737608
C           38.11501563505116       -2.32749250367689       -0.84951367066833
N           36.04420092316242       -1.40336999043037       -0.26658652565424
C           37.44311563233172       -1.13531804673231       -0.36751170719161
C           38.05245272553754        0.02515649711744       -0.00766667685984
C           37.26453041580582        1.17621712214711        0.44892974244770
C           37.79795741007155        2.22005428504236        1.14086961802943
C           36.77234907579253        3.18991688049068        1.32465454152750
C           35.64247321448774        2.70645745429336        0.73644018502531
N           35.88656756130104        1.42228999725602        0.18612615452774
C           34.38322405125005        3.45396102144182        0.65309191310036
C           34.39358284038218        4.92742017713278        0.86839117665315
C           33.72667854933488        5.50257245130201        1.96070293816313
C           33.76254999962654        6.87938878569980        2.17144977043052
C           34.46456159066542        7.72025729753600        1.29321745414820
N           34.49710039923811        9.15201500556202        1.51713408724557
O           33.91667509957211        9.66191134610457        2.57091433165106
O           35.07337287677571        9.87441993722160        0.71438681971468
C           35.13498627676888        7.14120058133083        0.19734941596715
C           35.09975538568896        5.76283440432296       -0.00792491149408
C           33.20819608212569        2.83228861437739        0.38578132149677
C           31.90551950820811        3.46687587980188        0.24453762200817
C           31.02870315178296        2.47761796812977        0.04947061488895
C           31.77171664589704        1.22514297084620        0.05382567113091
N           33.06074832352829        1.42818066831878        0.24499766793985
H           30.06881399928187       -0.10724793871955       -0.08612033098196
H           30.10064800633733       -2.72465976103967       -0.33037514024627
H           31.92531255845781       -4.50681293177709       -0.62706052158406
H           35.51822129297010       -5.28859741620869        1.02705962940133
H           35.62362377718399       -7.70919654330925        0.65092765764300
H           33.90999628585706       -7.16244439286546       -3.27458471519394
H           33.81358239587312       -4.74287805208168       -2.88591647511778
H           37.34758287853111       -4.25961774417437       -1.36988412946792
H           39.17036801032008       -2.46573041472598       -1.04245955252771
H           38.82305733147454        2.29626020328996        1.46391657481051
H           36.86686022134700        4.14490159165559        1.81850383427241
H           33.18572554369220        4.87118127572671        2.65918337381000
H           33.24120056423137        7.29475541690867        3.02562709160597
H           35.69426918117434        7.75824198900272       -0.49642193203326
H           35.62591647781563        5.33375945273640       -0.85585499333724
H           31.66241092311269        4.52070504752177        0.28479037712188
H           29.96706411119000        2.60131151441111       -0.09059287479880
Ni          57.02006514886846       -0.00926211559067       -0.02562489477478
C           60.36495412096355        0.11486041013193       -0.05452151972665
C           59.69543728044933        1.25098517396228        0.25022427939668
C           60.35327981207443        2.49539470262592        0.61791520083312
C           59.40348400501942        3.40737394238073        0.81842838378443
C           58.10820374936220        2.76876987867850        0.57235022521907
N           58.29681857801074        1.41420223316262        0.22341936841711
C           56.90019823495486        3.40040764587498        0.64962236957435
C           56.86303377621272        4.84676635810512        0.98605430942579
C           56.35198903002934        5.26948817455004        2.21961116539061
C           56.29478661778617        6.62554735069309        2.53495130337253
C           56.74758338590821        7.59455385413582        1.61748304523692
N           56.69505263589583        9.00718638110367        1.93724882437726
O           57.11960582400093        9.88973111131619        1.07231649967584
O           56.25927088602273        9.36246247671220        3.02472172860751
C           57.25553445857616        7.16436935974072        0.38113117305814
C           57.31315393623689        5.80783938403348        0.07066390777554
C           55.62877263740383        2.72501351855999        0.40768580139104
C           54.34771171188664        3.41796032255322        0.28319225863052
C           53.40220369975099        2.49427032130559        0.08864396455104
N           55.47315837689253        1.41871089311331        0.28251864120677
C           54.07421379189675        1.20818162029035        0.08837292360508
C           53.46537746304325       -0.00283628538250       -0.01335992780074
C           54.25274411586882       -1.24107927776381       -0.02125752010141
C           53.71939631120053       -2.46811867435154        0.22873886009989
C           54.74495057012366       -3.43603995161089        0.03539211527008
C           55.87482595500160       -2.76724463598729       -0.32860049323335
N           55.63069569403334       -1.37041704936814       -0.35726355146511
C           57.13407714083645       -3.42895985271513       -0.68616678080105
C           57.12371071229829       -4.87569683478384       -1.03907172550197
C           57.79061718242549       -5.81840454651680       -0.24209870153079
C           57.75474222617419       -7.17381634983391       -0.56299719719098
C           57.05273536895756       -7.62400231453334       -1.69242126609684
N           57.02015722946492       -9.03536008873740       -2.02167928841042
O           57.60065294392528       -9.90304515991982       -1.23605462861652
O           56.44396947660729       -9.40395373942803       -3.03676989033731
C           56.38233030861691       -6.67632327434751       -2.49121823193828
C           56.41755305509589       -5.32151930889513       -2.16469612771940
C           58.30908588923799       -2.75240995474838       -0.70090136683302
C           59.61178506179454       -3.28774795671881       -1.06975816771772
C           60.48859325949795       -2.29753806795940       -0.87966848579498
C           59.74556431230658       -1.13808725768981       -0.40600217214108
N           58.45656750957405       -1.39794698611109       -0.30491116266163
H           61.44848072593634        0.14959925565616       -0.03613812705495
H           61.41665360325148        2.66763244234122        0.71884307262245
H           59.59197976354417        4.43099088943629        1.11203025757940
H           55.99907795694912        4.53551998100052        2.93861279180267
H           55.89366910738571        6.92054902897189        3.49753530825667
H           57.60730144702806        7.88559964644826       -0.34657735962997
H           57.70371237865493        5.49682364112269       -0.89350895469536
H           54.16968481694795        4.48033572815800        0.33071883997496
H           52.34689189757194        2.69464188683596       -0.03829394267340
H           52.69426261847860       -2.65986090239369        0.49964245289654
H           54.65043627715129       -4.50648567260496        0.13513879865351
H           58.33157351012409       -5.49499015564365        0.64216618582750
H           58.27609881374048       -7.87915044718255        0.07312682874656
H           55.82302825175619       -6.98819454390092       -3.36573692357823
H           55.89138637618385       -4.60582305521489       -2.78987863629608
H           59.85488983407426       -4.27978040976016       -1.42758232856982
H           61.55023063673012       -2.35967398316416       -1.05588890559481
C           39.81872923270542        0.01181225413272       -0.01405190085340
C           41.03508256090409        0.01978432161461       -0.01809290272599
C           50.48017492733750        0.02555536081893       -0.01629563762728
C           51.69787124664300        0.01343672983164       -0.01560974119069
Ni          45.68053969533364        0.04799733921628       -0.02391826718407
C           42.34790734373212       -0.01264342108392        0.02753644139906
C           42.98832106385510       -1.20878415858469        0.12450056033891
C           42.32198315859991       -2.49126950602174        0.30926522636952
C           43.26763903544956       -3.43009381656864        0.30184620824899
C           44.55512783121025       -2.76735850772422        0.11155906464138
N           44.37166540310839       -1.37209058622006        0.00335683210584
C           45.75380678702027       -3.41423632900492        0.03934223377701
C           45.77538736919264       -4.89561153084648        0.11380211724004
C           46.25007193940161       -5.53653514886658        1.26469866020958
C           46.28836563873863       -6.92790836809238        1.33445798960429
C           45.85391723488880       -7.71104038048798        0.24631429676067
N           45.88920592199698       -9.15895616317668        0.30879404520001
O           45.53255429883023       -9.86577104131534       -0.72999019545721
O           46.24321873338070       -9.70980986459191        1.34349340390276
C           45.38141290487309       -7.06060986073198       -0.90575207457903
C           45.34194786147609       -5.67004365028732       -0.96941431060021
C           47.02957890936709       -2.73075316020269       -0.09912406212968
C           48.29774206522035       -3.40528581063946       -0.36435182106167
C           49.25879061165063       -2.47630644102396       -0.37105409959855
N           47.20048829474624       -1.43138342052107        0.04048275974592
C           48.58053010913050       -1.22158410377744       -0.11439698566622
C           49.16913316684788       -0.01470573931159        0.03506778293207
C           48.44409056878460        1.22078044249927        0.27386549414929
C           49.00533472206690        2.35778071161771        0.76579629719807
C           47.99398442958299        3.35891748005660        0.74348250077422
C           46.86831112904405        2.78845040025233        0.23119183465389
N           47.09335494650983        1.42493707534649       -0.06367925054356
C           45.63473423535278        3.52090253090033       -0.05133046138518
C           45.68485815078088        5.00050084582667       -0.19950303198827
C           46.46156523386843        5.57988836310508       -1.21165142650160
C           46.53253578732690        6.96408101483285       -1.35027436802132
C           45.82919813232318        7.80899351346584       -0.47690130089692
N           45.90466949062963        9.24877487627472       -0.62896343764759
O           46.60701713134218        9.76702850326461       -1.60123904916488
O           45.30123141933608        9.96999261264496        0.15475631942929
C           45.05264950485596        7.22655148271880        0.54409777539200
C           44.98275913669117        5.84055889833700        0.67828603333761
C           44.45098873771142        2.87831670841607       -0.19730913083129
C           43.17931849810690        3.48644200932826       -0.54886153701477
C           42.27613084700690        2.50231899873827       -0.52149292068593
C           42.98270886125835        1.27655941079750       -0.16229033804247
N           44.26398677225984        1.48913730797930        0.01953785751625
H           41.26545561680102       -2.69182197539741        0.43515735821349
H           43.07981501343244       -4.48724190439526        0.42645317592056
H           46.58818749937490       -4.94685582751497        2.11188675160495
H           46.66271786802339       -7.39570352960984        2.23851997714348
H           45.04198242082542       -7.63530659637949       -1.75918715700295
H           44.97917768407640       -5.18535275697250       -1.87051158944127
H           48.45714500581078       -4.45778427616784       -0.52813626857830
H           50.31330453629988       -2.66620842153010       -0.53578054978618
H           50.02960473347834        2.47964397105183        1.08568534993724
H           48.09596023503588        4.38955947389138        1.04265965466722
H           47.01267044637499        4.94608217049941       -1.89941947407623
H           47.14205454249147        7.38241833518947       -2.14191923163692
H           44.49994860400248        7.84772496347349        1.23998283198493
H           44.38637372207533        5.41078461767587        1.47789484819413
H           42.97365162594723        4.51940949564042       -0.79681532580043
H           41.22776414386634        2.62440924562899       -0.74413593716351
183
 energy: -363.724113152538 gnorm: 0.192295686449 xtb: 6.5.1 (b24c23e)
Ni          34.51314470748357        0.03083232216060       -0.02356782001983
C           31.15583679652119       -0.04992312371534       -0.08858078774210
C           31.83077321923455       -1.23663482858106       -0.23240885794760
C           31.16682212523715       -2.51873964144607       -0.35795922458039
C           32.12615654374613       -3.44646003742834       -0.51584533662439
C           33.40845723514855       -2.75348106944439       -0.50150723669192
N           33.20559509079946       -1.38908839485030       -0.31950288266976
C           34.63567586435760       -3.36993322667520       -0.66995202518959
C           34.66016219166582       -4.84412028691725       -0.90231641336270
C           35.16577212172876       -5.70590645521895        0.07881312047452
C           35.22031283619085       -7.07818349866977       -0.13636562678403
C           34.76758499016892       -7.63008190676238       -1.34997488049544
N           34.81568223807382       -9.07452206040984       -1.59526615207761
O           34.41628983635616       -9.51082799492488       -2.65657560898658
O           35.25030524510034       -9.77621192536084       -0.71805588044009