      -----------------------------------------------------------      
     |                   =====================                   |     
     |                           x T B                           |     
     |                   =====================                   |     
     |                         S. Grimme                         |     
     |          Mulliken Center for Theoretical Chemistry        |     
     |                    University of Bonn                     |     
      -----------------------------------------------------------      

   * xtb version 6.5.1 (b24c23e) compiled by 'conda@728c89f4b128' on 2022-07-12

   xtb is free software: you can redistribute it and/or modify it under
   the terms of the GNU Lesser General Public License as published by
   the Free Software Foundation, either version 3 of the License, or
   (at your option) any later version.
   
   xtb is distributed in the hope that it will be useful,
   but WITHOUT ANY WARRANTY; without even the implied warranty of
   MERCHANTABILITY or FITNESS FOR A PARTICULAR PURPOSE.  See the
   GNU Lesser General Public License for more details.
   
   Cite this work as:
   * C. Bannwarth, E. Caldeweyher, S. Ehlert, A. Hansen, P. Pracht,
     J. Seibert, S. Spicher, S. Grimme, WIREs Comput. Mol. Sci., 2020, 11,
     e01493. DOI: 10.1002/wcms.1493
   
   for GFN2-xTB:
   * C. Bannwarth, S. Ehlert and S. Grimme., J. Chem. Theory Comput., 2019,
     15, 1652-1671. DOI: 10.1021/acs.jctc.8b01176
   for GFN1-xTB:
   * S. Grimme, C. Bannwarth, P. Shushkov, J. Chem. Theory Comput., 2017,
     13, 1989-2009. DOI: 10.1021/acs.jctc.7b00118
   for GFN0-xTB:
   * P. Pracht, E. Caldeweyher, S. Ehlert, S. Grimme, ChemRxiv, 2019, preprint.
     DOI: 10.26434/chemrxiv.8326202.v1
   for GFN-FF:
   * S. Spicher and S. Grimme, Angew. Chem. Int. Ed., 2020, 59, 15665-15673.
     DOI: 10.1002/anie.202004239
   
   for ALPB and GBSA implicit solvation:
   * S. Ehlert, M. Stahn, S. Spicher, S. Grimme, J. Chem. Theory Comput.,
     2021, 17, 4250-4261. DOI: 10.1021/acs.jctc.1c00471
   
   for DFT-D4:
   * E. Caldeweyher, C. Bannwarth and S. Grimme, J. Chem. Phys., 2017,
     147, 034112. DOI: 10.1063/1.4993215
   * E. Caldeweyher, S. Ehlert, A. Hansen, H. Neugebauer, S. Spicher,
     C. Bannwarth and S. Grimme, J. Chem. Phys., 2019, 150, 154122.
     DOI: 10.1063/1.5090222
   * E. Caldeweyher, J.-M. Mewes, S. Ehlert and S. Grimme, Phys. Chem. Chem. Phys.
     2020, 22, 8499-8512. DOI: 10.1039/D0CP00502A
   
   for sTDA-xTB:
   * S. Grimme and C. Bannwarth, J. Chem. Phys., 2016, 145, 054103.
     DOI: 10.1063/1.4959605
   
   in the mass-spec context:
   * V. Asgeirsson, C. Bauer and S. Grimme, Chem. Sci., 2017, 8, 4879.
     DOI: 10.1039/c7sc00601b
   * J. Koopman and S. Grimme, ACS Omega 2019, 4, 12, 15120-15133.
     DOI: 10.1021/acsomega.9b02011
   
   for metadynamics refer to:
   * S. Grimme, J. Chem. Theory Comput., 2019, 155, 2847-2862
     DOI: 10.1021/acs.jctc.9b00143
   
   for SPH calculations refer to:
   * S. Spicher and S. Grimme, J. Chem. Theory Comput., 2021, 17, 1701-1714
     DOI: 10.1021/acs.jctc.0c01306
   
   with help from (in alphabetical order)
   P. Atkinson, C. Bannwarth, F. Bohle, G. Brandenburg, E. Caldeweyher
   M. Checinski, S. Dohm, S. Ehlert, S. Ehrlich, I. Gerasimov, C. Hölzer
   A. Katbashev, J. Koopman, C. Lavigne, S. Lehtola, F. März, M. Müller,
   F. Musil, H. Neugebauer, J. Pisarek, C. Plett, P. Pracht, F. Pultar,
   J. Seibert, P. Shushkov, S. Spicher, M. Stahn, M. Steiner, T. Strunk,
   J. Stückrath, T. Rose, and J. Unsleber
   
 * started run on 2022/07/30 at 06:36:31.700     

           -------------------------------------------------
          |                Calculation Setup                |
           -------------------------------------------------

          program call               : xtb xtbopt.xyz --gfn 1 --vipea
          hostname                   : cx3-6-25.cx3.hpc.ic.ac.uk
          coordinate file            : xtbopt.xyz
          omp threads                :                     1

   ID    Z sym.   atoms
    1    6 C      1-5, 7-11, 15-19, 21-26, 28-32, 36-41, 62-66, 68-72, 76-80,
                  82-87, 89-93, 97-102, 123-147, 149-153, 157-161, 163-168,
                  170-174, 178-183, 203-207, 209-213, 217-221, 223-228,
                  230-234, 238-243, 263-267, 269-273, 277-281, 283-288,
                  290-294, 298-303, 323-327, 329-333, 337-341, 343-348,
                  350-354, 358-363
    2    7 N      6, 12, 20, 27, 33, 42, 67, 73, 81, 88, 94, 103, 148, 154,
                  162, 169, 175, 184, 208, 214, 222, 229, 235, 244, 268, 274,
                  282, 289, 295, 304, 328, 334, 342, 349, 355, 364
    3    8 O      13, 14, 34, 35, 74, 75, 95, 96, 155, 156, 176, 177, 215,
                  216, 236, 237, 275, 276, 296, 297, 335, 336, 356, 357
    4    1 H      43-61, 104-122, 185-202, 245-262, 305-322, 365-382

           -------------------------------------------------
          |                 I P E A - x T B                 |
           -------------------------------------------------

        Reference                      10.1039/c7sc00601b
      * Hamiltonian:
        H0-scaling (s, p, d)           2.150000    2.300000    2.000000
        zeta-weighting                 0.000000
      * Dispersion:
        s8                             2.400000
        a1                             0.630000
        a2                             5.000000
        s9                             0.000000
      * Repulsion:
        kExp                           1.500000
        rExp                           1.000000
      * Coulomb:
        alpha                          1.000000
        third order                    atomic
        anisotropic                    false
      * Halogen bond correction:
        rad-scale                      1.300000
        damping                        0.440000


          ...................................................
          :                      SETUP                      :
          :.................................................:
          :  # basis functions                1580          :
          :  # atomic orbitals                1580          :
          :  # shells                         1036          :
          :  # electrons                      1282          :
          :  # halogen bonds                     0          :
          :  max. iterations                   250          :
          :  Hamiltonian                  GFN1-xTB          :
          :  restarted?                      false          :
          :  GBSA solvation                  false          :
          :  PC potential                    false          :
          :  electronic temp.          300.0000000     K    :
          :  accuracy                    1.0000000          :
          :  -> integral cutoff          0.2500000E+02      :
          :  -> integral neglect         0.1000000E-07      :
          :  -> SCF convergence          0.1000000E-05 Eh   :
          :  -> wf. convergence          0.2000000E-04 e    :
          :  Broyden damping             0.4000000          :
          ...................................................

 iter      E             dE          RMSdq      gap      omega  full diag
   1   -832.9679185 -0.832968E+03  0.100E+01    0.54       0.0  T
   2   -833.5257888 -0.557870E+00  0.622E+00    1.12       1.0  T
   3   -821.2312903  0.122945E+02  0.474E+00    0.15       1.0  T
   4   -835.5911972 -0.143599E+02  0.986E-01    0.91       1.0  T
   5   -836.4493571 -0.858160E+00  0.246E-01    0.91       1.0  T
   6   -836.4966066 -0.472496E-01  0.104E-01    0.94       1.0  T
   7   -836.5022098 -0.560317E-02  0.606E-02    0.92       1.0  T
   8   -836.5041732 -0.196336E-02  0.323E-02    0.92       1.0  T
   9   -836.5044873 -0.314156E-03  0.224E-02    0.92       1.0  T
  10   -836.5047763 -0.288941E-03  0.502E-03    0.92       1.0  T
  11   -836.5047828 -0.657488E-05  0.278E-03    0.92       1.8  T
  12   -836.5047866 -0.371864E-05  0.149E-03    0.92       3.4  T
  13   -836.5047881 -0.151598E-05  0.591E-04    0.92       8.7  T
  14   -836.5047883 -0.193304E-06  0.233E-04    0.92      21.9  T
  15   -836.5047883 -0.325892E-07  0.110E-04    0.92      46.7  T
  16   -836.5047883 -0.658008E-08  0.512E-05    0.92      99.9  T

   *** convergence criteria satisfied after 16 iterations ***

         #    Occupation            Energy/Eh            Energy/eV
      -------------------------------------------------------------
         1        2.0000           -1.1899537             -32.3803
       ...           ...                  ...                  ...
       635        2.0000           -0.4081357             -11.1059
       636        2.0000           -0.4059180             -11.0456
       637        2.0000           -0.4012177             -10.9177
       638        2.0000           -0.3957306             -10.7684
       639        2.0000           -0.3898660             -10.6088
       640        2.0000           -0.3841369             -10.4529
       641        2.0000           -0.3801521             -10.3445 (HOMO)
       642                         -0.3462093              -9.4208 (LUMO)
       643                         -0.3405159              -9.2659
       644                         -0.3341020              -9.0914
       645                         -0.3296225              -8.9695
       646                         -0.3286249              -8.9423
       ...                                ...                  ...
      1580                        568.2365592           15462.5038
      -------------------------------------------------------------
                  HL-Gap            0.0339428 Eh            0.9236 eV
             Fermi-level           -0.3631748 Eh           -9.8825 eV

 SCC (total)                   0 d,  0 h,  0 min, 20.410 sec
 SCC setup                      ...        0 min,  0.016 sec (  0.077%)
 Dispersion                     ...        0 min,  0.019 sec (  0.093%)
 classical contributions        ...        0 min,  0.005 sec (  0.026%)
 integral evaluation            ...        0 min,  1.174 sec (  5.750%)
 iterations                     ...        0 min, 16.707 sec ( 81.856%)
 molecular gradient             ...        0 min,  2.282 sec ( 11.179%)
 printout                       ...        0 min,  0.208 sec (  1.019%)

         :::::::::::::::::::::::::::::::::::::::::::::::::::::
         ::                     SUMMARY                     ::
         :::::::::::::::::::::::::::::::::::::::::::::::::::::
         :: total energy            -821.585136010224 Eh    ::
         :: gradient norm              0.169773558224 Eh/a0 ::
         :: HOMO-LUMO gap              0.923629927284 eV    ::
         ::.................................................::
         :: SCC energy              -836.504788304991 Eh    ::
         :: -> electrostatic           0.693632784747 Eh    ::
         :: repulsion energy          15.253278887472 Eh    ::
         :: dispersion energy         -0.333626592705 Eh    ::
         :: halogen bond corr.         0.000000000000 Eh    ::
         :: add. restraining           0.000000000000 Eh    ::
         :: total charge               0.000000000440 e     ::
         :::::::::::::::::::::::::::::::::::::::::::::::::::::

           ------------------------------------------------- 
          |        vertical delta SCC IP calculation        |
           ------------------------------------------------- 
   1   -836.1013378 -0.836101E+03  0.568E-02    0.92       0.0  T
   2   -836.1009550  0.382717E-03  0.580E-02    0.88       1.0  T
   3   -836.1051250 -0.416998E-02  0.324E-02    0.92       1.0  T
   4   -836.1041252  0.999783E-03  0.323E-02    0.90       1.0  T
   5   -836.1052377 -0.111246E-02  0.236E-02    0.91       1.0  T
   6   -836.1063659 -0.112817E-02  0.107E-02    0.91       1.0  T
   7   -836.1065373 -0.171436E-03  0.527E-03    0.91       1.0  T
   8   -836.1065677 -0.304048E-04  0.149E-03    0.91       3.4  T
   9   -836.1065694 -0.164064E-05  0.741E-04    0.91       6.9  T
  10   -836.1065696 -0.196482E-06  0.467E-04    0.91      11.0  T
  11   -836.1065697 -0.154614E-06  0.224E-04    0.91      22.9  T
  12   -836.1065697 -0.329940E-07  0.849E-05    0.91      60.3  T
  13   -836.1065697 -0.349405E-08  0.405E-05    0.91     126.4  T
     SCC iter.                  ...        0 min, 13.658 sec
     gradient                   ...        0 min,  2.312 sec
------------------------------------------------------------------------
empirical IP shift (eV):    4.8455
delta SCC IP (eV):    5.9906
------------------------------------------------------------------------
           ------------------------------------------------- 
          |        vertical delta SCC EA calculation        |
           ------------------------------------------------- 
   1   -836.8129115 -0.836813E+03  0.102E-01    0.17       0.0  T
   2   -836.8215965 -0.868502E-02  0.891E-02    0.05       1.0  T
   3   -836.8296340 -0.803748E-02  0.499E-02    0.12       1.0  T
   4   -836.8306028 -0.968764E-03  0.364E-02    0.09       1.0  T
   5   -836.8285466  0.205620E-02  0.337E-02    0.10       1.0  T
   6   -836.8277064  0.840137E-03  0.347E-02    0.11       1.0  T
   7   -836.8315451 -0.383864E-02  0.866E-03    0.10       1.0  T
   8   -836.8316303 -0.852567E-04  0.320E-03    0.09       1.6  T
   9   -836.8316356 -0.529384E-05  0.213E-03    0.09       2.4  T
  10   -836.8316391 -0.351385E-05  0.647E-04    0.09       7.9  T
  11   -836.8316393 -0.145408E-06  0.413E-04    0.09      12.4  T
  12   -836.8316394 -0.137502E-06  0.151E-04    0.09      33.9  T
  13   -836.8316394 -0.131731E-07  0.731E-05    0.09      70.0  T
     SCC iter.                  ...        0 min, 13.894 sec
     gradient                   ...        0 min,  2.321 sec
------------------------------------------------------------------------
empirical EA shift (eV):    4.8455
delta SCC EA (eV):    4.0486
------------------------------------------------------------------------
           -------------------------------------------------
          |                Property Printout                |
           -------------------------------------------------

    * Orbital Energies and Occupations

         #    Occupation            Energy/Eh            Energy/eV
      -------------------------------------------------------------
         1        2.0000           -1.1651693             -31.7059
       ...           ...                  ...                  ...
       630        2.0000           -0.3783951             -10.2967
       631        2.0000           -0.3781988             -10.2913
       632        2.0000           -0.3736219             -10.1668
       633        2.0000           -0.3735083             -10.1637
       634        2.0000           -0.3719505             -10.1213
       635        2.0000           -0.3718645             -10.1189
       636        2.0000           -0.3693099             -10.0494
       637        2.0000           -0.3669619              -9.9855
       638        2.0000           -0.3610759              -9.8254
       639        2.0000           -0.3547400              -9.6530
       640        2.0000           -0.3481766              -9.4744
       641        2.0000           -0.3420588              -9.3079
       642        0.8530           -0.3080308              -8.3819 (HOMO)
       643        0.1458           -0.3046805              -8.2908 (LUMO)
       644        0.0010           -0.2997620              -8.1569
       645        0.0002           -0.2984163              -8.1203
       646        0.0001           -0.2971471              -8.0858
       647        0.0000           -0.2934432              -7.9850
       648        0.0000           -0.2933413              -7.9822
       649        0.0000           -0.2926352              -7.9630
       650        0.0000           -0.2913354              -7.9276
       651                         -0.2906873              -7.9100
       652                         -0.2858684              -7.7789
       653                         -0.2838728              -7.7246
       ...                                ...                  ...
      1580                        568.2747733           15463.5437
      -------------------------------------------------------------
                  HL-Gap            0.0033503 Eh            0.0912 eV
             Fermi-level           -0.3157092 Eh           -8.5909 eV

  Mulliken/CM5 charges         n(s)   n(p)   n(d)
     1C    -0.01989 -0.06074   1.089  2.931  0.000
     2C     0.06362  0.12399   1.106  2.831  0.000
     3C    -0.03246 -0.07782   1.082  2.951  0.000
     4C    -0.03189 -0.07690   1.075  2.957  0.000
     5C     0.06371  0.12778   1.100  2.836  0.000
     6N    -0.15736 -0.51043   1.312  3.846  0.000
     7C     0.00916  0.01493   1.089  2.902  0.000
     8C     0.01824  0.00972   1.093  2.889  0.000
     9C    -0.01421 -0.06727   1.077  2.937  0.000
    10C    -0.00744 -0.05416   1.092  2.916  0.000
    11C     0.04478  0.09930   1.118  2.837  0.000
    12N     0.29954  0.12748   1.469  3.231  0.000
    13O    -0.27192 -0.23097   1.675  4.597  0.000
    14O    -0.27271 -0.23176   1.675  4.598  0.000
    15C    -0.00814 -0.05485   1.091  2.917  0.000
    16C    -0.01578 -0.06876   1.075  2.941  0.000
    17C     0.06015  0.12831   1.117  2.823  0.000
    18C    -0.03713 -0.08319   1.083  2.954  0.000
    19C    -0.03611 -0.08158   1.091  2.946  0.000
    20N    -0.28321 -0.46994   1.293  3.990  0.000
    21C     0.06552  0.13631   1.131  2.804  0.000
    22C     0.01904  0.02624   1.086  2.895  0.000
    23C     0.06705  0.13194   1.110  2.823  0.000
    24C    -0.03184 -0.07629   1.080  2.952  0.000
    25C    -0.03250 -0.07750   1.073  2.959  0.000
    26C     0.06267  0.12612   1.098  2.839  0.000
    27N    -0.15535 -0.50765   1.314  3.841  0.000
    28C     0.00812  0.01394   1.088  2.903  0.000
    29C     0.01798  0.00947   1.093  2.889  0.000
    30C    -0.01487 -0.06796   1.077  2.938  0.000
    31C    -0.00796 -0.05468   1.092  2.916  0.000
    32C     0.04448  0.09903   1.118  2.837  0.000
    33N     0.29887  0.12680   1.469  3.232  0.000
    34O    -0.27296 -0.23200   1.675  4.598  0.000
    35O    -0.27292 -0.23200   1.675  4.598  0.000
    36C    -0.00815 -0.05485   1.091  2.917  0.000
    37C    -0.01561 -0.06857   1.075  2.941  0.000
    38C     0.06183  0.13132   1.120  2.818  0.000
    39C    -0.03704 -0.08310   1.085  2.952  0.000
    40C    -0.03719 -0.08363   1.092  2.945  0.000
    41C     0.06068  0.12630   1.126  2.813  0.000
    42N    -0.28587 -0.47294   1.292  3.993  0.000
    43H     0.03293  0.09199   0.967  0.000  0.000
    44H     0.04410  0.10080   0.956  0.000  0.000
    45H     0.03548  0.09421   0.965  0.000  0.000
    46H     0.16577  0.37409   0.834  0.000  0.000
    47H     0.03815  0.09622   0.962  0.000  0.000
    48H     0.05572  0.11964   0.944  0.000  0.000
    49H     0.05489  0.11882   0.945  0.000  0.000
    50H     0.03792  0.09596   0.962  0.000  0.000
    51H     0.02656  0.08535   0.973  0.000  0.000
    52H     0.02865  0.08676   0.971  0.000  0.000
    53H     0.03809  0.09620   0.962  0.000  0.000
    54H     0.03565  0.09443   0.964  0.000  0.000
    55H     0.16433  0.37259   0.836  0.000  0.000
    56H     0.03733  0.09539   0.963  0.000  0.000
    57H     0.05481  0.11873   0.945  0.000  0.000
    58H     0.05509  0.11903   0.945  0.000  0.000
    59H     0.03822  0.09628   0.962  0.000  0.000
    60H     0.02602  0.08474   0.974  0.000  0.000
    61H     0.03425  0.09072   0.966  0.000  0.000
    62C    -0.01981 -0.06066   1.089  2.931  0.000
    63C     0.06362  0.12399   1.106  2.831  0.000
    64C    -0.03242 -0.07778   1.082  2.951  0.000
    65C    -0.03187 -0.07687   1.075  2.957  0.000
    66C     0.06374  0.12781   1.100  2.836  0.000
    67N    -0.15732 -0.51037   1.312  3.846  0.000
    68C     0.00922  0.01499   1.089  2.902  0.000
    69C     0.01825  0.00972   1.093  2.889  0.000
    70C    -0.01418 -0.06726   1.077  2.937  0.000
    71C    -0.00734 -0.05406   1.092  2.916  0.000
    72C     0.04477  0.09928   1.118  2.837  0.000
    73N     0.29955  0.12749   1.469  3.231  0.000
    74O    -0.27159 -0.23061   1.675  4.597  0.000
    75O    -0.27293 -0.23200   1.675  4.598  0.000
    76C    -0.00822 -0.05493   1.092  2.917  0.000
    77C    -0.01585 -0.06882   1.075  2.941  0.000
    78C     0.06024  0.12840   1.117  2.823  0.000
    79C    -0.03713 -0.08318   1.083  2.954  0.000
    80C    -0.03606 -0.08153   1.091  2.945  0.000
    81N    -0.28326 -0.46992   1.293  3.990  0.000
    82C     0.06558  0.13637   1.131  2.804  0.000
    83C     0.01905  0.02624   1.086  2.895  0.000
    84C     0.06715  0.13204   1.110  2.823  0.000
    85C    -0.03175 -0.07620   1.080  2.952  0.000
    86C    -0.03246 -0.07746   1.073  2.959  0.000
    87C     0.06276  0.12620   1.098  2.839  0.000
    88N    -0.15539 -0.50765   1.314  3.841  0.000
    89C     0.00816  0.01398   1.088  2.903  0.000
    90C     0.01801  0.00950   1.093  2.889  0.000
    91C    -0.01489 -0.06795   1.077  2.938  0.000
    92C    -0.00798 -0.05471   1.092  2.916  0.000
    93C     0.04449  0.09903   1.118  2.837  0.000
    94N     0.29894  0.12687   1.469  3.232  0.000
    95O    -0.27305 -0.23210   1.675  4.598  0.000
    96O    -0.27265 -0.23171   1.675  4.598  0.000
    97C    -0.00807 -0.05478   1.091  2.917  0.000
    98C    -0.01561 -0.06859   1.075  2.941  0.000
    99C     0.06185  0.13135   1.120  2.818  0.000
   100C    -0.03705 -0.08310   1.085  2.952  0.000
   101C    -0.03717 -0.08361   1.093  2.945  0.000
   102C     0.06068  0.12629   1.126  2.813  0.000
   103N    -0.28582 -0.47291   1.292  3.993  0.000
   104H     0.03298  0.09204   0.967  0.000  0.000
   105H     0.04415  0.10086   0.956  0.000  0.000
   106H     0.03557  0.09429   0.964  0.000  0.000
   107H     0.16582  0.37412   0.834  0.000  0.000
   108H     0.03841  0.09644   0.962  0.000  0.000
   109H     0.05600  0.11992   0.944  0.000  0.000
   110H     0.05476  0.11870   0.945  0.000  0.000
   111H     0.03782  0.09586   0.962  0.000  0.000
   112H     0.02652  0.08533   0.973  0.000  0.000
   113H     0.02850  0.08662   0.971  0.000  0.000
   114H     0.03798  0.09611   0.962  0.000  0.000
   115H     0.03567  0.09446   0.964  0.000  0.000
   116H     0.16440  0.37265   0.836  0.000  0.000
   117H     0.03739  0.09544   0.963  0.000  0.000
   118H     0.05477  0.11869   0.945  0.000  0.000
   119H     0.05526  0.11920   0.945  0.000  0.000
   120H     0.03826  0.09629   0.962  0.000  0.000
   121H     0.02605  0.08476   0.974  0.000  0.000
   122H     0.03429  0.09076   0.966  0.000  0.000
   123C    -0.01812 -0.01898   1.061  2.958  0.000
   124C    -0.01944 -0.02109   1.089  2.931  0.000
   125C    -0.02084 -0.02168   1.058  2.963  0.000
   126C    -0.01667 -0.01826   1.092  2.925  0.000
   127C    -0.01944 -0.02027   1.060  2.960  0.000
   128C    -0.01880 -0.02039   1.089  2.929  0.000
   129C    -0.02016 -0.02100   1.059  2.961  0.000
   130C    -0.01796 -0.01955   1.091  2.927  0.000
   131C    -0.01977 -0.02060   1.059  2.960  0.000
   132C    -0.01829 -0.01989   1.090  2.928  0.000
   133C    -0.01975 -0.02059   1.059  2.960  0.000
   134C    -0.01831 -0.01990   1.090  2.928  0.000
   135C    -0.02018 -0.02102   1.059  2.961  0.000
   136C    -0.01793 -0.01952   1.091  2.927  0.000
   137C    -0.01941 -0.02024   1.060  2.960  0.000
   138C    -0.01881 -0.02041   1.089  2.929  0.000
   139C    -0.02081 -0.02166   1.058  2.963  0.000
   140C    -0.01659 -0.01820   1.092  2.925  0.000
   141C    -0.01804 -0.01891   1.060  2.958  0.000
   142C    -0.01941 -0.02107   1.089  2.931  0.000
   143C     0.01548  0.02273   1.083  2.901  0.000
   144C     0.06652  0.13139   1.110  2.823  0.000
   145C    -0.03425 -0.07871   1.078  2.956  0.000
   146C    -0.03327 -0.07825   1.074  2.960  0.000
   147C     0.06079  0.12432   1.096  2.844  0.000
   148N    -0.15514 -0.50767   1.313  3.842  0.000
   149C     0.01107  0.01675   1.090  2.899  0.000
   150C     0.01871  0.01012   1.094  2.888  0.000
   151C    -0.01408 -0.06716   1.077  2.937  0.000
   152C    -0.00754 -0.05427   1.092  2.916  0.000
   153C     0.04464  0.09910   1.118  2.837  0.000
   154N     0.29939  0.12735   1.469  3.231  0.000
   155O    -0.27291 -0.23196   1.675  4.598  0.000
   156O    -0.27208 -0.23109   1.675  4.597  0.000
   157C    -0.00816 -0.05487   1.091  2.917  0.000
   158C    -0.01533 -0.06831   1.075  2.940  0.000
   159C     0.05879  0.12685   1.115  2.826  0.000
   160C    -0.03771 -0.08377   1.084  2.954  0.000
   161C    -0.03751 -0.08298   1.090  2.947  0.000
   162N    -0.28326 -0.46953   1.293  3.991  0.000
   163C     0.06518  0.13605   1.131  2.804  0.000
   164C     0.01722  0.02446   1.085  2.898  0.000
   165C     0.06686  0.13179   1.110  2.823  0.000
   166C    -0.03305 -0.07751   1.079  2.955  0.000
   167C    -0.03285 -0.07783   1.073  2.959  0.000
   168C     0.06117  0.12462   1.096  2.843  0.000
   169N    -0.15477 -0.50727   1.313  3.841  0.000
   170C     0.01095  0.01663   1.090  2.899  0.000
   171C     0.01869  0.01009   1.093  2.888  0.000
   172C    -0.01514 -0.06813   1.075  2.940  0.000
   173C    -0.00785 -0.05457   1.091  2.916  0.000
   174C     0.04472  0.09916   1.118  2.837  0.000
   175N     0.29946  0.12742   1.469  3.231  0.000
   176O    -0.27259 -0.23161   1.675  4.598  0.000
   177O    -0.27232 -0.23134   1.675  4.597  0.000
   178C    -0.00767 -0.05439   1.092  2.916  0.000
   179C    -0.01420 -0.06727   1.077  2.937  0.000
   180C     0.05906  0.12722   1.116  2.825  0.000
   181C    -0.03751 -0.08356   1.084  2.954  0.000
   182C    -0.03770 -0.08319   1.090  2.948  0.000
   183C     0.06499  0.13572   1.131  2.804  0.000
   184N    -0.28390 -0.47017   1.292  3.992  0.000
   185H     0.03576  0.09383   0.964  0.000  0.000
   186H     0.03396  0.09279   0.966  0.000  0.000
   187H     0.16425  0.37221   0.836  0.000  0.000
   188H     0.03787  0.09591   0.962  0.000  0.000
   189H     0.05527  0.11920   0.945  0.000  0.000
   190H     0.05457  0.11852   0.945  0.000  0.000
   191H     0.03798  0.09603   0.962  0.000  0.000
   192H     0.02517  0.08400   0.975  0.000  0.000
   193H     0.02693  0.08497   0.973  0.000  0.000
   194H     0.03732  0.09540   0.963  0.000  0.000
   195H     0.03472  0.09357   0.965  0.000  0.000
   196H     0.16412  0.37207   0.836  0.000  0.000
   197H     0.03834  0.09636   0.962  0.000  0.000
   198H     0.05511  0.11905   0.945  0.000  0.000
   199H     0.05482  0.11875   0.945  0.000  0.000
   200H     0.03750  0.09555   0.963  0.000  0.000
   201H     0.02511  0.08394   0.975  0.000  0.000
   202H     0.02652  0.08458   0.973  0.000  0.000
   203C     0.01645  0.02368   1.084  2.899  0.000
   204C     0.06678  0.13170   1.110  2.823  0.000
   205C    -0.03344 -0.07790   1.078  2.955  0.000
   206C    -0.03296 -0.07793   1.074  2.959  0.000
   207C     0.06095  0.12443   1.096  2.843  0.000
   208N    -0.15490 -0.50741   1.313  3.841  0.000
   209C     0.01120  0.01687   1.090  2.898  0.000
   210C     0.01874  0.01014   1.094  2.888  0.000
   211C    -0.01413 -0.06721   1.077  2.937  0.000
   212C    -0.00758 -0.05431   1.092  2.916  0.000
   213C     0.04469  0.09913   1.118  2.837  0.000
   214N     0.29949  0.12745   1.469  3.231  0.000
   215O    -0.27256 -0.23159   1.675  4.598  0.000
   216O    -0.27226 -0.23127   1.675  4.597  0.000
   217C    -0.00797 -0.05468   1.091  2.917  0.000
   218C    -0.01520 -0.06818   1.075  2.940  0.000
   219C     0.05883  0.12689   1.115  2.826  0.000
   220C    -0.03772 -0.08377   1.084  2.954  0.000
   221C    -0.03766 -0.08314   1.090  2.948  0.000
   222N    -0.28339 -0.46965   1.293  3.991  0.000
   223C     0.06508  0.13593   1.131  2.804  0.000
   224C     0.01680  0.02404   1.084  2.899  0.000
   225C     0.06685  0.13177   1.110  2.823  0.000
   226C    -0.03320 -0.07766   1.078  2.955  0.000
   227C    -0.03285 -0.07783   1.074  2.959  0.000
   228C     0.06104  0.12451   1.096  2.843  0.000
   229N    -0.15486 -0.50736   1.313  3.841  0.000
   230C     0.01117  0.01685   1.090  2.898  0.000
   231C     0.01873  0.01013   1.094  2.888  0.000
   232C    -0.01517 -0.06815   1.075  2.940  0.000
   233C    -0.00792 -0.05463   1.091  2.916  0.000
   234C     0.04470  0.09913   1.118  2.837  0.000
   235N     0.29950  0.12747   1.469  3.231  0.000
   236O    -0.27235 -0.23136   1.675  4.597  0.000
   237O    -0.27244 -0.23147   1.675  4.597  0.000
   238C    -0.00762 -0.05435   1.092  2.916  0.000
   239C    -0.01416 -0.06724   1.077  2.937  0.000
   240C     0.05882  0.12690   1.115  2.826  0.000
   241C    -0.03776 -0.08381   1.084  2.954  0.000
   242C    -0.03782 -0.08330   1.090  2.948  0.000
   243C     0.06498  0.13581   1.131  2.804  0.000
   244N    -0.28350 -0.46974   1.293  3.991  0.000
   245H     0.03672  0.09482   0.963  0.000  0.000
   246H     0.03441  0.09325   0.966  0.000  0.000
   247H     0.16419  0.37212   0.836  0.000  0.000
   248H     0.03773  0.09576   0.962  0.000  0.000
   249H     0.05505  0.11898   0.945  0.000  0.000
   250H     0.05483  0.11877   0.945  0.000  0.000
   251H     0.03816  0.09618   0.962  0.000  0.000
   252H     0.02505  0.08389   0.975  0.000  0.000
   253H     0.02661  0.08466   0.973  0.000  0.000
   254H     0.03704  0.09512   0.963  0.000  0.000
   255H     0.03459  0.09343   0.965  0.000  0.000
   256H     0.16417  0.37211   0.836  0.000  0.000
   257H     0.03824  0.09626   0.962  0.000  0.000
   258H     0.05495  0.11889   0.945  0.000  0.000
   259H     0.05495  0.11888   0.945  0.000  0.000
   260H     0.03765  0.09568   0.962  0.000  0.000
   261H     0.02495  0.08379   0.975  0.000  0.000
   262H     0.02636  0.08441   0.974  0.000  0.000
   263C     0.01682  0.02406   1.084  2.899  0.000
   264C     0.06685  0.13177   1.110  2.823  0.000
   265C    -0.03320 -0.07766   1.078  2.955  0.000
   266C    -0.03285 -0.07783   1.074  2.959  0.000
   267C     0.06104  0.12451   1.096  2.843  0.000
   268N    -0.15486 -0.50736   1.313  3.841  0.000
   269C     0.01117  0.01685   1.090  2.898  0.000
   270C     0.01873  0.01013   1.094  2.888  0.000
   271C    -0.01416 -0.06724   1.077  2.937  0.000
   272C    -0.00761 -0.05434   1.092  2.916  0.000
   273C     0.04470  0.09913   1.118  2.837  0.000
   274N     0.29950  0.12747   1.469  3.231  0.000
   275O    -0.27247 -0.23150   1.675  4.598  0.000
   276O    -0.27232 -0.23133   1.675  4.597  0.000
   277C    -0.00793 -0.05464   1.091  2.916  0.000
   278C    -0.01517 -0.06816   1.075  2.940  0.000
   279C     0.05882  0.12690   1.115  2.826  0.000
   280C    -0.03776 -0.08381   1.084  2.954  0.000
   281C    -0.03783 -0.08331   1.090  2.948  0.000
   282N    -0.28350 -0.46975   1.292  3.991  0.000
   283C     0.06498  0.13581   1.131  2.804  0.000
   284C     0.01643  0.02366   1.084  2.900  0.000
   285C     0.06679  0.13170   1.110  2.823  0.000
   286C    -0.03345 -0.07791   1.078  2.955  0.000
   287C    -0.03295 -0.07793   1.074  2.959  0.000
   288C     0.06095  0.12443   1.096  2.843  0.000
   289N    -0.15491 -0.50741   1.313  3.842  0.000
   290C     0.01120  0.01688   1.090  2.898  0.000
   291C     0.01874  0.01014   1.094  2.888  0.000
   292C    -0.01519 -0.06818   1.075  2.940  0.000
   293C    -0.00797 -0.05468   1.091  2.917  0.000
   294C     0.04469  0.09913   1.118  2.837  0.000
   295N     0.29949  0.12745   1.469  3.231  0.000
   296O    -0.27228 -0.23130   1.675  4.597  0.000
   297O    -0.27253 -0.23156   1.675  4.598  0.000
   298C    -0.00759 -0.05432   1.092  2.916  0.000
   299C    -0.01413 -0.06721   1.077  2.937  0.000
   300C     0.05883  0.12689   1.115  2.826  0.000
   301C    -0.03771 -0.08377   1.084  2.954  0.000
   302C    -0.03766 -0.08313   1.090  2.948  0.000
   303C     0.06507  0.13592   1.131  2.804  0.000
   304N    -0.28339 -0.46964   1.293  3.991  0.000
   305H     0.03705  0.09514   0.963  0.000  0.000
   306H     0.03459  0.09343   0.965  0.000  0.000
   307H     0.16418  0.37211   0.836  0.000  0.000
   308H     0.03767  0.09570   0.962  0.000  0.000
   309H     0.05498  0.11890   0.945  0.000  0.000
   310H     0.05494  0.11887   0.945  0.000  0.000
   311H     0.03822  0.09625   0.962  0.000  0.000
   312H     0.02494  0.08378   0.975  0.000  0.000
   313H     0.02635  0.08440   0.974  0.000  0.000
   314H     0.03672  0.09482   0.963  0.000  0.000
   315H     0.03442  0.09325   0.966  0.000  0.000
   316H     0.16419  0.37213   0.836  0.000  0.000
   317H     0.03817  0.09619   0.962  0.000  0.000
   318H     0.05485  0.11879   0.945  0.000  0.000
   319H     0.05504  0.11897   0.945  0.000  0.000
   320H     0.03773  0.09576   0.962  0.000  0.000
   321H     0.02506  0.08390   0.975  0.000  0.000
   322H     0.02661  0.08466   0.973  0.000  0.000
   323C     0.01727  0.02450   1.085  2.898  0.000
   324C     0.06687  0.13179   1.110  2.823  0.000
   325C    -0.03302 -0.07748   1.079  2.954  0.000
   326C    -0.03285 -0.07782   1.073  2.959  0.000
   327C     0.06118  0.12464   1.096  2.843  0.000
   328N    -0.15475 -0.50724   1.313  3.841  0.000
   329C     0.01098  0.01666   1.090  2.899  0.000
   330C     0.01871  0.01011   1.094  2.888  0.000
   331C    -0.01419 -0.06728   1.077  2.937  0.000
   332C    -0.00758 -0.05431   1.092  2.916  0.000
   333C     0.04469  0.09913   1.118  2.837  0.000
   334N     0.29946  0.12743   1.469  3.231  0.000
   335O    -0.27253 -0.23157   1.675  4.598  0.000
   336O    -0.27230 -0.23130   1.675  4.597  0.000
   337C    -0.00793 -0.05464   1.091  2.916  0.000
   338C    -0.01520 -0.06818   1.075  2.940  0.000
   339C     0.05911  0.12727   1.116  2.825  0.000
   340C    -0.03753 -0.08358   1.084  2.954  0.000
   341C    -0.03769 -0.08318   1.090  2.948  0.000
   342N    -0.28396 -0.47016   1.292  3.992  0.000
   343C     0.06504  0.13577   1.131  2.804  0.000
   344C     0.01543  0.02267   1.083  2.902  0.000
   345C     0.06658  0.13145   1.110  2.823  0.000
   346C    -0.03420 -0.07866   1.078  2.956  0.000
   347C    -0.03325 -0.07822   1.074  2.960  0.000
   348C     0.06086  0.12437   1.095  2.844  0.000
   349N    -0.15520 -0.50769   1.313  3.842  0.000
   350C     0.01108  0.01676   1.090  2.899  0.000
   351C     0.01874  0.01014   1.094  2.888  0.000
   352C    -0.01534 -0.06833   1.075  2.940  0.000
   353C    -0.00810 -0.05481   1.091  2.917  0.000
   354C     0.04463  0.09909   1.118  2.837  0.000
   355N     0.29942  0.12738   1.469  3.231  0.000
   356O    -0.27221 -0.23123   1.675  4.597  0.000
   357O    -0.27269 -0.23172   1.675  4.598  0.000
   358C    -0.00758 -0.05431   1.092  2.916  0.000
   359C    -0.01411 -0.06719   1.077  2.937  0.000
   360C     0.05880  0.12687   1.115  2.826  0.000
   361C    -0.03774 -0.08379   1.084  2.954  0.000
   362C    -0.03751 -0.08298   1.090  2.947  0.000
   363C     0.06515  0.13601   1.131  2.804  0.000
   364N    -0.28325 -0.46953   1.293  3.991  0.000
   365H     0.03735  0.09544   0.963  0.000  0.000
   366H     0.03478  0.09362   0.965  0.000  0.000
   367H     0.16415  0.37209   0.836  0.000  0.000
   368H     0.03771  0.09573   0.962  0.000  0.000
   369H     0.05505  0.11897   0.945  0.000  0.000
   370H     0.05498  0.11892   0.945  0.000  0.000
   371H     0.03826  0.09628   0.962  0.000  0.000
   372H     0.02505  0.08390   0.975  0.000  0.000
   373H     0.02632  0.08439   0.974  0.000  0.000
   374H     0.03561  0.09369   0.964  0.000  0.000
   375H     0.03394  0.09279   0.966  0.000  0.000
   376H     0.16430  0.37223   0.836  0.000  0.000
   377H     0.03801  0.09602   0.962  0.000  0.000
   378H     0.05472  0.11865   0.945  0.000  0.000
   379H     0.05520  0.11913   0.945  0.000  0.000
   380H     0.03791  0.09594   0.962  0.000  0.000
   381H     0.02518  0.08402   0.975  0.000  0.000
   382H     0.02693  0.08498   0.973  0.000  0.000

Wiberg/Mayer (AO) data.
largest (>0.10) Wiberg bond orders for each atom

 ---------------------------------------------------------------------------
     #   Z sym  total        # sym  WBO       # sym  WBO       # sym  WBO
 ---------------------------------------------------------------------------
     1   6 C    3.815 --    41 C    1.387     2 C    1.373    43 H    0.995
     2   6 C    3.924 --     1 C    1.373     3 C    1.239     6 N    1.230
     3   6 C    3.839 --     4 C    1.600     2 C    1.239    44 H    0.991
     4   6 C    3.822 --     3 C    1.600     5 C    1.249    45 H    0.998
     5   6 C    3.897 --     7 C    1.339     4 C    1.249     6 N    1.232
     6   7 N    3.247 --     5 C    1.232     2 C    1.230    46 H    0.960
     7   6 C    3.840 --    17 C    1.365     5 C    1.339     8 C    1.057
     8   6 C    3.896 --    16 C    1.414     9 C    1.413     7 C    1.057
     9   6 C    3.863 --    10 C    1.466     8 C    1.413    47 H    0.987
    10   6 C    3.898 --     9 C    1.466    11 C    1.406    48 H    0.985
    11   6 C    3.935 --    15 C    1.406    10 C    1.406    12 N    1.005
    12   7 N    4.110 --    13 O    1.568    14 O    1.568    11 C    1.005
    13   8 O    2.010 --    12 N    1.568    14 O    0.383
    14   8 O    2.009 --    12 N    1.568    13 O    0.383
    15   6 C    3.898 --    16 C    1.465    11 C    1.406    49 H    0.985
    16   6 C    3.858 --    15 C    1.465     8 C    1.414    50 H    0.987
    17   6 C    3.923 --     7 C    1.365    20 N    1.358    18 C    1.160
    18   6 C    3.837 --    19 C    1.694    17 C    1.160    51 H    0.997
    19   6 C    3.850 --    18 C    1.694    21 C    1.165    52 H    0.999
    20   7 N    2.566 --    21 C    1.413    17 C    1.358
    21   6 C    3.942 --    20 N    1.413    22 C    1.289    19 C    1.165
    22   6 C    3.845 --    21 C    1.289    23 C    1.287   124 C    1.220
    23   6 C    3.902 --    22 C    1.287    24 C    1.267    27 N    1.249
    24   6 C    3.832 --    25 C    1.583    23 C    1.267    53 H    0.998
    25   6 C    3.813 --    24 C    1.583    26 C    1.258    54 H    0.997
    26   6 C    3.891 --    28 C    1.339    25 C    1.258    27 N    1.225
    27   7 N    3.259 --    23 C    1.249    26 C    1.225    55 H    0.959
    28   6 C    3.824 --    38 C    1.356    26 C    1.339    29 C    1.059
    29   6 C    3.895 --    30 C    1.412    37 C    1.412    28 C    1.059
    30   6 C    3.861 --    31 C    1.466    29 C    1.412    56 H    0.987
    31   6 C    3.897 --    30 C    1.466    32 C    1.405    57 H    0.985
    32   6 C    3.934 --    31 C    1.405    36 C    1.405    33 N    1.006
    33   7 N    4.109 --    34 O    1.567    35 O    1.567    32 C    1.006
    34   8 O    2.008 --    33 N    1.567    35 O    0.382
    35   8 O    2.008 --    33 N    1.567    34 O    0.382
    36   6 C    3.897 --    37 C    1.466    32 C    1.405    58 H    0.985
    37   6 C    3.858 --    36 C    1.466    29 C    1.412    59 H    0.987
    38   6 C    3.945 --    42 N    1.383    28 C    1.356    39 C    1.151
    39   6 C    3.841 --    40 C    1.710    38 C    1.151    60 H    0.998
    40   6 C    3.863 --    39 C    1.710    41 C    1.145    61 H    0.992
    41   6 C    3.967 --     1 C    1.387    42 N    1.373    40 C    1.145
    42   7 N    2.551 --    38 C    1.383    41 C    1.373
    43   1 H    1.031 --     1 C    0.995
    44   1 H    1.014 --     3 C    0.991
    45   1 H    1.029 --     4 C    0.998
    46   1 H    1.080 --     6 N    0.960
    47   1 H    1.044 --     9 C    0.987
    48   1 H    1.028 --    10 C    0.985
    49   1 H    1.028 --    15 C    0.985
    50   1 H    1.041 --    16 C    0.987
    51   1 H    1.032 --    18 C    0.997
    52   1 H    1.028 --    19 C    0.999
    53   1 H    1.024 --    24 C    0.998
    54   1 H    1.028 --    25 C    0.997
    55   1 H    1.084 --    27 N    0.959
    56   1 H    1.044 --    30 C    0.987
    57   1 H    1.028 --    31 C    0.985
    58   1 H    1.028 --    36 C    0.985
    59   1 H    1.041 --    37 C    0.987
    60   1 H    1.032 --    39 C    0.998
    61   1 H    1.017 --    40 C    0.992
    62   6 C    3.815 --   102 C    1.387    63 C    1.373   104 H    0.995
    63   6 C    3.924 --    62 C    1.373    64 C    1.239    67 N    1.230
    64   6 C    3.839 --    65 C    1.600    63 C    1.239   105 H    0.991
    65   6 C    3.822 --    64 C    1.600    66 C    1.249   106 H    0.998
    66   6 C    3.897 --    68 C    1.339    65 C    1.249    67 N    1.232
    67   7 N    3.247 --    66 C    1.232    63 C    1.230   107 H    0.960
    68   6 C    3.840 --    78 C    1.365    66 C    1.339    69 C    1.057
    69   6 C    3.896 --    70 C    1.414    77 C    1.414    68 C    1.057
    70   6 C    3.863 --    71 C    1.466    69 C    1.414   108 H    0.987
    71   6 C    3.898 --    70 C    1.466    72 C    1.406   109 H    0.985
    72   6 C    3.935 --    76 C    1.406    71 C    1.406    73 N    1.005
    73   7 N    4.110 --    74 O    1.569    75 O    1.567    72 C    1.005
    74   8 O    2.011 --    73 N    1.569    75 O    0.383
    75   8 O    2.009 --    73 N    1.567    74 O    0.383
    76   6 C    3.898 --    77 C    1.465    72 C    1.406   110 H    0.985
    77   6 C    3.858 --    76 C    1.465    69 C    1.414   111 H    0.987
    78   6 C    3.923 --    68 C    1.365    81 N    1.358    79 C    1.160
    79   6 C    3.837 --    80 C    1.694    78 C    1.160   112 H    0.997
    80   6 C    3.850 --    79 C    1.694    82 C    1.165   113 H    0.999
    81   7 N    2.566 --    82 C    1.413    78 C    1.358
    82   6 C    3.943 --    81 N    1.413    83 C    1.290    80 C    1.165
    83   6 C    3.846 --    82 C    1.290    84 C    1.288   142 C    1.218
    84   6 C    3.902 --    83 C    1.288    85 C    1.267    88 N    1.249
    85   6 C    3.832 --    86 C    1.583    84 C    1.267   114 H    0.998
    86   6 C    3.813 --    85 C    1.583    87 C    1.258   115 H    0.997
    87   6 C    3.891 --    89 C    1.340    86 C    1.258    88 N    1.225
    88   7 N    3.259 --    84 C    1.249    87 C    1.225   116 H    0.959
    89   6 C    3.825 --    99 C    1.355    87 C    1.340    90 C    1.059
    90   6 C    3.895 --    98 C    1.413    91 C    1.412    89 C    1.059
    91   6 C    3.862 --    92 C    1.467    90 C    1.412   117 H    0.987
    92   6 C    3.897 --    91 C    1.467    93 C    1.405   118 H    0.985
    93   6 C    3.934 --    97 C    1.405    92 C    1.405    94 N    1.006
    94   7 N    4.109 --    96 O    1.567    95 O    1.567    93 C    1.006
    95   8 O    2.008 --    94 N    1.567    96 O    0.382
    96   8 O    2.008 --    94 N    1.567    95 O    0.382
    97   6 C    3.897 --    98 C    1.466    93 C    1.405   119 H    0.985
    98   6 C    3.858 --    97 C    1.466    90 C    1.413   120 H    0.987
    99   6 C    3.945 --   103 N    1.383    89 C    1.355   100 C    1.151
   100   6 C    3.841 --   101 C    1.710    99 C    1.151   121 H    0.998
   101   6 C    3.863 --   100 C    1.710   102 C    1.145   122 H    0.992
   102   6 C    3.967 --    62 C    1.387   103 N    1.373   101 C    1.145
   103   7 N    2.551 --    99 C    1.383   102 C    1.373
   104   1 H    1.031 --    62 C    0.995
   105   1 H    1.014 --    64 C    0.991
   106   1 H    1.029 --    65 C    0.998
   107   1 H    1.080 --    67 N    0.960
   108   1 H    1.044 --    70 C    0.987
   109   1 H    1.028 --    71 C    0.985
   110   1 H    1.028 --    76 C    0.985
   111   1 H    1.041 --    77 C    0.987
   112   1 H    1.032 --    79 C    0.997
   113   1 H    1.029 --    80 C    0.999
   114   1 H    1.024 --    85 C    0.998
   115   1 H    1.028 --    86 C    0.997
   116   1 H    1.084 --    88 N    0.959
   117   1 H    1.044 --    91 C    0.987
   118   1 H    1.028 --    92 C    0.985
   119   1 H    1.028 --    97 C    0.985
   120   1 H    1.041 --    98 C    0.987
   121   1 H    1.032 --   100 C    0.998
   122   1 H    1.017 --   101 C    0.992
   123   6 C    3.802 --   124 C    2.499   125 C    1.329
   124   6 C    3.799 --   123 C    2.499    22 C    1.220   126 C    0.180
   125   6 C    3.797 --   126 C    2.496   123 C    1.329
   126   6 C    3.802 --   125 C    2.496   143 C    1.224   124 C    0.180
   127   6 C    3.797 --   128 C    2.489   129 C    1.336
   128   6 C    3.800 --   127 C    2.489   164 C    1.230   130 C    0.179
   129   6 C    3.798 --   130 C    2.489   127 C    1.336
   130   6 C    3.800 --   129 C    2.489   203 C    1.229   128 C    0.179
   131   6 C    3.798 --   132 C    2.489   133 C    1.336
   132   6 C    3.800 --   131 C    2.489   224 C    1.229   134 C    0.180
   133   6 C    3.798 --   134 C    2.489   131 C    1.336
   134   6 C    3.800 --   133 C    2.489   263 C    1.229   132 C    0.180
   135   6 C    3.798 --   136 C    2.489   137 C    1.336
   136   6 C    3.800 --   135 C    2.489   284 C    1.229   138 C    0.179
   137   6 C    3.797 --   138 C    2.489   135 C    1.336
   138   6 C    3.800 --   137 C    2.489   323 C    1.229   136 C    0.179
   139   6 C    3.797 --   140 C    2.498   141 C    1.328
   140   6 C    3.802 --   139 C    2.498   344 C    1.222   142 C    0.180
   141   6 C    3.801 --   142 C    2.500   139 C    1.328
   142   6 C    3.799 --   141 C    2.500    83 C    1.218   140 C    0.180
   143   6 C    3.825 --   183 C    1.286   144 C    1.281   126 C    1.224
   144   6 C    3.904 --   143 C    1.281   145 C    1.272   148 N    1.252
   145   6 C    3.825 --   146 C    1.576   144 C    1.272   185 H    0.998
   146   6 C    3.815 --   145 C    1.576   147 C    1.264   186 H    0.998
   147   6 C    3.884 --   149 C    1.333   146 C    1.264   148 N    1.223
   148   7 N    3.249 --   144 C    1.252   147 C    1.223   187 H    0.961
   149   6 C    3.830 --   159 C    1.372   147 C    1.333   150 C    1.056
   150   6 C    3.896 --   151 C    1.414   158 C    1.414   149 C    1.056
   151   6 C    3.862 --   152 C    1.465   150 C    1.414   188 H    0.987
   152   6 C    3.897 --   151 C    1.465   153 C    1.406   189 H    0.985
   153   6 C    3.934 --   152 C    1.406   157 C    1.406   154 N    1.005
   154   7 N    4.110 --   156 O    1.569   155 O    1.568   153 C    1.005
   155   8 O    2.009 --   154 N    1.568   156 O    0.383
   156   8 O    2.010 --   154 N    1.569   155 O    0.383
   157   6 C    3.897 --   158 C    1.466   153 C    1.406   190 H    0.985
   158   6 C    3.858 --   157 C    1.466   150 C    1.414   191 H    0.987
   159   6 C    3.923 --   149 C    1.372   162 N    1.352   160 C    1.160
   160   6 C    3.837 --   161 C    1.692   159 C    1.160   192 H    0.998
   161   6 C    3.848 --   160 C    1.692   163 C    1.167   193 H    0.999
   162   7 N    2.549 --   163 C    1.418   159 C    1.352
   163   6 C    3.943 --   162 N    1.418   164 C    1.283   161 C    1.167
   164   6 C    3.826 --   163 C    1.283   165 C    1.279   128 C    1.230
   165   6 C    3.903 --   164 C    1.279   166 C    1.273   169 N    1.252
   166   6 C    3.826 --   167 C    1.576   165 C    1.273   194 H    0.998
   167   6 C    3.814 --   166 C    1.576   168 C    1.264   195 H    0.998
   168   6 C    3.884 --   170 C    1.332   167 C    1.264   169 N    1.224
   169   7 N    3.251 --   165 C    1.252   168 C    1.224   196 H    0.961
   170   6 C    3.829 --   180 C    1.373   168 C    1.332   171 C    1.056
   171   6 C    3.896 --   172 C    1.414   179 C    1.414   170 C    1.056
   172   6 C    3.858 --   173 C    1.465   171 C    1.414   197 H    0.987
   173   6 C    3.897 --   172 C    1.465   174 C    1.406   198 H    0.985
   174   6 C    3.934 --   173 C    1.406   178 C    1.406   175 N    1.005
   175   7 N    4.110 --   177 O    1.568   176 O    1.568   174 C    1.005
   176   8 O    2.010 --   175 N    1.568   177 O    0.383
   177   8 O    2.010 --   175 N    1.568   176 O    0.383
   178   6 C    3.898 --   179 C    1.466   174 C    1.406   199 H    0.985
   179   6 C    3.862 --   178 C    1.466   171 C    1.414   200 H    0.987
   180   6 C    3.923 --   170 C    1.373   184 N    1.353   181 C    1.160
   181   6 C    3.837 --   182 C    1.694   180 C    1.160   201 H    0.998
   182   6 C    3.848 --   181 C    1.694   183 C    1.166   202 H    0.999
   183   6 C    3.944 --   184 N    1.415   143 C    1.286   182 C    1.166
   184   7 N    2.547 --   183 C    1.415   180 C    1.353
   185   1 H    1.024 --   145 C    0.998
   186   1 H    1.029 --   146 C    0.998
   187   1 H    1.081 --   148 N    0.961
   188   1 H    1.044 --   151 C    0.987
   189   1 H    1.028 --   152 C    0.985
   190   1 H    1.028 --   157 C    0.985
   191   1 H    1.041 --   158 C    0.987
   192   1 H    1.032 --   160 C    0.998
   193   1 H    1.029 --   161 C    0.999
   194   1 H    1.024 --   166 C    0.998
   195   1 H    1.029 --   167 C    0.998
   196   1 H    1.081 --   169 N    0.961
   197   1 H    1.041 --   172 C    0.987
   198   1 H    1.028 --   173 C    0.985
   199   1 H    1.028 --   178 C    0.985
   200   1 H    1.044 --   179 C    0.987
   201   1 H    1.033 --   181 C    0.998
   202   1 H    1.029 --   182 C    0.999
   203   6 C    3.826 --   243 C    1.283   204 C    1.279   130 C    1.229
   204   6 C    3.904 --   203 C    1.279   205 C    1.272   208 N    1.252
   205   6 C    3.826 --   206 C    1.576   204 C    1.272   245 H    0.998
   206   6 C    3.815 --   205 C    1.576   207 C    1.264   246 H    0.998
   207   6 C    3.885 --   209 C    1.333   206 C    1.264   208 N    1.224
   208   7 N    3.250 --   204 C    1.252   207 C    1.224   247 H    0.961
   209   6 C    3.830 --   219 C    1.373   207 C    1.333   210 C    1.056
   210   6 C    3.896 --   211 C    1.414   218 C    1.414   209 C    1.056
   211   6 C    3.862 --   212 C    1.465   210 C    1.414   248 H    0.987
   212   6 C    3.897 --   211 C    1.465   213 C    1.406   249 H    0.985
   213   6 C    3.935 --   217 C    1.406   212 C    1.406   214 N    1.004
   214   7 N    4.110 --   216 O    1.569   215 O    1.568   213 C    1.004
   215   8 O    2.010 --   214 N    1.568   216 O    0.383
   216   8 O    2.010 --   214 N    1.569   215 O    0.383
   217   6 C    3.897 --   218 C    1.465   213 C    1.406   250 H    0.985
   218   6 C    3.858 --   217 C    1.465   210 C    1.414   251 H    0.987
   219   6 C    3.923 --   209 C    1.373   222 N    1.352   220 C    1.160
   220   6 C    3.837 --   221 C    1.693   219 C    1.160   252 H    0.998
   221   6 C    3.848 --   220 C    1.693   223 C    1.167   253 H    0.999
   222   7 N    2.549 --   223 C    1.418   219 C    1.352
   223   6 C    3.943 --   222 N    1.418   224 C    1.283   221 C    1.167
   224   6 C    3.827 --   223 C    1.283   225 C    1.279   132 C    1.229
   225   6 C    3.904 --   224 C    1.279   226 C    1.272   229 N    1.252
   226   6 C    3.826 --   227 C    1.576   225 C    1.272   254 H    0.998
   227   6 C    3.815 --   226 C    1.576   228 C    1.264   255 H    0.998
   228   6 C    3.885 --   230 C    1.333   227 C    1.264   229 N    1.224
   229   7 N    3.250 --   225 C    1.252   228 C    1.224   256 H    0.961
   230   6 C    3.830 --   240 C    1.373   228 C    1.333   231 C    1.056
   231   6 C    3.896 --   239 C    1.414   232 C    1.414   230 C    1.056
   232   6 C    3.858 --   233 C    1.465   231 C    1.414   257 H    0.987
   233   6 C    3.897 --   232 C    1.465   234 C    1.406   258 H    0.985
   234   6 C    3.935 --   233 C    1.406   238 C    1.406   235 N    1.004
   235   7 N    4.110 --   236 O    1.568   237 O    1.568   234 C    1.004
   236   8 O    2.010 --   235 N    1.568   237 O    0.383
   237   8 O    2.010 --   235 N    1.568   236 O    0.383
   238   6 C    3.898 --   239 C    1.465   234 C    1.406   259 H    0.985
   239   6 C    3.862 --   238 C    1.465   231 C    1.414   260 H    0.987
   240   6 C    3.923 --   230 C    1.373   244 N    1.352   241 C    1.160
   241   6 C    3.837 --   242 C    1.693   240 C    1.160   261 H    0.998
   242   6 C    3.848 --   241 C    1.693   243 C    1.167   262 H    0.999
   243   6 C    3.943 --   244 N    1.417   203 C    1.283   242 C    1.167
   244   7 N    2.549 --   243 C    1.417   240 C    1.352
   245   1 H    1.024 --   205 C    0.998
   246   1 H    1.029 --   206 C    0.998
   247   1 H    1.082 --   208 N    0.961
   248   1 H    1.044 --   211 C    0.987
   249   1 H    1.028 --   212 C    0.985
   250   1 H    1.028 --   217 C    0.985
   251   1 H    1.041 --   218 C    0.987
   252   1 H    1.033 --   220 C    0.998
   253   1 H    1.029 --   221 C    0.999
   254   1 H    1.024 --   226 C    0.998
   255   1 H    1.029 --   227 C    0.998
   256   1 H    1.081 --   229 N    0.961
   257   1 H    1.041 --   232 C    0.987
   258   1 H    1.028 --   233 C    0.985
   259   1 H    1.028 --   238 C    0.985
   260   1 H    1.044 --   239 C    0.987
   261   1 H    1.033 --   241 C    0.998
   262   1 H    1.029 --   242 C    0.999
   263   6 C    3.827 --   303 C    1.283   264 C    1.279   134 C    1.229
   264   6 C    3.904 --   263 C    1.279   265 C    1.272   268 N    1.252
   265   6 C    3.826 --   266 C    1.576   264 C    1.272   305 H    0.998
   266   6 C    3.815 --   265 C    1.576   267 C    1.264   306 H    0.998
   267   6 C    3.885 --   269 C    1.333   266 C    1.264   268 N    1.224
   268   7 N    3.250 --   264 C    1.252   267 C    1.224   307 H    0.961
   269   6 C    3.830 --   279 C    1.373   267 C    1.333   270 C    1.056
   270   6 C    3.896 --   271 C    1.414   278 C    1.414   269 C    1.056
   271   6 C    3.862 --   272 C    1.465   270 C    1.414   308 H    0.987
   272   6 C    3.898 --   271 C    1.465   273 C    1.406   309 H    0.985
   273   6 C    3.935 --   272 C    1.406   277 C    1.406   274 N    1.004
   274   7 N    4.110 --   276 O    1.568   275 O    1.568   273 C    1.004
   275   8 O    2.010 --   274 N    1.568   276 O    0.383
   276   8 O    2.010 --   274 N    1.568   275 O    0.383
   277   6 C    3.897 --   278 C    1.465   273 C    1.406   310 H    0.985
   278   6 C    3.858 --   277 C    1.465   270 C    1.414   311 H    0.987
   279   6 C    3.923 --   269 C    1.373   282 N    1.352   280 C    1.160
   280   6 C    3.837 --   281 C    1.693   279 C    1.160   312 H    0.998
   281   6 C    3.848 --   280 C    1.693   283 C    1.167   313 H    0.999
   282   7 N    2.549 --   283 C    1.417   279 C    1.352
   283   6 C    3.943 --   282 N    1.417   284 C    1.283   281 C    1.167
   284   6 C    3.826 --   283 C    1.283   285 C    1.279   136 C    1.229
   285   6 C    3.904 --   284 C    1.279   286 C    1.272   289 N    1.252
   286   6 C    3.826 --   287 C    1.576   285 C    1.272   314 H    0.998
   287   6 C    3.815 --   286 C    1.576   288 C    1.264   315 H    0.998
   288   6 C    3.885 --   290 C    1.333   287 C    1.264   289 N    1.223
   289   7 N    3.250 --   285 C    1.252   288 C    1.223   316 H    0.961
   290   6 C    3.830 --   300 C    1.373   288 C    1.333   291 C    1.056
   291   6 C    3.896 --   299 C    1.414   292 C    1.414   290 C    1.056
   292   6 C    3.858 --   293 C    1.465   291 C    1.414   317 H    0.987
   293   6 C    3.897 --   292 C    1.465   294 C    1.406   318 H    0.985
   294   6 C    3.935 --   293 C    1.406   298 C    1.406   295 N    1.004
   295   7 N    4.110 --   296 O    1.568   297 O    1.568   294 C    1.004
   296   8 O    2.010 --   295 N    1.568   297 O    0.383
   297   8 O    2.010 --   295 N    1.568   296 O    0.383
   298   6 C    3.898 --   299 C    1.465   294 C    1.406   319 H    0.985
   299   6 C    3.862 --   298 C    1.465   291 C    1.414   320 H    0.987
   300   6 C    3.923 --   290 C    1.373   304 N    1.352   301 C    1.160
   301   6 C    3.837 --   302 C    1.693   300 C    1.160   321 H    0.998
   302   6 C    3.848 --   301 C    1.693   303 C    1.167   322 H    0.999
   303   6 C    3.943 --   304 N    1.418   263 C    1.283   302 C    1.167
   304   7 N    2.549 --   303 C    1.418   300 C    1.352
   305   1 H    1.024 --   265 C    0.998
   306   1 H    1.029 --   266 C    0.998
   307   1 H    1.081 --   268 N    0.961
   308   1 H    1.044 --   271 C    0.987
   309   1 H    1.028 --   272 C    0.985
   310   1 H    1.028 --   277 C    0.985
   311   1 H    1.041 --   278 C    0.987
   312   1 H    1.033 --   280 C    0.998
   313   1 H    1.029 --   281 C    0.999
   314   1 H    1.024 --   286 C    0.998
   315   1 H    1.029 --   287 C    0.998
   316   1 H    1.081 --   289 N    0.961
   317   1 H    1.041 --   292 C    0.987
   318   1 H    1.028 --   293 C    0.985
   319   1 H    1.028 --   298 C    0.985
   320   1 H    1.044 --   299 C    0.987
   321   1 H    1.032 --   301 C    0.998
   322   1 H    1.029 --   302 C    0.999
   323   6 C    3.826 --   363 C    1.283   324 C    1.279   138 C    1.229
   324   6 C    3.903 --   323 C    1.279   325 C    1.272   328 N    1.252
   325   6 C    3.826 --   326 C    1.576   324 C    1.272   365 H    0.998
   326   6 C    3.814 --   325 C    1.576   327 C    1.264   366 H    0.998
   327   6 C    3.884 --   329 C    1.332   326 C    1.264   328 N    1.224
   328   7 N    3.251 --   324 C    1.252   327 C    1.224   367 H    0.961
   329   6 C    3.829 --   339 C    1.373   327 C    1.332   330 C    1.055
   330   6 C    3.896 --   331 C    1.415   338 C    1.414   329 C    1.055
   331   6 C    3.862 --   332 C    1.465   330 C    1.415   368 H    0.987
   332   6 C    3.897 --   331 C    1.465   333 C    1.406   369 H    0.985
   333   6 C    3.935 --   332 C    1.406   337 C    1.406   334 N    1.004
   334   7 N    4.110 --   336 O    1.569   335 O    1.568   333 C    1.004
   335   8 O    2.010 --   334 N    1.568   336 O    0.383
   336   8 O    2.010 --   334 N    1.569   335 O    0.383
   337   6 C    3.897 --   338 C    1.465   333 C    1.406   370 H    0.985
   338   6 C    3.858 --   337 C    1.465   330 C    1.414   371 H    0.987
   339   6 C    3.924 --   329 C    1.373   342 N    1.352   340 C    1.159
   340   6 C    3.837 --   341 C    1.694   339 C    1.159   372 H    0.998
   341   6 C    3.848 --   340 C    1.694   343 C    1.165   373 H    0.999
   342   7 N    2.548 --   343 C    1.415   339 C    1.352
   343   6 C    3.944 --   342 N    1.415   344 C    1.286   341 C    1.165
   344   6 C    3.825 --   343 C    1.286   345 C    1.282   140 C    1.222
   345   6 C    3.904 --   344 C    1.282   346 C    1.271   349 N    1.251
   346   6 C    3.825 --   347 C    1.577   345 C    1.271   374 H    0.998
   347   6 C    3.815 --   346 C    1.577   348 C    1.263   375 H    0.998
   348   6 C    3.884 --   350 C    1.334   347 C    1.263   349 N    1.223
   349   7 N    3.249 --   345 C    1.251   348 C    1.223   376 H    0.961
   350   6 C    3.830 --   360 C    1.372   348 C    1.334   351 C    1.056
   351   6 C    3.896 --   352 C    1.414   359 C    1.414   350 C    1.056
   352   6 C    3.858 --   353 C    1.465   351 C    1.414   377 H    0.987
   353   6 C    3.897 --   352 C    1.465   354 C    1.406   378 H    0.985
   354   6 C    3.935 --   353 C    1.406   358 C    1.406   355 N    1.005
   355   7 N    4.110 --   356 O    1.568   357 O    1.568   354 C    1.005
   356   8 O    2.010 --   355 N    1.568   357 O    0.383
   357   8 O    2.010 --   355 N    1.568   356 O    0.383
   358   6 C    3.898 --   359 C    1.466   354 C    1.406   379 H    0.985
   359   6 C    3.862 --   358 C    1.466   351 C    1.414   380 H    0.987
   360   6 C    3.922 --   350 C    1.372   364 N    1.352   361 C    1.160
   361   6 C    3.836 --   362 C    1.692   360 C    1.160   381 H    0.998
   362   6 C    3.848 --   361 C    1.692   363 C    1.167   382 H    0.999
   363   6 C    3.943 --   364 N    1.417   323 C    1.283   362 C    1.167
   364   7 N    2.550 --   363 C    1.417   360 C    1.352
   365   1 H    1.024 --   325 C    0.998
   366   1 H    1.028 --   326 C    0.998
   367   1 H    1.081 --   328 N    0.961
   368   1 H    1.044 --   331 C    0.987
   369   1 H    1.028 --   332 C    0.985
   370   1 H    1.028 --   337 C    0.985
   371   1 H    1.041 --   338 C    0.987
   372   1 H    1.033 --   340 C    0.998
   373   1 H    1.029 --   341 C    0.999
   374   1 H    1.025 --   346 C    0.998
   375   1 H    1.029 --   347 C    0.998
   376   1 H    1.081 --   349 N    0.961
   377   1 H    1.041 --   352 C    0.987
   378   1 H    1.028 --   353 C    0.985
   379   1 H    1.028 --   358 C    0.985
   380   1 H    1.044 --   359 C    0.987
   381   1 H    1.032 --   361 C    0.998
   382   1 H    1.029 --   362 C    0.999
 ---------------------------------------------------------------------------

Topologies differ in total number of bonds
Writing topology from bond orders to xtbtopo.mol

 dipole moment from electron density (au)
     X       Y       Z   
-217.4815  -0.0543   0.0010  total (Debye):  552.783


           -------------------------------------------------
          | TOTAL ENERGY             -821.911987149201 Eh   |
          | GRADIENT NORM               0.177138501627 Eh/α |
          | HOMO-LUMO GAP               0.091166849599 eV   |
           -------------------------------------------------
########################################################################
[WARNING] Runtime exception occurred
-1- restart_readRestart: Dimension missmatch in restart file.
########################################################################

------------------------------------------------------------------------
 * finished run on 2022/07/30 at 06:37:28.115     
------------------------------------------------------------------------
 total:
 * wall-time:     0 d,  0 h,  0 min, 56.415 sec
 *  cpu-time:     0 d,  0 h,  0 min, 56.205 sec
 * ratio c/w:     0.996 speedup
 SCF:
 * wall-time:     0 d,  0 h,  0 min, 55.430 sec
 *  cpu-time:     0 d,  0 h,  0 min, 55.231 sec
 * ratio c/w:     0.996 speedup

