294
 energy: -464.628023330327 gnorm: 1.920064440733 xtb: 6.5.1 (b24c23e)
Zn          38.11690299999999       -0.02317800000000       -0.02417700000000
C           34.75821499999999        0.18008200000000       -0.25948800000000
C           35.42253400000000        1.28091900000000        0.10198800000000
C           34.77288500000000        2.52440700000000        0.49943300000000
C           35.71559900000000        3.40024700000000        0.78958600000000
C           37.02132100000000        2.75948000000000        0.58227400000000
N           36.84215500000000        1.41092300000000        0.14920100000000
C           38.21649300000000        3.35498700000000        0.76854700000000
C           39.51181000000000        2.66352600000000        0.54072600000000
C           40.80858000000000        3.35016800000000        0.54162300000000
C           41.74176300000000        2.44720100000000        0.32455500000000
N           39.64468000000000        1.38927800000000        0.32878000000000
C           41.04813700000000        1.17219700000000        0.18126300000000
C           41.63972600000000       -0.01791400000000       -0.01772500000000
C           40.88115800000000       -1.28438900000000       -0.15883300000000
C           41.43834600000000       -2.48891300000000       -0.14251800000000
C           40.39111000000000       -3.45449700000000       -0.40249400000000
C           39.25694200000000       -2.78016500000000       -0.55729600000000
C           37.95498900000000       -3.40471400000000       -0.91592900000000
C           37.92992300000000       -4.84650800000000       -1.25049500000000
C           37.86344600000000       -5.25956000000000       -2.58875500000000
C           37.85880400000000       -6.62547000000000       -2.90825900000000
C           37.75302299999999       -7.06534000000000       -4.33858500000000
C           37.88661000000000       -7.57750700000000       -1.87730400000000
C           37.94367400000000       -7.17241500000000       -0.53546300000000
C           38.01041900000000       -8.20300200000000        0.55306700000000
C           37.97521100000000       -5.80401900000000       -0.22699300000000
C           36.80184500000000       -2.71031500000000       -0.92978700000000
C           35.48117400000000       -3.25075600000000       -1.24831000000000
C           34.62592000000000       -2.26625100000000       -1.05887200000000
C           35.38960300000000       -1.09831200000000       -0.62326700000000
N           36.65982200000000       -1.34530400000000       -0.54409900000000
N           39.47716100000000       -1.37495100000000       -0.41031400000000
C           38.26602499999999        4.76525200000000        1.21324800000000
C           37.95054199999999        5.80074300000000        0.32146700000000
C           37.99352799999999        7.13701900000000        0.74475500000000
C           37.67338300000000        8.24603500000000       -0.21378700000000
C           38.39416400000000        7.43513000000000        2.05578200000000
C           38.73519199999999        6.40657200000000        2.94682800000000
C           39.11752299999999        6.72734300000000        4.36148900000000
C           38.65407600000000        5.07168600000000        2.52481000000000
H           33.67526400000000        0.21706200000000       -0.27776600000000
H           33.70827100000000        2.71096000000000        0.55881000000000
H           35.52966599999999        4.41293200000000        1.12221600000000
H           40.98850500000000        4.40707800000000        0.68808600000000
H           42.80400100000000        2.64471400000000        0.26981400000000
H           42.48398499999999       -2.72037600000000        0.00766600000000
H           40.52667300000000       -4.52418200000000       -0.48893800000000
H           37.81936199999999       -4.51815200000000       -3.37856100000000
H           38.25552100000000       -8.04510300000000       -4.48614200000000
H           36.68270099999999       -7.16179500000000       -4.61611100000000
H           38.23754600000000       -6.32668500000000       -5.01271700000000
H           37.86547399999999       -8.63397200000000       -2.11879900000000
H           37.84185500000000       -7.74778200000000        1.55338400000000
H           37.23164900000000       -8.97793800000000        0.38959100000000
H           39.00959700000000       -8.68704200000000        0.54389200000000
H           38.03197800000000       -5.48030400000000        0.80642900000000
H           35.22732400000000       -4.25411000000000       -1.56340800000000
H           33.55432100000000       -2.32776300000000       -1.19604100000000
H           37.66651600000000        5.56524000000000       -0.69756600000000
H           37.18448000000000        9.08988800000000        0.31824600000000
H           36.98219199999999        7.89414600000000       -1.00873000000000
H           38.61066400000000        8.60970100000000       -0.68372300000000
H           38.43998000000000        8.46794500000000        2.38186000000000
H           38.20806199999999        6.73457400000000        4.99650200000000
H           39.60765200000000        7.72223000000000        4.42003900000000
H           39.82884600000000        5.97013700000000        4.75630200000000
H           38.89613900000000        4.27074200000000        3.21372400000000
Zn          95.10821700000000       -0.01025100000000       -0.01446400000000
C           98.46690500000000        0.15917900000000       -0.27519300000000
C           97.80258600000001       -0.49444200000000       -1.23189800000000
C           98.45223500000000       -1.22232000000000       -2.31560500000000
C           97.50952099999999       -1.74480600000000       -3.07606000000000
C           96.20379899999999       -1.36732200000000       -2.51832700000000
N           96.38296499999998       -0.57597800000000       -1.34362200000000
C           95.00862699999999       -1.71200000000000       -3.03844600000000
C           93.71331000000001       -1.30070600000000       -2.43773100000000
C           92.41654000000000       -1.49270300000000       -3.09698500000000
C           91.48335700000000       -1.03286300000000       -2.29012900000000
N           93.58044000000000       -0.74243400000000       -1.27284400000000
C           92.17698299999999       -0.54032000000000       -1.10540700000000
C           91.58539399999998       -0.01791400000000       -0.01772500000000
C           92.34396199999999        0.47015800000000        1.15941500000000
C           91.78677399999999        0.78978300000000        2.32087300000000
C           92.83401000000001        1.30826600000000        3.17592500000000
C           93.96817799999999        1.26924100000000        2.48515400000000
C           95.27013099999999        1.78755100000000        2.98518900000000
C           95.29519699999999        2.51023500000000        4.27686600000000
C           95.36167399999999        3.91058000000000        4.30107000000000
C           95.36631600000000        4.59767500000000        5.52405500000000
C           95.47209700000001        6.09391300000000        5.54839000000000
C           95.33850999999999        3.87248000000000        6.72544400000000
C           95.28144600000000        2.47091100000000        6.70988200000000
C           95.21470100000001        1.71228100000000        8.00274300000000
C           95.24990800000000        1.79372200000000        5.48143800000000
C           96.42327499999999        1.60756600000000        2.31437700000000
C           97.74394599999999        2.06393800000000        2.74479300000000
C           98.59920000000000        1.60793800000000        1.85193200000000
C           97.83551700000000        0.86443800000000        0.85141200000000
N           96.56529799999998        0.85715300000000        1.11067900000000
N           93.74795899999999        0.73690700000000        1.17639400000000
C           94.95909399999999       -2.53169000000000       -4.26918300000000
C           95.27457800000001       -1.96339900000000       -5.51198600000000
C           95.23159199999999       -2.74192700000000       -6.67761900000000
C           95.55173700000000       -2.12998000000000       -8.00962500000000
C           94.83095599999999       -4.08412000000000       -6.59900500000000
C           94.48992800000001       -4.65363600000000       -5.36306600000000
C           94.10759600000000       -6.10167400000000       -5.27736900000000
C           94.57104300000000       -3.87671400000000       -4.19841500000000
H           99.54985600000001        0.16644200000000       -0.31579900000000
H           99.51684899999999       -1.33127900000000       -2.47825700000000
H           97.69545400000000       -2.34618300000000       -3.95612800000000
H           92.23661500000000       -1.92758200000000       -4.07135100000000
H           90.42111900000000       -1.03526500000000       -2.49507500000000
H           90.74113400000000        0.70996600000000        2.58499300000000
H           92.69844699999999        1.68905400000000        4.17926900000000
H           95.40575799999999        4.46278900000000        3.36911300000000
H           94.96959899999999        6.50836700000000        6.44835400000000
H           96.54241800000000        6.38731900000000        5.56378000000000
H           94.98757399999998        6.53578500000000        4.65127700000000
H           95.35964600000000        4.39851100000000        7.67293000000000
H           95.38326499999998        0.62478500000000        7.84396700000000
H           95.99347100000000        2.08501000000000        8.70154400000000
H           94.21552299999999        1.85583300000000        8.46509700000000
H           95.19314100000000        0.71103500000000        5.45818300000000
H           97.99779599999998        2.64587900000000        3.62077900000000
H           99.67079900000000        1.75680800000000        1.87283000000000
H           95.55860399999999       -0.91908700000000       -5.56945200000000
H           96.04063900000000       -2.87588200000000       -8.67202700000000
H           96.24292800000001       -1.26850300000000       -7.89292700000000
H           94.61445600000000       -1.77984900000000       -8.48973000000000
H           94.78513999999998       -4.68480800000000       -7.50023200000000
H           95.01705800000001       -6.71360100000000       -5.10755000000000
H           93.61746800000000       -6.43485000000000       -6.21663700000000
H           93.39627400000001       -6.27010400000000       -4.44019000000000
H           94.32898100000000       -4.31544600000000       -3.23735900000000
C           44.05641600000000       -0.00368800000000       -0.00777400000000
C           45.51464200000000       -0.02552500000000       -0.02564700000000
C           46.64857000000000       -0.04627800000000       -0.02713800000000
C           48.00995200000000       -0.05886800000000       -0.02932900000000
C           49.28417100000000       -0.04856200000000       -0.03409400000000
C           50.47263300000000       -0.02976400000000       -0.04025000000000
C           51.82499400000000       -0.00497900000000       -0.02438200000000
C           52.92526100000000       -0.00368800000000       -0.00777400000000
C           62.11808000000000       -0.00368800000000       -0.00777400000000
C           63.57630600000000       -0.02552500000000       -0.02564700000000
C           64.71023400000000       -0.04627800000000       -0.02713800000000
C           66.07161600000001       -0.05886800000000       -0.02932900000000
C           67.34583499999999       -0.04856200000000       -0.03409400000000
C           68.53429700000000       -0.02976400000000       -0.04025000000000
C           69.88665800000000       -0.00497900000000       -0.02438200000000
C           70.98692500000000       -0.00368800000000       -0.00777400000000
C           80.17974399999999       -0.00368800000000       -0.00777400000000
C           81.63797000000000       -0.02552500000000       -0.02564700000000
C           82.77189900000000       -0.04627800000000       -0.02713800000000
C           84.13327999999998       -0.05886800000000       -0.02932900000000
C           85.40749900000000       -0.04856200000000       -0.03409400000000
C           86.59596200000000       -0.02976400000000       -0.04025000000000
C           87.94832200000000       -0.00497900000000       -0.02438200000000
C           89.04859000000000       -0.00368800000000       -0.00777400000000
Zn          57.47936399999999       -0.07506400000000       -0.03580800000000
C           54.11000200000000        0.01884200000000        0.01938100000000
C           54.76626999999999        1.18976300000000       -0.07928400000000
C           54.12630500000000        2.50680600000000       -0.09418400000000
C           55.06246800000000        3.42039300000000       -0.25576400000000
C           56.35890799999999        2.74196300000000       -0.35583700000000
N           56.18072799999999        1.32871800000000       -0.23473000000000
C           57.54295799999999        3.36188000000000       -0.54622200000000
C           58.84028000000000        2.63925900000000       -0.58140900000000
C           60.10925600000000        3.25644900000000       -0.98860300000000
C           61.06199299999999        2.35995500000000       -0.83380700000000
N           59.00824600000000        1.41165200000000       -0.19961800000000
C           60.40688099999999        1.15851100000000       -0.33287400000000
C           61.02181200000000        0.01884200000000        0.01938100000000
C           60.27063199999999       -1.16511100000000        0.48720400000000
C           60.80513199999999       -2.17752500000000        1.15803100000000
C           59.77271699999999       -3.18529200000000        1.30798200000000
C           58.67908899999999       -2.72068400000000        0.71438300000000
C           57.42611200000000       -3.49327900000000        0.53793300000000
C           57.48944599999999       -4.97284700000000        0.62393400000000
C           56.79177200000000       -5.65749200000000        1.63107000000000
C           56.86745100000000       -7.05459500000000        1.72347000000000
C           56.15737200000000       -7.77399700000000        2.83149900000000
C           57.67283300000000       -7.76506700000000        0.82071700000000
C           58.36804200000000       -7.09106400000000       -0.19418200000000
C           59.25259000000000       -7.85551900000000       -1.13401900000000
C           58.28516900000000       -5.69354200000000       -0.27871900000000
C           56.25420699999999       -2.88089400000000        0.28157600000000
C           54.97939600000000       -3.54075700000000        0.01929300000000
C           54.09113300000000       -2.57824400000000       -0.12360700000000
C           54.78770200000000       -1.29780900000000        0.04013500000000
N           56.05199300000000       -1.46779500000000        0.27398800000000
N           58.90311999999999       -1.42149000000000        0.17026000000000
C           57.57735499999999        4.83280000000000       -0.71921900000000
C           58.16472900000000        5.64158200000000        0.26443700000000
C           58.21318200000000        7.03380000000000        0.10264600000000
C           58.88494000000000        7.88891300000000        1.13621100000000
C           57.69443900000000        7.61286300000000       -1.06552900000000
C           57.09390400000000        6.81324000000000       -2.04965500000000
C           56.57205299999999        7.43589500000000       -3.31002200000000
C           57.05183900000000        5.42176600000000       -1.87923000000000
H           53.07230700000000        2.72643500000000        0.01055100000000
H           54.87717300000000        4.48612500000000       -0.29492300000000
H           60.25856699999999        4.26506700000000       -1.35116800000000
H           62.11159599999999        2.51514000000000       -1.04546500000000
H           61.82902100000000       -2.26067800000000        1.49759200000000
H           59.88919799999999       -4.15326200000000        1.77758900000000
H           56.19788000000000       -5.10092300000000        2.34678800000000
H           55.91851299999999       -8.81805800000000        2.53473200000000
H           56.80537899999999       -7.79313000000000        3.73248300000000
H           55.20448100000000       -7.26131200000000        3.08186500000000
H           57.76020599999999       -8.84192100000000        0.90825500000000
H           59.40143500000000       -7.29593800000000       -2.08271300000000
H           58.79563300000000       -8.83730500000000       -1.38293000000000
H           60.24061100000000       -8.02450400000000       -0.65579100000000
H           58.83835300000000       -5.16467500000000       -1.04604000000000
H           54.77676599999999       -4.60080300000000       -0.05758900000000
H           53.04171200000000       -2.73172000000000       -0.33565800000000
H           58.58555300000000        5.18524800000000        1.15310200000000
H           58.45154400000000        8.91172300000000        1.14248700000000
H           59.96964800000000        7.95689600000000        0.91051300000000
H           58.75160300000000        7.45428800000000        2.14962700000000
H           57.75782900000000        8.68510100000000       -1.20921800000000
H           56.14581100000000        8.43976300000000       -3.09962600000000
H           55.77087299999999        6.80941000000000       -3.75799500000000
H           57.40100300000000        7.53947700000000       -4.04128800000000
H           56.61615400000000        4.79475200000000       -2.64876900000000
Zn          75.54102799999998       -0.07506400000000       -0.03580800000000
C           72.17166600000000        0.01884200000000        0.01938100000000
C           72.82793500000000        1.18976300000000       -0.07928400000000
C           72.18797000000001        2.50680600000000       -0.09418400000000
C           73.12413200000000        3.42039300000000       -0.25576400000000
C           74.42057300000000        2.74196300000000       -0.35583700000000
N           74.24239200000000        1.32871800000000       -0.23473000000000
C           75.60462200000001        3.36188000000000       -0.54622200000000
C           76.90194399999999        2.63925900000000       -0.58140900000000
C           78.17091999999998        3.25644900000000       -0.98860300000000
C           79.12365699999998        2.35995500000000       -0.83380700000000
N           77.06990999999999        1.41165200000000       -0.19961800000000
C           78.46854499999999        1.15851100000000       -0.33287400000000
C           79.08347600000000        0.01884200000000        0.01938100000000
C           78.33229699999998       -1.16511100000000        0.48720400000000
C           78.86679599999999       -2.17752500000000        1.15803100000000
C           77.83438099999999       -3.18529200000000        1.30798200000000
C           76.74075299999998       -2.72068400000000        0.71438300000000
C           75.48777600000000       -3.49327900000000        0.53793300000000
C           75.55110999999999       -4.97284700000000        0.62393400000000
C           74.85343600000000       -5.65749200000000        1.63107000000000
C           74.92911499999998       -7.05459500000000        1.72347000000000
C           74.21903600000000       -7.77399700000000        2.83149900000000
C           75.73449700000000       -7.76506700000000        0.82071700000000
C           76.42970599999998       -7.09106400000000       -0.19418200000000
C           77.31425400000001       -7.85551900000000       -1.13401900000000
C           76.34683300000000       -5.69354200000000       -0.27871900000000
C           74.31587099999999       -2.88089400000000        0.28157600000000
C           73.04106000000000       -3.54075700000000        0.01929300000000
C           72.15279800000000       -2.57824400000000       -0.12360700000000
C           72.84936600000000       -1.29780900000000        0.04013500000000
N           74.11365699999999       -1.46779500000000        0.27398800000000
N           76.96478399999998       -1.42149000000000        0.17026000000000
C           75.63901900000000        4.83280000000000       -0.71921900000000
C           76.22639300000000        5.64158200000000        0.26443700000000
C           76.27484599999998        7.03380000000000        0.10264600000000
C           76.94660500000001        7.88891300000000        1.13621100000000
C           75.75610300000000        7.61286300000000       -1.06552900000000
C           75.15556900000000        6.81324000000000       -2.04965500000000
C           74.63371800000000        7.43589500000000       -3.31002200000000
C           75.11350299999999        5.42176600000000       -1.87923000000000
H           71.13397100000000        2.72643500000000        0.01055100000000
H           72.93883699999999        4.48612500000000       -0.29492300000000
H           78.32023100000001        4.26506700000000       -1.35116800000000
H           80.17326000000000        2.51514000000000       -1.04546500000000
H           79.89068600000000       -2.26067800000000        1.49759200000000
H           77.95086200000000       -4.15326200000000        1.77758900000000
H           74.25954400000001       -5.10092300000000        2.34678800000000
H           73.98017700000000       -8.81805800000000        2.53473200000000
H           74.86704300000000       -7.79313000000000        3.73248300000000
H           73.26614499999999       -7.26131200000000        3.08186500000000
H           75.82186999999999       -8.84192100000000        0.90825500000000
H           77.46309900000000       -7.29593800000000       -2.08271300000000
H           76.85729699999999       -8.83730500000000       -1.38293000000000
H           78.30227499999999       -8.02450400000000       -0.65579100000000
H           76.90001700000001       -5.16467500000000       -1.04604000000000
H           72.83842999999999       -4.60080300000000       -0.05758900000000
H           71.10337600000000       -2.73172000000000       -0.33565800000000
H           76.64721800000000        5.18524800000000        1.15310200000000
H           76.51320800000001        8.91172300000000        1.14248700000000
H           78.03131200000000        7.95689600000000        0.91051300000000
H           76.81326700000000        7.45428800000000        2.14962700000000
H           75.81949299999999        8.68510100000000       -1.20921800000000
H           74.20747500000000        8.43976300000000       -3.09962600000000
H           73.83253700000000        6.80941000000000       -3.75799500000000
H           75.46266700000000        7.53947700000000       -4.04128800000000
H           74.67781900000000        4.79475200000000       -2.64876900000000
294
 energy: -465.319278593863 gnorm: 0.786278182338 xtb: 6.5.1 (b24c23e)
Zn          38.11825164018164       -0.02252572640790       -0.02529183295918
C           34.75888425898425        0.16853746088376       -0.26323146066879
C           35.42803317562529        1.28287631988489        0.10288739945785
C           34.77160124267674        2.52026651986319        0.49794712409747
C           35.72171910067691        3.40232214775719        0.79019643266804
C           37.01909562217376        2.75455360818386        0.58111614647457
N           36.82897703640549        1.42351363217063        0.15376739433884
C           38.22712081338318        3.35252784491527        0.76719844509130
C           39.50712647165302        2.67474594579816        0.54390918233624
C           40.80071668291304        3.35667650930613        0.54391790430079
C           41.74310932893310        2.44260021407141        0.32339836096215
N           39.65353404053131        1.38787920678455        0.32765847412241
C           41.05537104727640        1.17091226576289        0.18075877019529
C           41.63777354914906       -0.02760436520941       -0.01860323409864
C           40.88015879416900       -1.27140292507254       -0.16029018696142
C           41.43986238132477       -2.50546940468718       -0.14425423491696
C           40.40688512703725       -3.45644136267428       -0.40075399955766
C           39.24724699808982       -2.77089868122565       -0.55922274019947
C           37.96439622319063       -3.39926701756154       -0.91322045019720
C           37.93274300186277       -4.84768233378649       -1.25052972626651
C           37.86362794017568       -5.26152194662911       -2.58653815750515
C           37.85748729548098       -6.62480593545183       -2.90557667288286
C           37.75414648864138       -7.06577240878557       -4.34027471555315
C           37.88683432918378       -7.57390096030605       -1.87660431246877
C           37.94419905229572       -7.17027791172835       -0.53699679874360
C           38.00969473493954       -8.20392932292960        0.55457143242366
C           37.97553715610772       -5.80516802061622       -0.22960162967242
C           36.80014571667946       -2.70903851785185       -0.92956940477823
C           35.48665665777510       -3.25204154330082       -1.24796950452706
C           34.61994173050049       -2.25892232735873       -1.05731186363193
C           35.37664066838826       -1.09186079746281       -0.62156558338465
N           36.65961487558496       -1.35325124081067       -0.54738477875972
N           39.48368701384983       -1.38020361002946       -0.41010494328451
C           38.26848530524457        4.76755415572059        1.21325930563350
C           37.95047554552209        5.80181352173105        0.32441308396994
C           37.99495161629797        7.13526923162304        0.74603123335995
C           37.67195098492882        8.24722797515861       -0.21456314284280
C           38.39398354466829        7.43180056149475        2.05476948711860
C           38.73323880116361        6.40611479630775        2.94489711425734
C           39.11920214651074        6.72773673970108        4.36278237069341
C           38.65426383919884        5.07424541816992        2.52307092331155
H           33.67552400924749        0.21509285184802       -0.27864187084184
H           33.70820791107207        2.70772682258876        0.55768766812637
H           35.53375524403211        4.41340590905834        1.12234158044107
H           40.98525311667672        4.40877383682873        0.68875140061855
H           42.80404006871592        2.64051804987999        0.26911129929287
H           42.48445879510238       -2.72236745766341        0.00767324670354
H           40.52863697400650       -4.52451201905087       -0.48817476316488
H           37.81973635674115       -4.51876600214016       -3.37775909739421
H           38.25284355608749       -8.04163421004373       -4.48586522559989
H           36.68713837914224       -7.16171199903281       -4.61604940462644
H           38.23490547683521       -6.32947719271778       -5.01054047308846
H           37.86562465514708       -8.63293754769608       -2.11860780977372
H           37.84296629242244       -7.74970720218880        1.54930949322843
H           37.23523296889661       -8.97578491011309        0.39053329710679
H           39.00535811429629       -8.68590598016477        0.54455380028464
H           38.03181883718363       -5.48067095108427        0.80545804323219
H           35.23124276069500       -4.25417660040894       -1.56314730020101
H           33.55289167991759       -2.32497674285266       -1.19547863118648
H           37.66664192703313        5.56529017357944       -0.69664147876524
H           37.18694049292334        9.08725481683859        0.31583564799709
H           36.98538710532679        7.89570425507172       -1.00622007541750
H           38.60653268981554        8.60905228175866       -0.68248149471212
H           38.43999498427824        8.46696777377101        2.38157141448187
H           38.21207158787043        6.73476210189944        4.99498541805891
H           39.60523794407693        7.71869469808154        4.42037457416862
H           39.82555295942679        5.97295149344087        4.75542552606561
H           38.89610711762280        4.27136582507311        3.21304559409253
Zn          95.10682181559021       -0.00936351543101       -0.01540161190790
C           98.46624302494560        0.16599888356500       -0.26513361558536
C           97.79706857170375       -0.49585056598160       -1.23352644875472
C           98.45351633870783       -1.21973876743235       -2.31203845519576
C           97.50339990246860       -1.74597136242440       -3.07788802990181
C           96.20600648336635       -1.36485190251746       -2.51395414432329
N           96.39616285960214       -0.58386364652023       -1.35443087093441
C           94.99807246947643       -1.71004393014966       -3.03647075871670
C           93.71796423166141       -1.30687732632704       -2.44760326568075
C           92.42442866107741       -1.49669785921293       -3.10260110949410
C           91.48203810497601       -1.03046826337681       -2.28592566338217
N           93.57171860816290       -0.74097897249697       -1.27199864224110
C           92.16988360649231       -0.53939392763256       -1.10415204956678
C           91.58766834411624       -0.01487059800347       -0.00838370304657
C           92.34517960352318        0.46789668416537        1.14637111166691
C           91.78532107482972        0.79604098707573        2.33622821938645
C           92.81822903289962        1.30713905364273        3.17828456674172
C           93.97791106607073        1.26851953178185        2.47572805156443
C           95.26072527720765        1.78343022762107        2.98071433234572
C           95.29238160793408        2.51059070191057        4.27797791989072