177
 energy: -291.103125879606 gnorm: 0.539692051573 xtb: 6.5.1 (b24c23e)
Zn          31.04059900000000        0.36747100000000        0.27330600000000
C           27.70605600000000        0.24130600000000        0.23164700000000
C           28.36694800000000       -0.92009400000000        0.23241500000000
C           27.71506300000000       -2.22277500000000        0.28281100000000
C           28.65375700000000       -3.14966500000000        0.22795600000000
C           29.95864200000000       -2.48165700000000        0.12870300000000
N           29.78304300000000       -1.06427100000000        0.14308100000000
C           31.14908000000000       -3.10786300000000        0.01384000000000
C           31.20032200000000       -4.58851100000000       -0.03544000000000
C           30.72962000000000       -5.24916600000000       -1.10425300000000
C           30.71876000000000       -6.75480600000000       -1.17844500000000
N           31.52242200000000       -7.37226800000000       -0.12031900000000
C           31.96917500000000       -6.64398500000000        1.02800900000000
C           31.81999200000000       -5.32263500000000        1.08464000000000
C           32.43947100000000       -2.37331800000000       -0.06334700000000
C           33.71975100000000       -3.00285200000000       -0.41082200000000
C           34.65425500000000       -2.07538400000000       -0.35054400000000
N           32.58524000000000       -1.11021300000000        0.19590200000000
C           33.97825700000000       -0.84318200000000        0.03526700000000
C           34.57426799999999        0.33649700000000        0.27485900000000
C           33.81024500000000        1.54577700000000        0.65019800000000
C           34.33437700000000        2.60738400000000        1.25012800000000
C           33.29226900000000        3.61323400000000        1.33345500000000
C           32.20233800000000        3.09949600000000        0.77370200000000
N           32.44048400000000        1.76765300000000        0.31613900000000
C           30.93121200000000        3.84025500000000        0.57308800000000
C           30.97043300000000        5.32414900000000        0.57841900000000
C           30.29376600000000        6.02258800000000        1.50543300000000
C           30.26933700000000        7.52964400000000        1.51671100000000
N           31.27612600000000        8.11276900000000        0.62612100000000
C           31.95240900000000        7.34437800000000       -0.37493600000000
C           31.81384900000000        6.02104900000000       -0.41282800000000
C           29.76986900000000        3.19185900000000        0.35953600000000
C           28.46843000000000        3.80485100000000        0.09807200000000
C           27.60512300000000        2.81060000000000        0.01368000000000
C           28.34702300000000        1.56566600000000        0.20577900000000
N           29.60903500000000        1.77574200000000        0.40805000000000
H           26.62283000000000        0.21631500000000        0.24646100000000
H           26.65216700000000       -2.41380500000000        0.35593700000000
H           28.46442600000000       -4.21440800000000        0.25075800000000
H           30.28259300000000       -4.69909100000000       -1.92449300000000
H           31.11606300000000       -7.07089400000000       -2.16670100000000
H           29.67024300000000       -7.10884200000000       -1.08984600000000
H           31.67323700000000       -8.40516200000000       -0.14707500000000
H           32.45091800000000       -7.16879500000000        1.84353600000000
H           32.17918900000000       -4.78061400000000        1.95168500000000
H           33.88715300000000       -4.03947100000000       -0.67296600000000
H           35.70540300000000       -2.23044300000000       -0.55187600000000
H           35.35580800000000        2.72090500000000        1.58843200000000
H           33.39625700000000        4.60846200000000        1.74659900000000
H           29.69415600000000        5.50050000000000        2.24207900000000
H           30.45428700000000        7.88303100000000        2.55280400000000
H           29.26167700000000        7.87319400000000        1.20120300000000
H           31.41880400000000        9.14657300000000        0.64228100000000
H           32.59322600000000        7.84151500000000       -1.09245900000000
H           32.34227900000000        5.45040300000000       -1.16710500000000
H           28.23028000000000        4.85471200000000       -0.00959600000000
H           26.54269900000000        2.91300200000000       -0.16784500000000
Zn          51.53085800000000        0.30657800000000        0.26669300000000
C           54.86540100000000        0.43874400000000        0.25308600000000
C           54.20450900000000        1.57291000000000        0.50311800000000
C           54.85639400000000        2.83441400000000        0.83194800000000
C           53.91770000000000        3.75147400000000        0.97731900000000
C           52.61281500000000        3.12033900000000        0.73699800000000
N           52.78841400000000        1.73290200000000        0.44681300000000
C           51.42237699999999        3.75660400000000        0.75922100000000
C           51.37113399999999        5.21332100000000        1.02889600000000
C           51.84183600000000        6.08798800000000        0.12679600000000
C           51.85269700000000        7.57446100000000        0.37750400000000
N           51.04903500000000        7.95041600000000        1.54350100000000
C           50.60228200000000        6.99263000000000        2.50874700000000
C           50.75146500000000        5.68992100000000        2.28044300000000
C           50.13198600000000        3.05574800000000        0.52617000000000
C           48.85170600000000        3.74519100000000        0.32191700000000
C           47.91720099999999        2.82640000000000        0.18171800000000
N           49.98621599999999        1.76643600000000        0.50826400000000
C           48.59320000000000        1.54010700000000        0.29405700000000
C           47.99718900000000        0.33649700000000        0.27485900000000
C           48.76121200000000       -0.92516200000000        0.38189000000000
C           48.23707900000000       -2.09079500000000        0.73997400000000
C           49.27918800000000       -3.09108800000000        0.60546400000000
C           50.36911900000000       -2.46917800000000        0.16902500000000
N           50.13097300000000       -1.07016400000000        0.00799400000000
C           51.64024400000000       -3.14961200000000       -0.18591000000000
C           51.60102400000000       -4.60006600000000       -0.49920600000000
C           52.27769100000000       -5.48120000000000        0.25629000000000
C           52.30212000000000       -6.95555300000000       -0.05617000000000
N           51.29533099999999       -7.33393000000000       -1.05116500000000
C           50.61904800000000       -6.36858100000000       -1.86396300000000
C           50.75760800000000       -5.06796200000000       -1.61693300000000
C           52.80158800000000       -2.47049100000000       -0.25531300000000
C           54.10302699999999       -3.01307600000000       -0.64225600000000
C           54.96633400000000       -2.02388300000000       -0.51127400000000
C           54.22443400000000       -0.84919700000000       -0.05644000000000
N           52.96242199999999       -1.09779200000000        0.09602600000000
H           55.94862700000000        0.45997300000000        0.27291900000000
H           55.91928999999999        3.00529500000000        0.94437200000000
H           54.10703100000000        4.78650700000000        1.22812700000000
H           52.28886400000000        5.72679000000000       -0.79239400000000
H           51.45539400000000        8.09530200000000       -0.51987400000000
H           52.90121400000000        7.90122900000000        0.54002900000000
H           50.89822000000000        8.96497900000000        1.73906900000000
H           50.12053900000000        7.33016300000000        3.41791100000000
H           50.39226800000000        4.97443000000000        3.01094000000000
H           48.68430399999999        4.81391600000000        0.28838200000000
H           46.86605300000000        3.02106000000000        0.01836000000000
H           47.21564900000000       -2.27428400000000        1.04602800000000
H           49.17520000000000       -4.15179700000000        0.79536200000000
H           52.87730100000000       -5.12939500000000        1.08782800000000
H           52.11717000000000       -7.52309000000000        0.87992400000000
H           53.30978000000000       -7.22337500000000       -0.43806400000000
H           51.15265300000000       -8.34710800000000       -1.25727700000000
H           49.97823000000000       -6.70012300000000       -2.67146900000000
H           50.22917800000000       -4.34871800000000       -2.23114700000000
H           54.34117699999999       -4.01535800000000       -0.97275700000000
H           56.02875800000000       -2.08493600000000       -0.71054800000000
C           35.95181200000000        0.33649700000000        0.27485900000000
C           37.17372999999999        0.33649700000000        0.27485900000000
C           45.39772700000000        0.33649700000000        0.27485900000000
C           46.61964400000000        0.33649700000000        0.27485900000000
Zn          40.99709399999999       -0.14859400000000       -0.41324000000000
C           38.16344400000000       -0.70841400000000       -0.57865100000000
C           38.48267200000000        0.33690700000000       -1.34364800000000
C           38.27851099999999        1.73741000000000       -0.96904800000000
C           39.08766399999999        2.48915200000000       -1.69679700000000
C           39.95263800000000        1.59871600000000       -2.47446300000000
N           39.53786300000000        0.24731500000000       -2.29374200000000
C           41.18517400000000        1.93652900000000       -2.89237200000000
C           41.52983999999999        3.35253100000000       -3.19050600000000
C           40.73628700000000        4.08520900000000       -3.99016000000000
C           41.04483400000000        5.51535600000000       -4.35181100000000
N           42.17318800000000        6.05593800000000       -3.58784800000000
C           43.03135500000000        5.23511700000000       -2.79369800000000
C           42.74134300000000        3.95397000000000       -2.59695200000000
C           42.28583600000000        0.96971600000000       -2.69945100000000
C           43.41579100000000        0.77024800000000       -3.60866600000000
C           44.31281600000000        0.03223000000000       -2.97142700000000
N           42.49652600000000        0.41535100000000       -1.54839900000000
C           43.77340999999999       -0.20302900000000       -1.63394000000000
C           44.43689800000000       -0.70841400000000       -0.57865100000000
C           43.83463199999999       -0.75699800000000        0.77681100000000
C           44.51287100000000       -0.76257800000000        1.92107200000000
C           43.53865800000000       -0.81956600000000        3.00309800000000
C           42.33066100000000       -0.85534400000000        2.44584600000000
N           42.43342100000000       -0.81400900000000        1.02097000000000
C           41.04220800000000       -0.99917200000000        3.18557900000000
C           41.05648600000000       -1.43152700000000        4.60609000000000
C           41.63541700000000       -2.59259100000000        4.95051900000000
C           41.70551300000000       -3.05466400000000        6.38279400000000
N           40.76323300000000       -2.33647500000000        7.23947900000000
C           40.23636799999999       -1.05624700000000        6.87439800000000
C           40.37725300000000       -0.61001100000000        5.62595700000000
C           39.86741800000000       -0.83243200000000        2.54588200000000
C           38.53684500000000       -1.22879600000000        3.01322300000000
C           37.73642400000000       -1.15587400000000        1.95804800000000
C           38.53292900000000       -0.66242100000000        0.83606000000000
N           39.76573399999999       -0.48675000000000        1.17590400000000
H           37.59918700000000        2.10613700000000       -0.21262400000000
H           39.18876399999999        3.55981600000000       -1.58910700000000
H           39.86047800000000        3.63353800000000       -4.43868400000000
H           41.27878700000000        5.56784400000000       -5.43818100000000
H           40.14420899999999        6.13669100000000       -4.15411900000000
H           42.41465500000000        7.06119200000000       -3.70390500000000
H           43.91122400000000        5.66300900000000       -2.33688800000000
H           43.39404699999999        3.35753200000000       -1.97300200000000
H           43.52123599999999        1.16936300000000       -4.60974300000000
H           45.27098800000000       -0.27361000000000       -3.36986100000000
H           45.58715500000000       -0.71763100000000        2.03360900000000
H           43.76072800000000       -0.85050800000000        4.06301100000000
H           42.12186300000000       -3.19708500000000        4.19969600000000
H           42.73501000000000       -2.89556800000000        6.76197100000000
H           41.47531100000000       -4.14032800000000        6.42104400000000
H           40.60233800000000       -2.68658700000000        8.21074600000000
H           39.69397300000000       -0.47207700000000        7.59953400000000
H           39.95900899999999        0.35538300000000        5.35943900000000
H           38.25801600000000       -1.59659300000000        3.99071600000000
H           36.69609400000000       -1.44094200000000        1.93594900000000
177
 energy: -291.284495619115 gnorm: 0.352210329659 xtb: 6.5.1 (b24c23e)
Zn          31.04225494085566        0.36293545767023        0.27313106160640
C           27.70499355489681        0.26062967731856        0.23068479918074
C           28.37058064220823       -0.92101199422179        0.23231985032237
C           27.71502189825638       -2.21583899349903        0.28247390359825
C           28.66527196963796       -3.15251711343410        0.22653650025926
C           29.95797782138176       -2.47828732176918        0.12950903860233
N           29.75827118396422       -1.08860618774680        0.14764384064061
C           31.16620467648190       -3.10565172141234        0.01561142713335
C           31.20885235962684       -4.58696106780567       -0.03485199326442
C           30.72993938050850       -5.25088458167634       -1.09584026997642
C           30.72161884530057       -6.75735356451345       -1.17268957352788
N           31.53175739570130       -7.36820663407408       -0.11040888930180
C           31.96229142345182       -6.64882490146622        1.01289092622587
C           31.81929187883688       -5.31737935577940        1.07831856191503
C           32.43148399534628       -2.39857807788613       -0.06413457399353
C           33.70369711134166       -3.02123939745880       -0.40981701724339
C           34.64756627086501       -2.07162014660175       -0.34752369801283
N           32.59204867404570       -1.11526893223587        0.18185506720434
C           33.96193149845800       -0.85375110759730        0.03027751131958
C           34.54162460778505        0.35008397878000        0.27765883401179
C           33.79277970730985        1.54645459534076        0.63784835568350
C           34.33649219632083        2.63471600300424        1.25552311788824
C           33.31745111082790        3.61937085403549        1.33590438125632
C           32.19601107926110        3.09202016059269        0.76065395924783
N           32.44319012145470        1.77500349877789        0.32802651941343
C           30.94874460582373        3.82968262230969        0.56795648311363
C           30.98248840217568        5.31605536042811        0.58038640349786
C           30.29669404695423        6.02042982220945        1.49555111701474
C           30.27411249620838        7.52990506874013        1.51146490228594
N           31.28710819276458        8.10748178682323        0.61839154250205
C           31.94140606411424        7.34828333115969       -0.36182742552262
C           31.81150354534711        6.01419787208234       -0.40667224629590
C           29.76864667520076        3.19173665608013        0.35751410464124
C           28.47512868302703        3.80275601270877        0.10059592226937
C           27.59115422895242        2.79861548658695        0.01435625452676
C           28.32218675167364        1.55883868309225        0.20692447225797
N           29.60299555661462        1.79008232460825        0.40008212304717
H           26.62217777054046        0.22583682750552        0.24461596521006
H           26.65236084914478       -2.40173219467763        0.35576694459681
H           28.48019373269339       -4.21658393187380        0.24983156681218
H           30.28516806369524       -4.70692339747531       -1.92405431338328
H           31.11326957769272       -7.07375832677978       -2.15819451132971
H           29.67442501622315       -7.11211525811120       -1.09381062907900
H           31.66954753472573       -8.38198135453421       -0.14179833002083
H           32.44505122043847       -7.18194306560490        1.82707257938651
H           32.17649441976697       -4.77766108672972        1.94740980282833
H           33.87511054003634       -4.05071563681754       -0.67269851112242
H           35.70155317532991       -2.21566944361382       -0.54890537282620
H           35.35639808144610        2.72947150478232        1.59360076124274
H           33.40624194926457        4.60996042924912        1.75126935776066
H           29.69667951565930        5.50752160696301        2.24142590172146
H           30.45320833302882        7.88528977746824        2.54388643438254
H           29.26579358110390        7.87543927709996        1.20548818592998
H           31.41604186119406        9.12274106946069        0.63747984793274
H           32.58369750721281        7.85426278835892       -1.07759340126816
H           32.33927879560689        5.44702002820710       -1.16353599853744
H           28.24461461688259        4.85336632026937       -0.00769852019228
H           26.53465004666588        2.90279952210348       -0.16856223892933
Zn          51.52883336808394        0.31111420714818        0.26772701784228
C           54.86661509059274        0.41982594505026        0.24801738317204
C           54.20068682660276        1.57372619819200        0.50334777648292
C           54.85635825534745        2.82763187603415        0.83021129580571
C           53.90616044078465        3.75464912965944        0.97665361766021
C           52.61343108740928        3.11740541831774        0.73691224827715
N           52.81337108528646        1.75539948095740        0.45646132922839
C           51.40591320715674        3.75416925590402        0.76064111403512
C           51.36271202138418        5.21158964849292        1.02921240491492
C           51.84138915746419        6.08785608662421        0.13544187525277
C           51.84991126627158        7.57573576384850        0.38372695424755
N           51.03963155568403        7.94448927203771        1.55218075096913
C           50.60909217601525        7.00041516179420        2.49519537967743
C           50.75216872890864        5.68620624738283        2.27316537188712
C           50.13958159508464        3.08031485660171        0.53168904731725
C           48.86856633794554        3.76191759520128        0.32687589443988
C           47.92515570385812        2.81924343288783        0.18379959773162
N           49.97959377249791        1.77402608072954        0.49585162085401
C           48.61087550830634        1.54730873414071        0.28695887720913
C           48.02560462696240        0.31483150059083        0.26818371833149
C           48.77512022479439       -0.92633740424827        0.37162560794017
C           48.23352803366612       -2.12116647017990        0.73974215314346
C           49.25413169552404       -3.09828828070374        0.60699561510096
C           50.37462636363819       -2.45879704041071        0.15789707159522
N           50.12556210201790       -1.07951300103233        0.01758735871942
C           51.62271773865908       -3.13785449471766       -0.18852358375094
C           51.58885236060579       -4.59242873317675       -0.49532885433907
C           52.27460978037815       -5.47691647723010        0.24721043525094
C           52.29739631286258       -6.95466580781500       -0.06131423940951
N           51.28439794398097       -7.32719523759685       -1.05747379650002
C           50.63000622731838       -6.37509963394742       -1.85199810280357
C           50.76000081836485       -5.06260419764367       -1.60937198038520
C           52.80268582848816       -2.46993762958158       -0.25710672455520
C           54.09631505919319       -3.01157075036633       -0.63929078236398
C           54.98028296605886       -2.01232597094346       -0.50792596239295
C           54.24932787677368       -0.84255073701359       -0.05369729471496
N           52.96832924614736       -1.10994773516425        0.08510915813342
H           55.94941185014826        0.45098359810522        0.26906511006784
H           55.91910381362808        2.99349304309540        0.94166818615483
H           54.09136512379381        4.78891947862189        1.22780241102123
H           52.28633537027607        5.73436857435564       -0.79017278223459
H           51.45822991218311        8.09636739506785       -0.51094840127072
H           52.89710739709337        7.90540105182101        0.53692135996046
H           50.90200236744752        8.94130038424096        1.73932010019468
H           50.12638116274444        7.34653462286287        3.40480310113859
H           50.39497733628947        4.97250061885935        3.00615532946423
H           48.69644473388040        4.82419230641619        0.29092266528945
H           46.87102791358191        3.00450346882766        0.01882057546360
H           47.21424264780006       -2.28564448822720        1.04942749467810
H           49.16563922371176       -4.15478823412753        0.79979236300386
H           52.87477281644339       -5.13612164599910        1.08571796330316
H           52.11826652983864       -7.52342194694642        0.87078928118193
H           53.30573167395339       -7.22658520712087       -0.43431170822998
H           51.15542131830409       -8.32284341481309       -1.25679040808604
H           49.98774073924983       -6.71576405592536       -2.65967602202633
H           50.23219399548547       -4.34620018280088       -2.22687341686557
H           54.32686748336500       -4.01449452638107       -0.97056337775382
H           56.03684277799251       -2.07486689996950       -0.70897411113886
C           35.91901790644799        0.33427831933600        0.28635335734372
C           37.13982864593882        0.29210963732035        0.29912426070473
C           45.41921430478237        0.32852404822995        0.22214974164493
C           46.64768581995133        0.33498362370471        0.24772169741175
Zn          41.01006418703768       -0.16206795946539       -0.39892110467058
C           38.11620347377201       -0.67856864267181       -0.55728037725520
C           38.53357295309462        0.36220674698676       -1.34519416002224
C           38.27790353876092        1.75500402364638       -0.99759437836164
C           39.09605428985164        2.50716403758499       -1.72236867147835
C           39.95364057770828        1.59932749115802       -2.47283232018970
N           39.55654118284531        0.26917873812059       -2.27205563006491
C           41.20053385212677        1.94472386001838       -2.89519220114328
C           41.53677037053996        3.34918814559617       -3.19032920289174
C           40.74144980906308        4.08618011284191       -3.98561341824143
C           41.05028530186316        5.51644608908028       -4.34785562642624
N           42.18060697514756        6.05235918197986       -3.57811168219559
C           43.01888326134866        5.24071847224099       -2.80445924166520
C           42.73806754862943        3.94697125226565       -2.60228419964084
C           42.29149809688605        0.98780871341404       -2.72995464221451
C           43.40694717989888        0.78196839847742       -3.62006566579992
C           44.31558680830749        0.03744805658095       -2.95710834500025
N           42.49201700779413        0.38511173285574       -1.58028937304103
C           43.77301559485152       -0.19403753938641       -1.63768433292576
C           44.42359315400707       -0.64635399339179       -0.51939934142745
C           43.79693369981216       -0.77121133063489        0.78247572419892
C           44.50758992461146       -0.77994660709475        1.96347902662572
C           43.55909553845365       -0.81981700051052        3.01086082421236
C           42.31560087914242       -0.85769412161873        2.43656077330083
N           42.42590464340454       -0.82629950111039        1.03839944603606
C           41.05435486033727       -0.99481580848391        3.17758522546657
C           41.06296224452859       -1.42371441341740        4.60057793048298
C           41.63731518879158       -2.58357859718588        4.95321058357312
C           41.70170805008292       -3.05044135093676        6.38587961609673
N           40.75175545129709       -2.32736037511292        7.23745854243295
C           40.24457156870216       -1.07245876832444        6.87148369612363
C           40.38024472001419       -0.61394464542054        5.61672745972938
C           39.86800265978638       -0.83360294972289        2.54442874285677
C           38.54647276097992       -1.23020106977405        3.01894976007038
C           37.73011959904376       -1.18674938566639        1.96276400568858
C           38.51232960252842       -0.69518742681701        0.83767740247736
N           39.76044821688799       -0.47729636543876        1.18913142752386
H           37.60804918856581        2.11602485573016       -0.22959350852935
H           39.20221037152923        3.57071679001476       -1.60447688254052
H           39.86225602950573        3.64016787792344       -4.43944810117695
H           41.27568073770726        5.57228831309918       -5.43293786933681
H           40.15288282439683        6.13667028680117       -4.15722777108114
H           42.41363789778175        7.03946747257771       -3.70151856898692
H           43.89995061364998        5.67838352253646       -2.34698399086589
H           43.39068158729590        3.35284900578503       -1.97539353753779
H           43.51205737982446        1.17409504781380       -4.61685071897342
H           45.27055284224542       -0.27932083714082       -3.35281714391493
H           45.57839182237944       -0.73954694900921        2.06307615855338
H           43.77043024157857       -0.84792824753230        4.06641381500168
H           42.12170901219226       -3.20030173986545        4.20547522540833
H           42.73268713611218       -2.90136612221151        6.76335260414685
H           41.47638155910454       -4.13215971353808        6.42646644144910
H           40.60660630698526       -2.67302253210464        8.19043184757635
H           39.70062284994160       -0.48979592695121        7.60701126338476
H           39.96270224577489        0.35176171836273        5.35418060615390
H           38.27248491018235       -1.58896297289460        3.99830814497765
H           36.68899263552693       -1.44981251686029        1.93846577498429
177
 energy: -291.437090936773 gnorm: 0.145662852956 xtb: 6.5.1 (b24c23e)
Zn          31.05158083708615        0.35991849387583        0.27126207374638
C           27.70903751285848        0.28449219229745        0.22996871209731
C           28.37844828852377       -0.92737961833814        0.23373945679083
C           27.71482292630598       -2.20813494892434        0.28221210282361
C           28.67761706955816       -3.15501695037692        0.22538641859874
C           29.95155104134187       -2.47139401322830        0.13153915039673
N           29.72571247643496       -1.12042401531347        0.15073566914830
C           31.18912073638903       -3.09848730614524        0.01653868171751
C           31.21590425675475       -4.58464730654318       -0.03272843327206
C           30.72917715466609       -5.25100350613577       -1.08820527316436
C           30.72405827202452       -6.75858900936648       -1.16780782084990
N           31.54112035987043       -7.36235767232607       -0.09665287684084
C           31.95376868510117       -6.65359197010956        0.99322650533150
C           31.81818870157727       -5.31098231531154        1.07230445712065
C           32.42166805954416       -2.42887880474067       -0.06575745159479
C           33.68638494166889       -3.03485462355794       -0.40527873683877
C           34.63833506716413       -2.06214086520885       -0.34308055585954
N           32.60732183655941       -1.11260183875396        0.16860643209622
C           33.94178506022095       -0.86322696081002        0.02992781782035
C           34.50289388126209        0.38220407849348        0.31264343118430
C           33.76905034304860        1.54910252628038        0.62742338190556
C           34.33370894084949        2.67388853011158        1.26099961097025
C           33.35012939710740        3.62363683461862        1.33574970554995
C           32.18418597920535        3.08373296841590        0.74512861560995
N           32.45346665491150        1.79226157006064        0.34518978616117
C           30.97346870800480        3.81527296065143        0.56541558267721
C           30.99587164911791        5.30750444310718        0.58297362584895