240
 energy: -415.191082139220 gnorm: 0.522176911527 xtb: 6.5.1 (b24c23e)
C           44.97723700000000        0.01469800000000        0.06073100000000
C           45.70210500000000        1.20802600000000       -0.63364700000000
C           45.08729999999999        2.23338100000000       -1.31537300000000
C           46.10831399999999        3.12533000000000       -1.73375500000000
C           47.31271400000000        2.61673500000000       -1.28765000000000
N           47.05651200000000        1.42397200000000       -0.65864100000000
C           48.73932299999999        3.29114800000000       -1.44201000000000
C           48.78509399999999        4.68895200000000       -1.93251000000000
C           49.05075800000000        4.94840700000000       -3.28379300000000
C           49.08653900000000        6.26096100000000       -3.75727300000000
C           48.85273900000000        7.31224100000000       -2.87324500000000
O           48.88039000000000        8.60957300000000       -3.30072100000000
C           48.58515499999999        7.07207700000000       -1.52966100000000
C           48.55123100000000        5.75798000000000       -1.05842600000000
C           49.86913100000000        2.61032100000000       -1.10865700000000
C           51.17814199999999        3.22753600000000       -1.17284700000000
C           52.08029799999999        2.34078100000000       -0.76957600000000
N           50.06243300000000        1.32951000000000       -0.66162700000000
C           51.39677900000000        1.10527600000000       -0.44054800000000
C           52.06476300000000        0.00423400000000       -0.00385400000000
C           51.28467300000000       -1.34164600000000        0.31227400000000
C           51.82171200000000       -2.61430300000000        0.30745900000000
C           50.79692000000000       -3.51286600000000        0.69459000000000
C           49.65925800000000       -2.76587700000000        0.91379500000000
N           49.95266600000000       -1.45235500000000        0.63084600000000
C           48.25047800000000       -3.32220500000000        1.38599500000000
C           48.21678800000000       -4.63562300000000        2.06804900000000
C           48.59549999999999       -4.74674800000000        3.41148200000000
C           48.57580100000000       -5.98979500000000        4.04784600000000
C           48.17891500000000       -7.11789000000000        3.33780100000000
O           48.16968399999999       -8.31782700000000        3.99093900000000
C           47.80174000000000       -7.02697600000000        1.99972700000000
C           47.82351400000000       -5.78337000000000        1.36622700000000
C           47.12681100000000       -2.59309800000000        1.15890700000000
C           45.80658600000000       -3.03402600000000        1.57397400000000
C           44.92177000000000       -2.11577700000000        1.19732900000000
C           45.64220999999999       -1.05296600000000        0.54015900000000
N           46.96212700000000       -1.38003400000000        0.55015700000000
H           43.90059600000000        0.06941300000000        0.16879700000000
H           44.02560300000000        2.33658700000000       -1.47833900000000
H           45.97622600000000        4.04801400000000       -2.27848100000000
H           47.76053500000000        0.80218300000000       -0.26817600000000
H           49.23331300000000        4.11129100000000       -3.95462000000000
H           49.29744300000000        6.43247100000000       -4.80626400000000
H           49.09786800000000        8.59558000000000       -4.24614500000000
H           48.40523400000000        7.89606800000000       -0.84796200000000
H           48.34579400000000        5.55109400000000       -0.01056900000000
H           51.39306200000000        4.23640000000000       -1.47697100000000
H           53.13645500000000        2.52942400000000       -0.70899300000000
H           52.84156999999999       -2.87113800000000        0.06483600000000
H           50.88063100000000       -4.58344400000000        0.80544700000000
H           49.27203600000000       -0.69720600000000        0.60870000000000
H           48.90280200000000       -3.85430500000000        3.95194700000000
H           48.86842499999999       -6.06898800000000        5.08908500000000
H           47.86042799999999       -8.98606300000000        3.35927700000000
H           47.48975900000000       -7.89660500000000        1.43346900000000
H           47.53134699999999       -5.68744400000000        0.32233000000000
H           45.57851899999999       -3.94311800000000        2.10055800000000
H           43.85983900000000       -2.14815700000000        1.36023100000000
C           87.35474099999999        0.05288700000000        0.03989000000000
C           86.62987299999999       -1.17673200000000        0.66776600000000
C           87.24467799999999       -2.30482800000000        1.16122400000000
C           86.22366399999999       -3.13927700000000        1.68497300000000
C           85.01926300000000       -2.48893100000000        1.49861900000000
N           85.27546599999999       -1.31459100000000        0.83585100000000
C           83.59265499999999       -2.98364000000000        1.98227400000000
C           83.54688400000001       -4.15243300000000        2.89242100000000
C           83.28121999999999       -5.42922400000000        2.37949900000000
C           83.24543900000000       -6.53758000000000        3.22716100000000
C           83.47923900000001       -6.36292500000000        4.58958100000000
O           83.45158800000000       -7.42435600000000        5.44933200000000
C           83.74682299999999       -5.10304700000000        5.11456100000000
C           83.78074700000001       -3.99574500000000        4.26438700000000
C           82.46284700000000       -2.33493000000000        1.59007000000000
C           81.15383499999999       -2.72286000000000        2.07440900000000
C           80.25167999999999       -1.90393100000000        1.54685300000000
N           82.26954499999999       -1.26599300000000        0.75479300000000
C           80.93519900000000       -0.95874500000000        0.68583200000000
C           80.26721499999999        0.00423400000000       -0.00385400000000
C           81.04730499999998        0.99829000000000       -0.96467900000000
C           80.51026600000000        1.68281900000000       -2.03757100000000
C           81.53505699999998        2.49456300000000       -2.58379100000000
C           82.67272000000000        2.27474900000000       -1.83698100000000
N           82.37931099999999        1.32610400000000       -0.88541800000000
C           84.08150000000001        2.97286800000000       -2.04935800000000
C           84.11519000000000        4.25709800000000       -2.78489600000000
C           83.73647799999999        5.44703300000000       -2.15147900000000
C           83.75617699999999        6.65476400000000       -2.85255700000000
C           84.15306299999999        6.66798800000000       -4.18544400000000
O           84.16229400000000        7.86650200000000       -4.84119000000000
C           84.53023799999998        5.49349600000000       -4.83295900000000
C           84.50846400000000        4.28787200000000       -4.12986200000000
C           85.20516700000000        2.38740200000000       -1.55905700000000
C           86.52539200000000        2.97503500000000       -1.70529700000000
C           87.41020799999998        2.16145800000000       -1.13684800000000
C           86.68976800000000        1.03374600000000       -0.59860400000000
N           85.36985100000000        1.21911600000000       -0.86825500000000
H           88.43138200000000        0.11416600000000        0.14437400000000
H           88.30637500000000       -2.49772100000000        1.15984500000000
H           86.35575200000000       -4.09660800000000        2.16621100000000
H           84.57144300000000       -0.64979200000000        0.52419700000000
H           83.09866500000000       -5.54045500000000        1.31254100000000
H           83.03453399999998       -7.51256400000000        2.80383500000000
H           83.23411000000000       -8.21187500000000        4.92603700000000
H           83.92674400000000       -4.97557300000000        6.17636400000000
H           83.98618399999999       -3.00257500000000        4.65734800000000
H           80.93891600000001       -3.52447600000000        2.75830200000000
H           79.19552299999999       -1.95504800000000        1.73827800000000
H           79.49040799999999        1.61773900000000       -2.38483900000000
H           81.45134600000000        3.16703600000000       -3.42415300000000
H           83.05994200000001        0.89890200000000       -0.26233000000000
H           83.42917599999998        5.41869500000000       -1.10852400000000
H           83.46355299999999        7.57328000000000       -2.35578800000000
H           84.47154999999999        7.69683500000000       -5.74493200000000
H           84.84221900000000        5.48779900000000       -5.87068200000000
H           84.80063100000000        3.35806700000000       -4.61399500000000
H           86.75345899999999        3.90975400000000       -2.18492000000000
H           88.47213900000000        2.31597600000000       -1.07594000000000
C           54.34109000000000        0.00423400000000       -0.00385400000000
C           55.56300800000000        0.00423400000000       -0.00385400000000
C           65.55503000000000        0.00423400000000       -0.00385400000000
C           66.77694800000000        0.00423400000000       -0.00385400000000
C           76.76897000000000        0.00423400000000       -0.00385400000000
C           77.99088700000000        0.00423400000000       -0.00385400000000
C           56.99320400000000       -0.00452600000000        0.00412000000000
C           57.79734599999999       -1.03609800000000       -0.90119700000000
C           57.28657500000000       -1.76730500000000       -1.95847600000000
C           58.32241399999999       -2.58459900000000       -2.45526900000000
C           59.44235700000000       -2.33066000000000       -1.68349200000000
N           59.13132700000000       -1.33373600000000       -0.79226900000000
C           60.84567499999999       -3.06504800000000       -1.81803400000000
C           60.84821199999999       -4.40913000000000       -2.43620300000000
C           61.32082999999999       -4.58194600000000       -3.74533500000000
C           61.32576100000000       -5.84597000000000       -4.33528100000000
C           60.84614100000000       -6.93437000000000       -3.61038400000000
O           60.82972500000000       -8.18719300000000       -4.15634000000000
C           60.35509799999999       -6.78134900000000       -2.31957700000000
C           60.35606800000000       -5.51594700000000       -1.73266500000000
C           61.97546799999999       -2.46452300000000       -1.36745100000000
C           63.26904099999999       -3.11228700000000       -1.43477900000000
C           64.18147700000000       -2.27540000000000       -0.94338700000000
N           62.17745200000000       -1.24462400000000       -0.79496200000000
C           63.50803199999999       -1.06073300000000       -0.53470200000000
C           64.16395100000000       -0.00452600000000        0.00412000000000
C           63.36393999999999        1.30077200000000        0.43491500000000
C           63.90891100000000        2.55255100000000        0.63760800000000
C           62.88769499999999        3.38492800000000        1.13659100000000
C           61.72633999999999        2.63654000000000        1.17317100000000
N           62.02382200000000        1.37438100000000        0.72020800000000
C           60.31054500000000        3.13514800000000        1.70858600000000
C           60.28082000000000        4.35222300000000        2.55344000000000
C           60.42914699999999        5.61243900000000        1.96218100000000
C           60.38937499999999        6.77104400000000        2.74317600000000
C           60.16378800000000        6.66557300000000        4.11416100000000
O           60.06929200000000        7.81323500000000        4.84657900000000
C           60.02089900000000        5.41858900000000        4.72312100000000
C           60.09211500000000        4.26213000000000        3.94020000000000
C           59.17330200000000        2.44678400000000        1.39640700000000
C           57.87383100000000        2.86433600000000        1.88050000000000
C           56.96762800000000        1.99304400000000        1.43459600000000
C           57.64548000000000        1.01152800000000        0.61986000000000
N           58.97471699999999        1.34289000000000        0.63203200000000
H           56.27227200000000       -1.72500300000000       -2.32094300000000
H           58.26372899999999       -3.29755400000000       -3.27038900000000
H           59.79576800000000       -0.87230900000000       -0.17488500000000
H           61.69042199999999       -3.71563800000000       -4.29458100000000
H           61.71867200000000       -5.95019400000000       -5.33400200000000
H           61.13089900000000       -8.10242000000000       -5.07493800000000
H           59.96789900000000       -7.63435000000000       -1.78012400000000
H           59.97255800000000       -5.37251500000000       -0.72455500000000
H           63.47750099999999       -4.10196700000000       -1.80870600000000
H           65.23071400000001       -2.49075900000000       -0.86396100000000
H           64.94265700000000        2.82661100000000        0.49352700000000
H           62.99361300000000        4.41354800000000        1.45850900000000
H           61.35124499999999        0.62467000000000        0.60812700000000
H           60.57729499999999        5.67686400000000        0.88619600000000
H           60.51473099999999        7.74565600000000        2.28896700000000
H           59.45703799999999        7.61657100000000        5.58319000000000
H           59.85523500000000        5.32595600000000        5.78835500000000
H           59.97710300000000        3.28002000000000        4.38869100000000
H           57.65769800000000        3.72285600000000        2.49157900000000
H           55.91164000000000        2.05054500000000        1.63304200000000
C           68.20714400000000       -0.00452600000000        0.00412000000000
C           69.01128500000000       -1.03609800000000       -0.90119700000000
C           68.50051400000000       -1.76730500000000       -1.95847600000000
C           69.53635399999999       -2.58459900000000       -2.45526900000000
C           70.65629699999998       -2.33066000000000       -1.68349200000000
N           70.34526700000001       -1.33373600000000       -0.79226900000000
C           72.05961499999999       -3.06504800000000       -1.81803400000000
C           72.06215200000000       -4.40913000000000       -2.43620300000000
C           72.53476900000000       -4.58194600000000       -3.74533500000000
C           72.53970099999999       -5.84597000000000       -4.33528100000000
C           72.06008100000000       -6.93437000000000       -3.61038400000000
O           72.04366500000000       -8.18719300000000       -4.15634000000000
C           71.56903800000001       -6.78134900000000       -2.31957700000000
C           71.57000799999999       -5.51594700000000       -1.73266500000000
C           73.18940800000000       -2.46452300000000       -1.36745100000000
C           74.48298000000000       -3.11228700000000       -1.43477900000000
C           75.39541600000000       -2.27540000000000       -0.94338700000000
N           73.39139100000000       -1.24462400000000       -0.79496200000000
C           74.72197100000000       -1.06073300000000       -0.53470200000000
C           75.37788999999998       -0.00452600000000        0.00412000000000
C           74.57787999999999        1.30077200000000        0.43491500000000
C           75.12285000000000        2.55255100000000        0.63760800000000
C           74.10163500000000        3.38492800000000        1.13659100000000
C           72.94028000000000        2.63654000000000        1.17317100000000
N           73.23776100000001        1.37438100000000        0.72020800000000
C           71.52448400000000        3.13514800000000        1.70858600000000
C           71.49475999999999        4.35222300000000        2.55344000000000
C           71.64308699999999        5.61243900000000        1.96218100000000
C           71.60331499999999        6.77104400000000        2.74317600000000
C           71.37772699999998        6.66557300000000        4.11416100000000
O           71.28323199999998        7.81323500000000        4.84657900000000
C           71.23483899999999        5.41858900000000        4.72312100000000
C           71.30605500000000        4.26213000000000        3.94020000000000
C           70.38724099999999        2.44678400000000        1.39640700000000
C           69.08777100000000        2.86433600000000        1.88050000000000
C           68.18156699999999        1.99304400000000        1.43459600000000
C           68.85942000000000        1.01152800000000        0.61986000000000
N           70.18865700000001        1.34289000000000        0.63203200000000
H           67.48621199999999       -1.72500300000000       -2.32094300000000
H           69.47766900000001       -3.29755400000000       -3.27038900000000
H           71.00970800000000       -0.87230900000000       -0.17488500000000
H           72.90436099999999       -3.71563800000000       -4.29458100000000
H           72.93261099999999       -5.95019400000000       -5.33400200000000
H           72.34483899999998       -8.10242000000000       -5.07493800000000
H           71.18183899999998       -7.63435000000000       -1.78012400000000
H           71.18649800000000       -5.37251500000000       -0.72455500000000
H           74.69144100000000       -4.10196700000000       -1.80870600000000
H           76.44465400000000       -2.49075900000000       -0.86396100000000
H           76.15659700000000        2.82661100000000        0.49352700000000
H           74.20755300000000        4.41354800000000        1.45850900000000
H           72.56518400000000        0.62467000000000        0.60812700000000
H           71.79123500000000        5.67686400000000        0.88619600000000
H           71.72867100000001        7.74565600000000        2.28896700000000
H           70.67097800000001        7.61657100000000        5.58319000000000
H           71.06917500000000        5.32595600000000        5.78835500000000
H           71.19104299999998        3.28002000000000        4.38869100000000
H           68.87163800000000        3.72285600000000        2.49157900000000
H           67.12557900000000        2.05054500000000        1.63304200000000
240
 energy: -415.365176148175 gnorm: 0.335433425386 xtb: 6.5.1 (b24c23e)
C           45.01073646347381        0.04754240619369        0.04110579270013
C           45.70122896121589        1.19235485230040       -0.62528795804462
C           45.09436620908490        2.24091520514707       -1.31305147750896
C           46.10748589884831        3.12519866542203       -1.72655386014842
C           47.33329970441446        2.61887053637719       -1.28714990531134
N           47.05938594291319        1.42439672768859       -0.65509727658841
C           48.70388880634482        3.26070038573469       -1.43289815969843
C           48.76978393761566        4.67333308967325       -1.93007349716688
C           49.04912700718327        4.94418460044724       -3.27667889192985
C           49.08670070424204        6.25283844799545       -3.75130895793240
C           48.85280922568003        7.30853940224543       -2.87208537372180
O           48.88135932115806        8.60225745543089       -3.30257171549208
C           48.58585740642830        7.06306165299576       -1.52792299398037
C           48.54840888860958        5.75162424713615       -1.06226308212600
C           49.87196253429759        2.59594599462311       -1.10041294647760
C           51.18105471822467        3.23277600020487       -1.17369244617589
C           52.09440072032934        2.34210461148303       -0.76934043601778
N           50.06383254706486        1.31382845328466       -0.65037925000982
C           51.41296250315298        1.09762737948347       -0.43683589921748
C           52.07430726156252       -0.03784153676101       -0.00953218237958
C           51.30443156022540       -1.32166901908933        0.30470471069025
C           51.82315149419682       -2.61567113155739        0.31646572784198
C           50.80175311352266       -3.50535857421414        0.69930306441693
C           49.64389474015846       -2.76233470849423        0.91667940687546
N           49.96126839227775       -1.44573713502933        0.63331728721828
C           48.28888228917804       -3.29803624775162        1.37009299200896
C           48.23401146318331       -4.62538486500343        2.05680994607309
C           48.59867442401425       -4.74588599698751        3.40439265340027
C           48.57482783186442       -5.98245407537314        4.04289938399446
C           48.17883816481865       -7.11459819133660        3.33596105106541
O           48.16821067097773       -8.31411522935758        3.98447444975267
C           47.80153720546988       -7.01718633600717        1.99788418606311
C           47.82515287782231       -5.77571034419015        1.36782708818790
C           47.12957440551569       -2.58289563447609        1.15761943025798
C           45.80706088476208       -3.04286115436722        1.57811483699214
C           44.91690204208020       -2.11881855108656        1.20008822569117
C           45.65471245647421       -1.05173009224987        0.54190713844494
N           46.97718957527633       -1.37072205988214        0.54627549711916
H           43.92528383232999        0.08771094645681        0.15185089559342
H           44.03182337079114        2.34135275804621       -1.48046039904992
H           45.97405123683810        4.04483915220415       -2.27666077860244
H           47.76088346505596        0.80272818394475       -0.26797959227862
H           49.23198050508675        4.11418826021788       -3.95303492258270
H           49.29663089810890        6.43331382791243       -4.80165930889755
H           49.09731362789986        8.60162880130154       -4.24646063193466
H           48.40647924013282        7.89203326172071       -0.85072961364009
H           48.34552529510416        5.55229297322730       -0.01408630701505
H           51.38681706259379        4.24373846288676       -1.48062384629412
H           53.15041127976362        2.52359502504981       -0.70650264830560
H           52.84011650302303       -2.87494850905304        0.06783662247065
H           50.88353765549705       -4.57776184055674        0.80464665103314
H           49.27835294671170       -0.69569164868523        0.60833473585554
H           48.90282567958852       -3.85772996609280        3.95051210785615
H           48.86658488910350       -6.06824357460648        5.08465067527222
H           47.86118677954503       -8.99048913610798        3.36338391077949
H           47.49110364248836       -7.89399383940306        1.43703015712175
H           47.53298754620909       -5.68835572390770        0.32531153075901
H           45.58435005507980       -3.95363975611189        2.10429182578475
H           43.85287394115740       -2.14542194087668        1.35914128969681
C           87.32123922288989        0.01861164752307        0.05688932762221
C           86.63074876553830       -1.16122222193972        0.65911035885368
C           87.23761221225412       -2.30695149088448        1.16881207510933
C           86.22449243292051       -3.13315418290999        1.68875094655159
C           84.99868236964394       -2.48966973830691        1.50067876252666
N           85.27259086627205       -1.31184966113611        0.83811455492923
C           83.62810511131690       -2.95950710502321        1.96161258216502
C           83.56219938429555       -4.14193754440811        2.88060624072173
C           83.28285214447568       -5.42095393622241        2.37979888428235
C           83.24527430729728       -6.52817411231725        3.22356019870443
C           83.47917435175444       -6.35994120638549        4.58709425318409
O           83.45060383616003       -7.42196842612370        5.44218420942131
C           83.74612234334161       -5.09670648117674        5.10791914712208
C           83.78356963995282       -3.99553503776262        4.25696844885440
C           82.46004464224484       -2.32021434356487        1.58249112451460
C           81.15094320672668       -2.72646013295903        2.07833610180374
C           80.23760599998924       -1.90453639469551        1.54800065137130
N           82.26820684563450       -1.24810994755648        0.74768841620756
C           80.91912984631892       -0.95166787712107        0.68130672052962
C           80.25800719556966        0.02241517711069       -0.04195759916318
C           81.02758895786931        0.98122578098817       -0.95182895072648
C           80.50882059776333        1.69115159091458       -2.03380381191536
C           81.53019573388907        2.49445641318243       -2.57491204432876
C           82.68809650259097        2.27527564326882       -1.83242683384259
N           82.37075313639791        1.32462969665768       -0.87848854778966
C           84.04307671443014        2.94641902326754       -2.03764613787386
C           84.09796298712133        4.24210754434659       -2.78237372473500
C           83.73329710576230        5.44060753379147       -2.15458813326625
C           83.75715152536016        6.64662941248446       -2.84905504694632
C           84.15313410786972        6.66466100225703       -4.18367092557298
O           84.16378307216677        7.85904327227913       -4.84156225814643
C           84.53044069350504        5.48664938348191       -4.82572466711884
C           84.50683020933337        4.28506997812887       -4.12255650209952
C           85.20240293213541        2.38079830706171       -1.55116603651525
C           86.52491463810145        2.98329381466917       -1.71048816500583
C           87.41507786103038        2.16542272587913       -1.13791452805560
C           86.67727013285992        1.03455204378646       -0.59661715531417
N           85.35479055884555        1.21079959689052       -0.86255555597863
H           88.40669227007976        0.09001444554761        0.15059471080127
H           88.30015555298768       -2.50208234871931        1.16270594848779
H           86.35792798868820       -4.09336059940158        2.16452607215280
H           84.57109419644294       -0.64991423685541        0.52477883460055
H           83.09999915183988       -5.54068973851842        1.31583199307622
H           83.03534622553101       -7.50915596052944        2.80703676255876
H           83.23467673512528       -8.21541679419207        4.93094615585139
H           83.92549878705475       -4.97571851186480        6.17147171906581
H           83.98645153944608       -3.00618616407315        4.65645135445885
H           80.94516522154693       -3.53153616805212        2.76251083218582
H           79.18159080510749       -1.94979873430098        1.73471874775788
H           79.49185891328310        1.62230186758747       -2.38637131601076
H           81.44842232968067        3.16327384814301       -3.41979911433020
H           83.05365092176130        0.89780375831969       -0.26122575819054
H           83.42915047237362        5.41934208178758       -1.11218325053929
H           83.46539128934840        7.56914224499655       -2.35756090040993
H           84.47078364174132        7.70268364251275       -5.74643419749952
H           84.84087417251286        5.48937837253314       -5.86656273944722
H           84.79899067998417        3.36106255982883       -4.61315377201958
H           86.74762423096216        3.91858396269725       -2.19174711062269
H           88.47910437994447        2.31357938844368       -1.07422881556305
C           54.29092201631509       -0.00048399590089       -0.00078315402412
C           55.52928787394305       -0.01336503839700       -0.01998881500033
C           65.55555620046366        0.02510294871979        0.00798442508934
C           66.79210862005418       -0.01247644821674       -0.01986669137887
C           76.81163187841658        0.02827912419901        0.00596970825192
C           78.05002103051494        0.00483654921525       -0.00180373361123
C           56.98865325563824       -0.01799226506028       -0.03399633116179
C           57.78492924610451       -1.01878514825182       -0.89211366413226
C           57.28579965453250       -1.77356532916081       -1.95204823593050
C           58.32023465674745       -2.58748034052946       -2.44421520963043
C           59.45946839406553       -2.33309488691236       -1.68203890036838
N           59.12598816326898       -1.33608236604719       -0.78678774559718
C           60.80878392804096       -3.03765617429925       -1.80951234579324
C           60.83226975834581       -4.39340135076222       -2.43590845380002
C           61.32058064096608       -4.57796855509476       -3.73748314562387
C           61.32699950813279       -5.83855621950420       -4.32747314361343
C           60.84496178253852       -6.93132520746433       -3.61020869160927
O           60.83024789300026       -8.18038242152995       -4.15849390715925
C           60.35566520692129       -6.77266140135393       -2.31744351815556
C           60.35322449920682       -5.50908837000205       -1.73604105306395
C           61.97311341750758       -2.45911576398398       -1.36003385380222
C           63.26995255723455       -3.12119462468165       -1.43909165360698
C           64.18600975303414       -2.27921190024120       -0.94387141309849
N           62.16572613757686       -1.23220134929401       -0.78674675313552