318
 energy: -506.604856861488 gnorm: 0.000608071588 xtb: 6.5.1 (b24c23e)
Cu          41.74641071728467        0.00288788124520       -0.02106416613904
C           38.33388692354404        0.08681810266581       -0.04669610416173
C           38.98456843457885        1.21644852369746        0.42776221649492
C           38.32948741074268        2.40161747793620        0.90497429611799
C           39.30314784713946        3.26874440064785        1.27922797224257
C           40.56193802218110        2.62060621478122        1.03230058479298
N           40.33801426288112        1.37675041382234        0.51577973587410
C           41.81212666077242        3.18399944820935        1.28487003562121
C           41.84581060230502        4.56258319260688        1.85535622923014
C           41.84325183869595        5.67127302973812        1.00410934720418
C           41.79920749555308        5.47284628226202       -0.48770448703938
C           41.88363900347763        6.95002869127846        1.54718726573565
C           41.92582954660793        7.14064159827440        2.92462813880803
C           41.99390503132928        8.52998537992120        3.49891566000368
C           41.92697920657901        6.03022936941448        3.76229793243696
C           41.88714224769573        4.74233996582573        3.24084799374951
C           41.89008025903576        3.54521570186553        4.15392255525707
C           43.03637042140676        2.56205890206290        1.04834647876202
C           44.31706907453759        3.15602690958140        1.30721553280727
C           45.25695072163519        2.24512925536493        0.94766298364479
N           43.21554492584941        1.30370129510592        0.53713179772019
C           44.55738971427463        1.09040102643214        0.46770645781870
C           45.18173900602711       -0.07875334697247       -0.00209646012237
C           44.50807777920356       -1.21832867990110       -0.47581772935758
C           45.15730127709801       -2.40644243565199       -0.94479559055624
C           44.17921934287555       -3.27340589072129       -1.31107326628646
C           42.92533991317064       -2.61814744159159       -1.06893480453758
N           43.15839187387952       -1.36808097737618       -0.55927908312797
C           41.67554782296971       -3.18069172151407       -1.32037703912955
C           41.64907283913367       -4.56189411789336       -1.88487863227217
C           41.70941721516210       -4.75081275082328       -3.26917106213553
C           41.79359831662539       -3.56008777083607       -4.18672486054672
C           41.69327705318999       -6.04101785700502       -3.78373276936271
C           41.61898632711122       -7.14654265615584       -2.94085985470850
C           41.59978132239536       -8.53484700930465       -3.52148450366528
C           41.55753109173548       -6.94696155824836       -1.56671088192657
C           41.57216007052034       -5.66408332584553       -1.02978630323475
C           41.51032503459982       -5.45663001647635        0.46017668773491
C           40.45097046638298       -2.55559249937898       -1.08813630679773
C           39.16571270254801       -3.14098851562535       -1.35481932177363
C           38.23030196603187       -2.22594027526452       -0.99753849656181
C           38.93548782726003       -1.07392570474450       -0.51066759463224
N           40.28061484621663       -1.30110707334587       -0.57686883509157
H           37.24913367323499        0.11365286858785       -0.05534851455901
H           37.26011874524610        2.53816298161361        0.94352317777838
H           39.19329836280167        4.26063966984005        1.68804833372496
H           40.88692203367939        4.94534127825906       -0.77289939806486
H           42.64876280114204        4.87061275716490       -0.81515464786271
H           41.82668428916946        6.42935475376175       -1.00880252238793
H           41.88230626240952        7.81060114871086        0.88616771467728
H           41.56240927952808        8.55904443888470        4.49967204708857
H           43.03554570838406        8.85227064888856        3.56838367213835
H           41.46209079574972        9.23915711041967        2.86404559729428
H           41.95913243247407        6.16917521138237        4.83802105758015
H           42.77309461183455        2.93046306148351        3.96871453065419
H           41.89218963089832        3.85264475164288        5.19923440307394
H           41.00919944305759        2.92679876032915        3.97177141545726
H           44.46686622917654        4.14468485751679        1.71058584092346
H           46.33016559444034        2.33673797288375        0.99848138453732
H           46.22555245309909       -2.54852384533726       -0.98323515088410
H           44.28612454858909       -4.26982538153801       -1.70896302158463
H           40.94065144115231       -2.89766344751806       -4.02788128079856
H           41.80472141212194       -3.87276261799372       -5.23043090772277
H           42.70159733015584       -2.98910280032113       -3.98332512844227
H           41.74138103984401       -6.18866810868683       -4.85772823387109
H           42.43631460397493       -8.67237045660642       -4.20857001221165
H           41.66444667366884       -9.28816461119271       -2.73651386216628
H           40.67588108597744       -8.69610336227164       -4.08073259986663
H           41.49979148244312       -7.80194477015734       -0.90103134667893
H           40.62317270039021       -4.87849252141666        0.72578049267973
H           42.38530396731100       -4.90049974922472        0.80197075638565
H           41.47511429657494       -6.41078684430189        0.98510214137561
H           39.01341222825678       -4.12679517148040       -1.76475339947482
H           37.15624246418770       -2.30927571035179       -1.05353525711605
Cu          97.61376814688164       -0.02351846469056       -0.05365927559425
C          101.02686989949555       -0.07852167181542       -0.09401807672059
C          100.37710297555056       -1.21968073538374       -0.54135158552060
C          101.03302039883837       -2.40778866149423       -1.01008371587850
C          100.05977511666880       -3.28863451553836       -1.35200983206741
C           98.80048356511364       -2.64475888849233       -1.09668310892852
N           99.02365598446686       -1.39088667555058       -0.60475397096789
C           97.55033343107395       -3.21963716463298       -1.32201510404420
C           97.51691217077777       -4.60978046782055       -1.86371672790974
C           97.53300111932006       -4.82224699132915       -3.24519023860048
C           97.59169733762812       -3.64738712958075       -4.18490500679356
C           97.49236159765267       -6.12138184881789       -3.73744704306309
C           97.43663690128213       -7.21126432811416       -2.87455520103581
C           97.36834935138187       -8.61199857775844       -3.42043706185761
C           97.42213916665290       -6.98816022418556       -1.50173186273221
C           97.46199403232696       -5.69733805519395       -0.98752026406765
C           97.44480392098545       -5.46414884787270        0.49981000666810
C           96.32574594188883       -2.60046388533527       -1.08023818231268
C           95.04545326892485       -3.20094935475784       -1.32564017570862
C           94.10478700767368       -2.29124032479031       -0.96524576949499
N           96.14554295783049       -1.33905030621014       -0.57683401131503
C           94.80343685323378       -1.13118483299103       -0.49689479428399
C           94.17778322916440        0.03538861479952       -0.02215375722472
C           94.85053690553167        1.17862210308769        0.44393758728969
C           94.20049321376857        2.35867117656719        0.93171912667872
C           95.17810367290606        3.23262261772629        1.28248111744083
C           96.43255667952828        2.59090107093963        1.00903189054288
N           96.20028748165302        1.34024073442729        0.50062045826088
C           97.68233191281567        3.16652542095663        1.22942638529388
C           97.70881800856014        4.55130447960942        1.78512873924259
C           97.65496849734262        5.65003163870879        0.92158172474441
C           97.57729116041955        5.43255957941531       -0.56620104837678
C           97.67187293008705        6.93488911051087        1.44917411263873
C           97.74053391109565        7.14287429673917        2.82406588975725
C           97.76042527876233        8.54418644591007        3.37253175247006
C           97.79576211396500        6.04364986792882        3.67282703487728
C           97.78038537650751        4.74839094935870        3.16635319858093
C           97.83638688480114        3.56315426904306        4.09314080437356
C           98.90730307208837        2.55293714552262        0.97015958309534
C          100.19234742107761        3.15592269772130        1.19562842967561
C          101.12851724289339        2.24681157115879        0.82546897291385
C          100.42407017790130        1.08159584300036        0.36997210084391
N           99.07859032908055        1.29497996870523        0.46768714267422
H          102.11177550294644       -0.09540586207267       -0.10724587969255
H          102.10259848131645       -2.53728332391756       -1.06410622485297
H          100.17018652996387       -4.28766087602534       -1.74293086229391
H           98.50255927569803       -3.07047487573165       -4.01359779325516
H           96.74073871498827       -2.98467193736659       -4.01650494268618
H           97.57780848228906       -3.97785168592378       -5.22307208499555
H           97.50419572092176       -6.28614883781584       -4.80993905198280
H           97.79779262977753       -9.32520149837475       -2.71651594926727
H           96.32677854730575       -8.89199703961832       -3.59490961013026
H           97.90195653238412       -8.68604903293896       -4.36835224833702
H           97.37937262034325       -7.83209875953681       -0.82094832074481
H           96.56444419276400       -4.88324499252661        0.78163609466166
H           97.42736458596359       -6.40914916720970        1.04192111036834
H           98.32812163646508       -4.90046835319530        0.80579096593024
H           94.89651226491502       -4.19162407702119       -1.72431816173794
H           93.03161280505282       -2.38715387231312       -1.00803451724930
H           93.13201874940138        2.49036156592324        0.99398769502041
H           95.07053742257177        4.22431023056788        1.69186430156877
H           98.42947550989048        4.84239615652156       -0.90831244687460
H           97.57277535926993        6.38296259417212       -1.09903390665317
H           96.66825792379862        4.88453621482900       -0.82149385727598
H           97.62891130992325        7.78810281855903        0.78002627310350
H           96.92528458085978        9.12182866614066        2.97293750707649
H           97.69363348941168        8.53953551732422        4.46036247768754
H           98.68542642744205        9.04800425827847        3.08463845745042
H           97.84931110084774        6.19478739191381        4.74602536032461
H           98.72642295520417        2.96466927968449        3.88936752086188
H           96.96382322438500        2.92421361393538        3.94472496841830
H           97.86246938587658        3.88379644005610        5.13416133078050
H          100.34403537954093        4.14960141176455        1.58632095042689
H          102.20265059759636        2.34267950949653        0.85247612856866
C           46.58696198203979       -0.10839951646926        0.00108460766377
C           47.81100840382383       -0.12513058343181        0.00424343910876
C           49.15390565856165       -0.14003037812426        0.00531393705290
C           50.38420182408291       -0.14674194440876        0.00595728447122
C           51.72231909639652       -0.15081636089119        0.00125663906275
C           52.95270589594463       -0.14626892610416       -0.00084613715000
C           54.29539847195145       -0.13901090143703       -0.00511566578612
C           55.51975087876956       -0.12944292336696       -0.01141352800065
C           65.21231460714228       -0.02937378762519       -0.04279213627435
C           66.43716551614231       -0.02167168668425       -0.04411924489696
C           67.77928894276148       -0.01579090683273       -0.04635531939549
C           69.01021165691324       -0.01277629902057       -0.04550642136053
C           70.34764388586895       -0.01071485214660       -0.04408779964059
C           71.57857459522630       -0.01300041934001       -0.04202835308743
C           72.92070997300324       -0.01340053347221       -0.03960972397853
C           74.14555949553069       -0.01612490866271       -0.03711316614380
C           83.83915988435142        0.03002334441290       -0.01796306055591
C           85.06351595901791        0.04268588722578       -0.01886727447931
C           86.40625488845002        0.05280502404188       -0.01645948366415
C           87.63666406862663        0.05674335422025       -0.01152178570446
C           88.97484700824336        0.06023095429693       -0.01046329818717
C           90.20517839851544        0.06504944236661       -0.00966005048543
C           91.54821045402824        0.06138153193846       -0.01155635056891
C           92.77239066380578        0.05673182366334       -0.01226467029112
Cu          60.36633514816694       -0.07371573634891       -0.02807300689485
C           56.92440785653507       -0.11495730740372       -0.01625605177777
C           57.57652886208628        0.04578801948554        1.21980987358741
C           56.90514293243638        0.19602359403030        2.47646102587608
C           57.86730456980999        0.32008133147388        3.42632327408656
C           59.13239681781739        0.24479553142670        2.75347975987835
N           58.92265890931031        0.07915034803333        1.41037598771570
C           60.37285506635919        0.32577928966689        3.38414362819440
C           60.37147631050063        0.50066679056393        4.86629595179038
C           60.40921166402424        1.78449929347748        5.41713854764059
C           60.46041378171673        2.98840932874944        4.51453356101575
C           60.39634900096053        1.93606732605961        6.79902592142434
C           60.34548754900501        0.82874979425694        7.63881468095617
C           60.34683905269863        1.00103100470425        9.13382800458968
C           60.31143645698591       -0.44483818937942        7.07941530690724
C           60.32311941401604       -0.61982275289237        5.70086411634881
C           60.28124651676689       -2.00084658082782        5.10276064298355
C           61.61081220489591        0.25672510063941        2.74784598799272
C           62.87854348701934        0.33549340783792        3.41498597630320
C           63.83688139534497        0.23294793442118        2.45856282787697
N           61.81538557097576        0.10649173357559        1.40170049841133
C           63.16053792711901        0.09082199739552        1.20353533893431
C           63.80827095995884       -0.03998789505036       -0.03911112579940
C           63.15536434522699       -0.18030543963632       -1.27798097175795
C           63.82633828015376       -0.30382180229502       -2.53784376491350
C           62.86407547520949       -0.41948403972017       -3.48881217525912
C           61.59929325001431       -0.36911169977812       -2.81329985326333
N           61.80952232859043       -0.22102543446684       -1.46777494602002
C           60.35883543624503       -0.46179016369636       -3.44176266176944
C           60.35075753217226       -0.62594868877222       -4.92513082709551
C           60.25915153947938        0.49869016081401       -5.75036924768259
C           60.17828016761588        1.87325175782692       -5.14143124121668
C           60.24079008144103        0.33401747030219       -7.13020919243361
C           60.31041711354515       -0.93333111634578       -7.70000185451732
C           60.30407212949259       -1.09520504952289       -9.19616029427421
C           60.40421439088910       -2.04491275540171       -6.86940422299227
C           60.42459734371866       -1.90368246855034       -5.48660018631820
C           60.52062992020694       -3.11242275172331       -4.59416204239940
C           59.12124913872133       -0.41395956876597       -2.80204596330897
C           57.85368384821499       -0.51892668546018       -3.46626628960733
C           56.89545135361153       -0.42281527003885       -2.50922010939224
C           57.57170920874164       -0.25921207040267       -1.25685869006394
N           58.91689576824837       -0.25860989205263       -1.45688577880190
H           55.83452724838074        0.20448171064497        2.60486479491055
H           57.74160120155546        0.45226234406721        4.48899826694098
H           61.36910557065028        2.96934638683092        3.90968148180390
H           60.44685928739033        3.91072355172604        5.09447150526276
H           59.60688917087914        2.98918358394166        3.83405973948613
H           60.42295840648074        2.93331505351973        7.22596493780074
H           61.36418017995683        0.90062556215573        9.51914872810154
H           59.72832627833843        0.24054418086655        9.61158097073609
H           59.97296245830091        1.98630723923324        9.41279124047732
H           60.27209294537708       -1.31438204049427        7.72739031436902
H           59.38353800909039       -2.12221526148157        4.49340287631790
H           61.14668248527266       -2.16103819482551        4.45708866406301
H           60.27951903623984       -2.76265598318621        5.88175330741252
H           63.00808916186038        0.45245785352926        4.47903016207244
H           64.90803063889071        0.25065846110230        2.58150234847231
H           64.89686577747727       -0.30034599513599       -2.66733057889499
H           62.98891883999991       -0.52809144746897       -4.55430286287914
H           59.28024478304747        1.96266827736050       -4.52704391268418
H           60.14938616624357        2.64044085761486       -5.91459811418439
H           61.04154046594640        2.05500121980102       -4.49859846475485
H           60.16782787505149        1.20692331114703       -7.77069387454481
H           59.92585762329384       -2.07754026475168       -9.47979393320856
H           61.32004155712235       -0.99606155392488       -9.58547785571351
H           59.68587875885889       -0.32970826165260       -9.66610469955018
H           60.45865558719498       -3.03744422559807       -7.30459399077277
H           60.53731123077409       -4.02983757663209       -5.18174769325393
H           59.66959804199099       -3.14840109235499       -3.91147449594115
H           61.42983759831939       -3.06685315005217       -3.99157730932385
H           57.72390105184802       -0.65100254382405       -4.52846712163368
H           55.82450087675986       -0.45826126503927       -2.63004054234214
Cu          78.99201269282828       -0.00592302449138       -0.02600233318715
C           75.54965151802007       -0.01538573367488       -0.03358885040525
C           76.19672587269289        0.12751729593222        1.20802783412246
C           75.51990763251715        0.27083285755646        2.46262884739938
C           76.47790490077396        0.37693679389681        3.41901000837360
C           77.74590503602586        0.29892596504825        2.75222357921125
N           77.54183435890472        0.14779136182103        1.40618958107034
C           78.98369178747855        0.36773230821746        3.38899757894560
C           78.98365483135527        0.52791194364345        4.87280252029843
C           79.03214628471433        1.80590696095191        5.43632897705082
C           79.07696166969264        3.01882648125653        4.54552326479936
C           79.03794528752296        1.94321866856533        6.81972204042469
C           78.99567017075584        0.82738798767590        7.64868193719440
C           79.02471889801622        0.98385325439159        9.14514123298149
C           78.94680326583158       -0.44009011266570        7.07668975154342
C           78.93981184324856       -0.60085269989219        5.69634186989554
C           78.88616805682689       -1.97555784456370        5.08477027480581
C           80.22441257506395        0.30122940789801        2.75719066331755
C           81.48916229418433        0.37358992864178        3.43102600077551
C           82.45189452756705        0.27873057647885        2.47838995517553
N           80.43495933691256        0.16156890191874        1.41121284268121
C           81.78124786249502        0.14632396644345        1.21929677580504
C           82.43442382508377        0.01814516010054       -0.02006599181849
C           81.78777582936621       -0.12455409046170       -1.26126221071158
C           82.46470621356691       -0.25721351418690       -2.51697594500342
C           81.50679942485658       -0.37507637540591       -3.47191070424073
C           80.23877362124911       -0.31482621048538       -2.80303800395445
N           80.44258723610712       -0.16089563380220       -1.45761046658493
C           79.00119665398671       -0.40171816473824       -3.43849641308364
C           79.00845412503720       -0.58275330715315       -4.91987472247622
C           78.94578240086675        0.53199962464987       -5.76097076383347
C           78.86616669446748        1.91490866863920       -5.17110214803180
C           78.95891061323618        0.34987862952119       -7.13870409099491
C           79.03244260838571       -0.92513067852645       -7.69075638950189
C           79.06809117793159       -1.10556130304027       -9.18436910322692
C           79.09396948318951       -2.02696249586025       -6.84436536008744
C           79.08254043602496       -1.86826095104465       -5.46339348654673
C           79.14834741035386       -3.06624470010648       -4.55385515940942
C           77.76035061441937       -0.33645424297948       -2.80727635269742
C           76.49577686123629       -0.42768228908111       -3.47887251312321
C           75.53293962196572       -0.31687638848056       -2.52791123139933
C           76.20332228129071       -0.16006273705089       -1.27150998627545
N           77.54945969667777       -0.17487820356639       -1.46346078464543
H           74.44870775539312        0.28680967911741        2.58539120901462
H           76.34787453781664        0.49902081458366        4.48241000749308
H           79.97170042320656        2.99659322629279        3.92036630160652
H           79.08614019102102        3.93495194959292        5.13527736642029
H           78.20855852180425        3.03596638549111        3.88430932636346
H           79.07519974633726        2.93582457252441        7.25656785733840
H           80.04800073844359        0.87078182158952        9.51082850209728
H           78.40855043612839        0.22348790971971        9.62607624522734
H           78.66455349562004        1.96924689735019        9.44113652384517
H           78.91317331755778       -1.31622293286054        7.71605561238263
H           77.98462522547383       -2.08540495741602        4.47894937030104
H           79.74729675528395       -2.13461990905855        4.43303411482818
H           78.88397199985718       -2.74504710302933        5.85618255094871
H           81.61403885936150        0.48152365263494        4.49654266531747
H           83.52249422763835        0.29454211043625        2.60624493846861
H           83.53584687249041       -0.25866982336286       -2.64125655644037
H           81.63699737006907       -0.49045210254919       -4.53601269229750
H           77.95912342428895        2.01965365206442       -4.57263390118747
H           78.85654632181650        2.67228045003728       -5.95435877302496
H           79.72046179463204        2.09777002532182       -4.51663515290497
H           78.91053983290780        1.21519433775193       -7.79168681224003
H           78.70152413709835       -2.09275786650922       -9.46631357468123
H           80.09434665627633       -1.00728467774557       -9.54603916803273
H           78.46093662426621       -0.34817627712373       -9.68106754719203
H           79.15084466610176       -3.02535001675089       -7.26562842491645
H           79.17427277297176       -3.99108697881826       -5.12933154498767
H           78.28013118930552       -3.08862809649821       -3.89259397237653
H           80.04223742405341       -3.01840718182448       -3.92895520386040
H           76.37121798406112       -0.56084458533611       -4.54158986519594
H           74.46239386925370       -0.33953948279845       -2.65524322675187
