112
 energy: -197.526416182450 gnorm: 0.465336701273 xtb: 6.5.1 (b24c23e)
Fe          12.04397700000000        0.00906900000000        0.00088400000000
C            8.67794300000000       -0.10508300000000       -0.03105300000000
C            9.34088100000000       -1.26350900000000        0.02650100000000
C            8.68924500000000       -2.56643900000000        0.08531200000000
C            9.62910400000000       -3.48681100000000        0.19223800000000
C           10.93526600000000       -2.81403600000000        0.20619100000000
N           10.75910600000000       -1.40112200000000        0.09625500000000
C           12.12416100000000       -3.43196800000000        0.35973200000000
C           12.15993600000000       -4.90316100000000        0.51007600000000
C           12.36520900000000       -5.47962000000000        1.77061500000000
C           12.39387900000000       -6.87092300000000        1.89161300000000
N           12.22121700000000       -7.65475100000000        0.79388800000000
C           12.01927700000000       -7.11980000000000       -0.43986800000000
C           11.98593700000000       -5.73313000000000       -0.60563500000000
C           13.41840200000000       -2.70121800000000        0.39962200000000
C           14.70841900000000       -3.33891100000000        0.68908600000000
C           15.64304700000000       -2.41466900000000        0.60530700000000
N           13.56025900000000       -1.43705700000000        0.14047300000000
C           14.95942200000000       -1.17693900000000        0.25233100000000
C           15.55580800000000        0.00023000000000        0.00006500000000
C           14.79794400000000        1.21609600000000       -0.37323500000000
C           15.34123900000000        2.28954900000000       -0.93309700000000
C           14.29856700000000        3.28912200000000       -1.05119300000000
C           13.18691100000000        2.76235000000000       -0.55216400000000
N           13.41166200000000        1.42529400000000       -0.10169800000000
C           11.90180500000000        3.49560400000000       -0.41525500000000
C           11.92465200000000        4.97824500000000       -0.46245000000000
C           11.26294000000000        5.67217800000000       -1.48599600000000
C           11.30715000000000        7.06808500000000       -1.50878400000000
N           11.99378400000000        7.74527000000000       -0.55003300000000
C           12.65298700000000        7.09738700000000        0.44650200000000
C           12.63408600000000        5.70205300000000        0.50695800000000
C           10.73491400000000        2.84682500000000       -0.23793400000000
C            9.42270700000000        3.46312100000000       -0.04807100000000
C            8.56046600000000        2.46959000000000        0.04573600000000
C            9.31285800000000        1.22164400000000       -0.06964100000000
N           10.58122100000000        1.42881200000000       -0.23512600000000
H            7.59479300000000       -0.13306500000000       -0.03124800000000
H            7.62486000000000       -2.76097500000000        0.06016300000000
H            9.44056800000000       -4.54979200000000        0.26983300000000
H           12.50161100000000       -4.85820900000000        2.64705800000000
H           12.55269300000000       -7.32806700000000        2.85907400000000
H           11.88410400000000       -7.77136200000000       -1.29279500000000
H           11.82450200000000       -5.31013900000000       -1.58936700000000
H           14.88651400000000       -4.37963200000000        0.92382400000000
H           16.70080500000000       -2.57779400000000        0.75934500000000
H           16.37441800000000        2.41465300000000       -1.22675500000000
H           14.41655100000000        4.28823500000000       -1.44896800000000
H           10.72229600000000        5.13750400000000       -2.25626700000000
H           10.79649100000000        7.61355000000000       -2.29110800000000
H           13.19124400000000        7.66563800000000        1.19364200000000
H           13.15957900000000        5.19095200000000        1.30419400000000
H            9.17818300000000        4.51546100000000        0.01275600000000
H            7.49334700000000        2.57410000000000        0.19198100000000
Fe          26.14324299999999       -0.00798800000000        0.00341800000000
C           29.50927800000000        0.09194700000000       -0.06032700000000
C           28.84633900000000        1.21706600000000       -0.34205500000000
C           29.49797500000000        2.48081300000000       -0.66459200000000
C           28.55811700000000        3.39251500000000       -0.82986900000000
C           27.25195500000000        2.75285900000000       -0.62091900000000
N           27.42811400000000        1.36901600000000       -0.31532200000000
C           26.06306000000000        3.38873800000000       -0.65366500000000
C           26.02728400000000        4.84009000000000       -0.93754300000000
C           25.82201100000000        5.75813200000000        0.10094800000000
C           25.79334200000000        7.12451400000000       -0.18778100000000
N           25.96600400000000        7.55533600000000       -1.46597500000000
C           26.16794400000000        6.68479600000000       -2.49090800000000
C           26.20128300000000        5.30983100000000       -2.24636100000000
C           24.76881800000000        2.70115100000000       -0.40304400000000
C           23.47880200000000        3.39545500000000       -0.31148300000000
C           22.54417300000000        2.48678000000000       -0.12293300000000
N           24.62696100000000        1.41625300000000       -0.28346200000000
C           23.22779900000000        1.19989300000000       -0.10081000000000
C           22.63141200000000        0.00023000000000        0.00006500000000
C           23.38927600000000       -1.27164600000000       -0.00361400000000
C           22.84598200000000       -2.46150100000000       -0.22720200000000
C           23.88865400000000       -3.45223000000000       -0.04958600000000
C           25.00030900000000       -2.80312800000000        0.27473600000000
N           24.77555900000000       -1.39286200000000        0.31701400000000
C           26.28541600000000       -3.46490400000000        0.61891400000000
C           26.26256800000000       -4.89722100000000        1.00481300000000
C           26.92428100000000       -5.85875900000000        0.22723200000000
C           26.88007100000000       -7.20099400000000        0.61126700000000
N           26.19343599999999       -7.57018400000000        1.72548600000000
C           25.53423400000000       -6.66055900000000        2.49061100000000
C           25.55313500000000       -5.30792200000000        2.14278300000000
C           27.45230700000000       -2.79259700000000        0.59995200000000
C           28.76451300000000       -3.32707000000000        0.96079300000000
C           29.62675400000000       -2.34918400000000        0.76169300000000
C           28.87436200000000       -1.18868800000000        0.28847800000000
N           27.60599900000000       -1.43502000000000        0.19037200000000
H           30.59242800000000        0.11866400000000       -0.06864900000000
H           30.56236000000000        2.65963500000000       -0.74521300000000
H           28.74665300000000        4.43213900000000       -1.06467200000000
H           25.68561000000000        5.41837700000000        1.12019800000000
H           25.63452800000000        7.84318600000000        0.60498000000000
H           26.30311600000000        7.06023700000000       -3.49642300000000
H           26.36271800000000        4.61910700000000       -3.06462000000000
H           23.30070700000000        4.45946800000000       -0.38946000000000
H           21.48641500000000        2.68764300000000       -0.02297600000000
H           21.81280300000000       -2.66657800000000       -0.47180300000000
H           23.77066900000000       -4.52383200000000       -0.13970100000000
H           27.46492400000000       -5.57112700000000       -0.66521500000000
H           27.39073000000000       -7.95034500000000        0.02132300000000
H           24.99597700000000       -6.98704400000000        3.37068700000000
H           25.02764100000000       -4.58711500000000        2.75698600000000
H           29.00903800000000       -4.31626900000000        1.32494400000000
H           30.69387400000000       -2.40666100000000        0.93200600000000
C           18.35438000000000        0.01296200000000        0.00259000000000
C           17.10210900000000       -0.00621900000000       -0.00175800000000
C           19.66804800000000        0.01219600000000        0.00452300000000
C           21.17118100000000       -0.00621900000000       -0.00175800000000
112
 energy: -197.649015401082 gnorm: 0.268459517941 xtb: 6.5.1 (b24c23e)
Fe          12.05205934336663        0.00070108564339       -0.00799377024519
C            8.67885220190592       -0.08490341775977       -0.03090419943861
C            9.34983274787745       -1.25871065388978        0.02724696397827
C            8.69415352419490       -2.55442141192493        0.08397477290171
C            9.64702576390053       -3.48420879253689        0.19231704924247
C           10.94007956724245       -2.80068473307376        0.20415295965913
N           10.74873404331316       -1.40755317938529        0.09679428857341
C           12.14470655003438       -3.42189974654426        0.35963328736668
C           12.16836982920124       -4.89885228470101        0.50985951546953
C           12.36763584830754       -5.48154542265042        1.76237227247130
C           12.39012785458633       -6.86745580740569        1.86891886521670
N           12.22119725784504       -7.65472959765293        0.79390016649438
C           12.02205586374756       -7.11084294025797       -0.41791320038801
C           11.98671915064134       -5.73220729363087       -0.59612042121166
C           13.41141201134841       -2.71314631752128        0.40224976719624
C           14.68988328328544       -3.35304014166833        0.68734953356439
C           15.63835116968132       -2.40973187587823        0.60257112163720
N           13.57495999166780       -1.42342691743111        0.15627437436679
C           14.97077251839423       -1.17421442294776        0.25227044407449
C           15.59667521919986        0.01434607756774       -0.00997233539344
C           14.80470443376761        1.20610254203972       -0.35684050428943
C           15.34870096986066        2.31343439175241       -0.93596022244992
C           14.32162107683281        3.29084222005130       -1.04930554084997
C           13.18109268785043        2.74420590431604       -0.53577535147134
N           13.41593661607192        1.40721486945575       -0.12604887986692
C           11.92069475853016        3.47796411546224       -0.41181687868002
C           11.93873124744071        4.96603347445309       -0.46782251934859
C           11.26833463855438        5.66851401944846       -1.47621924167540
C           11.31976186803036        7.05910545591093       -1.48887497416472
N           11.99368602119044        7.74360222104395       -0.55026132177938
C           12.63911515915679        7.08887705319215        0.42845835570950
C           12.63325444539021        5.69977593305027        0.49806926355647
C           10.73852936399850        2.83782577629520       -0.23530504314137
C            9.43357952337087        3.45630842903664       -0.05032592303647
C            8.54949900384988        2.45349400137826        0.04407435981969
C            9.29496004644719        1.21046815864600       -0.06783660671360
N           10.58626420152527        1.42984848139253       -0.21751277223443
H            7.59553100732512       -0.12128428022857       -0.03111924850946
H            7.62879942806796       -2.74384907554237        0.05821322211121
H            9.46390041493838       -4.54794070038250        0.26978186162224
H           12.50119617787322       -4.86084592846719        2.64242367276867
H           12.54898891500980       -7.33317918509697        2.83899902041108
H           11.88754886921545       -7.77135654607272       -1.27189575019975
H           11.82612344156049       -5.31092473825883       -1.58341989436175
H           14.86733944630105       -4.38976012360161        0.92336042916152
H           16.69702165566538       -2.56300445366523        0.75603594438236
H           16.37771568396733        2.42764408162323       -1.23319259493089
H           14.42547774541228        4.28683604075559       -1.45195864857178
H           10.72587308606962        5.13747746498133       -2.25146797719675
H           10.80872434593652        7.61427940429613       -2.27329146749362
H           13.17887974319830        7.66680243382395        1.17606273035437
H           13.15787501929950        5.19184147621908        1.30026208739110
H            9.19833735174951        4.51083253845496        0.00954477998996
H            7.48641697038050        2.55950382318881        0.19141828309210
Fe          26.13414934751301       -0.00240112098495       -0.00751006540222
C           29.50832880631740        0.07273865999575       -0.05431219559891
C           28.83730349367194        1.21269095749570       -0.33992248014143
C           29.49299206477975        2.46888834072390       -0.66236663517820
C           28.53999523217631        3.38995269504292       -0.82899162505901
C           27.24695786272070        2.73922847296974       -0.61893221005705
N           27.43818877817716        1.37497355820364       -0.31686703733733
C           26.04186069046346        3.37844007149663       -0.65068407612642
C           26.01869907732700        4.83555229082722       -0.93640899722140
C           25.81958120730665        5.75743720136899        0.09250809177193
C           25.79711231041264        7.11450001902450       -0.20848799977838
N           25.96604138953924        7.55524772766711       -1.46594128716552
C           26.16515470479169        6.68250476379733       -2.46724548566691
C           26.20047931872428        5.31156333884562       -2.23690504689703
C           24.77463101444387        2.71268821830454       -0.40395110221801
C           23.49787446936748        3.40895742215366       -0.31732120512606
C           22.54815546118316        2.48212988425789       -0.12379885080045
N           24.60741420537870        1.40595228131451       -0.26440047198144
C           23.21069959780177        1.19858345631559       -0.10026476782151
C           22.56777013734070       -0.01685675946267       -0.00640304857688
C           23.37811554298238       -1.25762567663136        0.00929778672540
C           22.83784343403892       -2.48551191511630       -0.22355489725523
C           23.86581475786391       -3.45321189394234       -0.04719055854038
C           25.00555718984672       -2.78023673728324        0.28521174429789
N           24.76834445134567       -1.38148034160574        0.28830840597940
C           26.26632738954915       -3.44667447153180        0.61705260373335
C           26.24841647086743       -4.88691239972077        0.99608096718837
C           26.91885762007443       -5.85231487451103        0.23552449398363
C           26.86744333559482       -7.18655152385463        0.62769897971732
N           26.19353753666618       -7.56861501086347        1.72477321307285
C           25.54811411198258       -6.65762202119365        2.47085952153573
C           25.55395190583132       -5.30826885061369        2.13359559830194
C           27.44862220800427       -2.78315972335273        0.59980495016390
C           28.75355438314038       -3.32120494106998        0.95665398470334
C           29.63766590263918       -2.33426920818290        0.75542319210695
C           28.89215310325502       -1.17751499017323        0.28700262696783
N           27.60087443375125       -1.43071198713119        0.20759250950969
H           30.59166030470703        0.10745603600716       -0.06513817779856
H           30.55835912961243        2.64267750178676       -0.74208234983357
H           28.72319394517421        4.43027666485470       -1.06414991107082
H           25.68600387690552        5.41951861567171        1.11501908498192
H           25.63823737925269        7.84217831178883        0.58427230064368
H           26.29967134858243        7.06623947214819       -3.47638136173432
H           26.36108147328029        4.62154059998896       -3.05915039004303
H           23.32050918625846        4.46939360735139       -0.39292668344179
H           21.48960338570415        2.67311424820309       -0.02184202013271
H           21.80894806417833       -2.68145061929953       -0.47437302783740
H           23.76212092689133       -4.52329952276468       -0.14287868507224
H           27.46133774949584       -5.56967504177167       -0.66063370956121
H           27.37848941079472       -7.94581869267224        0.03858451988823
H           25.00834924230028       -6.99324876222963        3.35419263604027
H           25.02933081355927       -4.58909170169139        2.75349241547584
H           28.98884008744307       -4.31277012615470        1.32051432687078
H           30.70076390753237       -2.39285761457611        0.92721322519078
C           18.38520092275059        0.01794960385182        0.00267763007781
C           17.11596643562307        0.01293942286659       -0.00613135723036
C           19.75136769345414        0.00497975427263        0.00455912263246
C           21.09018866604906       -0.02350015551425        0.00242668120398
112
 energy: -197.690039708879 gnorm: 0.265054233815 xtb: 6.5.1 (b24c23e)
Fe          12.07097048608262       -0.00267875911486       -0.01403396706290
C            8.68474998446561       -0.06365972567015       -0.02961983951607
C            9.36382275594763       -1.25681867424155        0.02625040375723
C            8.70424832904720       -2.54066815572760        0.08272199639417
C            9.66894337172457       -3.47717900541315        0.19153147190764
C           10.94391272861276       -2.78260222312835        0.20065355098320
N           10.73731546205370       -1.41587905690116        0.09650845082267
C           12.17093321920327       -3.40322377135052        0.36014155323075
C           12.17670545858363       -4.88824100993564        0.50966608077181
C           12.37050951851320       -5.48042155864198        1.75597209296720
C           12.38676452851474       -6.86363132295555        1.84856282555197
N           12.22140122445688       -7.65543584267643        0.79400998934120
C           12.02440815609068       -7.10112463741473       -0.39794257919784
C           11.98862642139509       -5.72774694155615       -0.58834781406224
C           13.40561381402802       -2.72060727298493        0.40452546495386
C           14.67188266336148       -3.35796087245437        0.68185751975840
C           15.63010104869306       -2.40219983950496        0.59783705947509
N           13.59599805496359       -1.39983675387392        0.16871083267481
C           14.98121687217207       -1.16859318462265        0.25766012663643
C           15.64868763635971        0.03125068096953       -0.02011735969752
C           14.81888642293256        1.18992263908107       -0.34721202521697
C           15.35545649926560        2.34287202157086       -0.93347444294676
C           14.35258418340572        3.28661018723011       -1.03988066006724
C           13.17880129136361        2.71769934352108       -0.52266349082863
N           13.43670106980193        1.39159401294228       -0.14879103670673
C           11.95118273986920        3.44922467896345       -0.41018696761534
C           11.95738330027934        4.94512312385706       -0.47576910835883
C           11.27607937074315        5.65889494874044       -1.46868312930985
C           11.33098768000186        7.04652755074150       -1.46985674976732
N           11.99384912380649        7.74084116883559       -0.55050684627591
C           12.62746003127452        7.07839385566922        0.41172013637660
C           12.63597488418474        5.69302311315443        0.48893348757203
C           10.74345816705280        2.81899150652018       -0.22546303533335
C            9.44945505603449        3.44188951829662       -0.05303706361684
C            8.54604521742687        2.43705113475869        0.03872098565238
C            9.27721007817568        1.19692785987671       -0.06419751294848
N           10.59698300021903        1.43042586235965       -0.19615531738612
H            7.60028417429600       -0.11277509210331       -0.02821844966381
H            7.63791637674851       -2.72270472588021        0.05628736290798
H            9.49374520541265       -4.54160738638629        0.26928345160237
H           12.50248913157235       -4.86306628966633        2.63887609627464
H           12.54471994916404       -7.33824161667629        2.81905134495812
H           11.89023920191713       -7.77021777966306       -1.25071141130392
H           11.82798455660161       -5.31079104244433       -1.57794308625352
H           14.84652395811368       -4.39361016587414        0.92045248107784
H           16.69019383511235       -2.54622880690916        0.75098998540331
H           16.38298346365313        2.44129304911279       -1.23616238716699
H           14.43266040464905        4.28177075638305       -1.44955453218766
H           10.72977408985111        5.13523000084894       -2.24718436889444
H           10.82007138608144        7.61133153228760       -2.25394059714846
H           13.16519697962908        7.66622828963551        1.15922475527673
H           13.15921840989863        5.19147801109047        1.29632486078669
H            9.22496499996249        4.49937100064634        0.00464703729752
H            7.48452881155986        2.54472515379498        0.18785743573519
Fe          26.11435026830334       -0.00120970481882       -0.01444632855610
C           29.50234471062554        0.05276647735888       -0.04692106895389
C           28.82308481978591        1.21047766189684       -0.34031822530446
C           29.48253325244715        2.45535423935346       -0.65950775970412
C           28.51760796073488        3.38291211968572       -0.82762391202200
C           27.24255614269813        2.72066308062375       -0.61695812010287
N           27.44926239189231        1.38261787906318       -0.31928753648440
C           26.01462210732247        3.35964338364405       -0.64463156585719
C           26.00962157621988        4.82470780472756       -0.93342519421516
C           25.81655786842707        5.75419462409693        0.08671042496798
C           25.80053735936587        7.10468193758923       -0.22682236716339
N           25.96582506004322        7.55575327065184       -1.46599009753820
C           26.16286802431155        6.67874964293085       -2.44517381090712
C           26.19838961644393        5.30923270130565       -2.22799781704509
C           24.77900661450394        2.71856025739043       -0.40380315451137
C           23.51491526528335        3.41093905677980       -0.32382707780098
C           22.55473971050898        2.47291163172997       -0.12658785649783
N           24.58388115208816        1.38502168458028       -0.24600913950703
C           23.19701695324734        1.19221622574292       -0.09385101559142
C           22.50821421474537       -0.03340783291118       -0.01040965033554
C           23.36042005064220       -1.23702995562103        0.01451948424933
C           22.82965088666242       -2.51197081367670       -0.21264843864677
C           23.83422177376513       -3.44567388917594       -0.03989654240138
C           25.00642256961565       -2.74969932727828        0.29006184032807
N           24.74493310940363       -1.37116564092826        0.26271585336719
C           26.23502850312918       -3.41796808346046        0.61019223512101
C           26.22927060650825       -4.86881874678445        0.98219217536475
C           26.91094021312797       -5.84062383482074        0.23994087483110
C           26.85620996105105       -7.16874867314987        0.64226166303495
N           26.19336922001505       -7.56590710809967        1.72371294310329
C           25.55978354308598       -6.65233635551525        2.45178710512554
C           25.55111259807812       -5.30432064060790        2.12284666137222
C           27.44332677467788       -2.76220180460832        0.60372326034797
C           28.73745291734697       -3.30824980921443        0.94979300172401
C           29.64097577146957       -2.32018611757143        0.74554879700697
C           28.90980662252701       -1.16356804642665        0.28653735448200
N           27.59014131953480       -1.42504246358608        0.22808128970819
H           30.58683163208374        0.10017145253546       -0.05986682406769
H           30.54892352296626        2.62191283852451       -0.73775744196513
H           28.69307513286843        4.42396808141006       -1.06273595100365
H           25.68463870627535        5.42052004969216        1.11104944101609
H           25.64255430276743        7.84103784156680        0.56371762692462
H           26.29701170680861        7.07109452405355       -3.45565777469902
H           26.35915285496830        4.62287269063336       -3.05383222388440
H           23.34093204403281        4.47145287692367       -0.39654968472218
H           21.49515290027452        2.65645625115997       -0.02174421950680
H           21.80263262024024       -2.69571642800729       -0.47344986719534
H           23.75474484367034       -4.51720380121769       -0.14230546373575
H           27.45736701950466       -5.56614002408838       -0.65717875359909
H           27.36713043997615       -7.93716884380868        0.05626039435327
H           25.02205944583176       -6.99752358266476        3.33790227227428
H           25.02789628009894       -4.58984021308861        2.74967830015130
H           28.96206664139036       -4.30324255030142        1.31248058586698
H           30.70252134363637       -2.37982694502274        0.91955962702339
C           18.40186011892214        0.02076392761543       -0.00114661971894
C           17.14616746025006        0.03571283972484       -0.01449420359744
C           19.83557300509024       -0.00995241379712        0.00750645948227
C           20.99752768437368       -0.03596488985520       -0.00462202599906
112
 energy: -197.715046624231 gnorm: 0.062508244624 xtb: 6.5.1 (b24c23e)
Fe          12.08751229457459       -0.00554064287863       -0.02305982898142
C            8.68746458509190       -0.05943787939587       -0.02675161249693
C            9.37151949642352       -1.25314514725773        0.02597848774497
C            8.71669431458315       -2.53312562978374        0.08110375424271
C            9.68651407412643       -3.46897553820932        0.18940558295782
C           10.95284335337238       -2.77158734451925        0.19793658042865
N           10.73969935652546       -1.41222383676111        0.09542892591639
C           12.18310639058119       -3.39117715759667        0.35977043815825
C           12.18670628827960       -4.87750334157224        0.50927378112679
C           12.37633911657005       -5.47580343602049        1.75267636194376
C           12.38638591480187       -6.85944191837309        1.84233092829163
N           12.22096120285813       -7.65409153248424        0.79421342836485
C           12.02485431285069       -7.09360144906141       -0.39131492498581
C           11.99278537349009       -5.72043166644216       -0.58418988099294
C           13.40890106651033       -2.71248908742020        0.40942903026753
C           14.66730318960144       -3.35542495192529        0.67792370552214
C           15.62758923301201       -2.39795128435751        0.59515309923648
N           13.60616526138053       -1.38408229543678        0.18201102418256
C           14.98479272262461       -1.16174834405911        0.26093074138545
C           15.65397239296953        0.04000653928218       -0.02490942901698
C           14.83768816942659        1.19053184614581       -0.35008505547101
C           15.37555032291945        2.35910350189995       -0.92617451691522
C           14.37409787406766        3.28925600136197       -1.02876948409598
C           13.19397506412810        2.70380411667854       -0.51933729725485
N           13.45700528815385        1.37724000923108       -0.17116053755638
C           11.97250685085826        3.42668631844729       -0.40623317681792
C           11.97719693943291        4.92363605452333       -0.48206653061341
C           11.28679407127482        5.64167057947655       -1.46557830057750
C           11.33550402000318        7.02989469783553       -1.46229815452748
N           11.99338795102214        7.73159086880764       -0.54981236303740
C           12.62558288707455        7.06625241656855        0.40640838636126
C           12.64613529826265        5.68063667925069        0.48181916272536
C           10.75748108510525        2.80052949092293       -0.21338321900549
C            9.46627342821273        3.42779226674476       -0.05391718348054
C            8.55244526945396        2.42893141652439        0.03440690127956
C            9.27935592777622        1.19099599419629       -0.05568653930351
N           10.60800699170477        1.42125808326696       -0.17367365448624
H            7.60323955201539       -0.10651706624058       -0.02478199186203
H            7.64971932374258       -2.70528497617721        0.05389466281178
H            9.52687148042843       -4.53494207539454        0.26790541124721
H           12.50633556902943       -4.86299285461887        2.63737150725684
H           12.54099395699133       -7.34079293307657        2.80691662015959
H           11.89079239294369       -7.76682352229712       -1.23726834483137
H           11.83096379128505       -5.30736103252067       -1.57372786228989