177
 energy: -321.273713083237 gnorm: 0.505306875856 xtb: 6.5.1 (b24c23e)
Cu          35.62344100000000       -0.01609500000000       -0.00677300000000
C           32.28544400000000        0.10706100000000        0.06530500000000
C           32.94741900000000        1.25650500000000        0.22622700000000
C           32.29654900000000        2.55381200000000        0.36340200000000
C           33.23651800000000        3.46447000000000        0.53608900000000
C           34.54159499999999        2.78905400000000        0.53009300000000
N           34.36480900000000        1.38703600000000        0.32300800000000
C           35.73352900000000        3.39490800000000        0.71174700000000
C           35.78273900000000        4.85337300000000        0.96401700000000
C           35.30005999999999        5.38251500000000        2.17172500000000
C           35.36301400000000        6.75836200000000        2.41220900000000
C           35.91384900000000        7.61490600000000        1.45054800000000
C           35.97986100000000        9.03112900000000        1.69926200000000
N           36.03292000000000       10.16970400000000        1.89930800000000
C           36.40295700000000        7.08990300000000        0.24761500000000
C           36.33964000000000        5.71424700000000        0.00582100000000
C           37.02496200000000        2.65918300000000        0.68023100000000
C           38.30830300000000        3.24426300000000        1.08752400000000
C           39.24310500000000        2.33436900000000        0.90271400000000
N           37.16799100000000        1.43733800000000        0.26664000000000
C           38.56332100000000        1.15663400000000        0.37753000000000
C           39.15788100000000        0.01460000000000       -0.00424200000000
C           38.39466800000000       -1.14549200000000       -0.51566900000000
C           38.92558600000000       -2.13801100000000       -1.21852500000000
C           37.88297000000000       -3.12380800000000       -1.42802000000000
C           36.78506200000000       -2.66991500000000       -0.83450500000000
N           37.01845800000000       -1.39659000000000       -0.23059900000000
C           35.50656800000000       -3.42125100000000       -0.74838300000000
C           35.52982700000000       -4.88679000000000       -0.97592600000000
C           34.84565600000000       -5.45083300000000       -2.06537000000000
C           34.88753799999999       -6.83083000000000       -2.28573400000000
C           35.61919300000000       -7.65770500000000       -1.42412900000000
C           35.66320799999999       -9.07826900000000       -1.65216500000000
N           35.69863200000000      -10.22035100000000       -1.83542100000000
C           36.31092400000000       -7.09875600000000       -0.34221200000000
C           36.26900700000000       -5.71892900000000       -0.12049300000000
C           34.34424700000000       -2.80211700000000       -0.46570000000000
C           33.03695900000000       -3.43988400000000       -0.31872100000000
C           32.17497800000000       -2.46493200000000       -0.10332500000000
C           32.92318700000000       -1.20895300000000       -0.09841600000000
N           34.18821300000000       -1.39327400000000       -0.30866900000000
H           31.20208400000000        0.13488700000000        0.05594900000000
H           31.23319800000000        2.75295300000000        0.32619500000000
H           33.04848300000000        4.52322500000000        0.65735000000000
H           34.87775400000000        4.72873700000000        2.92499600000000
H           34.98493000000000        7.15341700000000        3.34751100000000
H           36.83378600000000        7.74304900000000       -0.50172600000000
H           36.72268600000000        5.31901700000000       -0.92705900000000
H           38.47897100000000        4.24036500000000        1.47430700000000
H           40.29688300000000        2.46636600000000        1.10893800000000
H           39.95135499999999       -2.21841000000000       -1.55255800000000
H           37.99208399999999       -4.06626500000000       -1.94889100000000
H           34.28430200000000       -4.82078300000000       -2.74440200000000
H           34.35281400000000       -7.25206400000000       -3.12859200000000
H           36.88284500000000       -7.72875200000000        0.32846100000000
H           36.80937600000000       -5.29836200000000        0.71882000000000
H           32.79536300000000       -4.49335100000000       -0.36985200000000
H           31.11035900000000       -2.58780900000000        0.04652500000000
Cu          58.83071099999999        0.04511300000000       -0.00843100000000
C           62.16870800000000       -0.07396000000000        0.07020900000000
C           61.50673400000000       -1.21300700000000        0.29312200000000
C           62.15760399999999       -2.50098500000000        0.50032700000000
C           61.21763500000000       -3.40095900000000        0.72206000000000
C           59.91255800000000       -2.72685800000000        0.67950800000000
N           60.08934399999999       -1.33810600000000        0.39682700000000
C           58.72062399999999       -3.32198900000000        0.89369400000000
C           58.67141400000000       -4.76465800000000        1.22455100000000
C           59.15409200000000       -5.22764400000000        2.45913300000000
C           59.09113900000000       -6.58845400000000        2.77374900000000
C           58.54030299999999       -7.49580300000000        1.85986800000000
C           58.47429100000000       -8.89648500000000        2.18488600000000
N           58.42123200000000      -10.02256100000000        2.44627800000000
C           58.05119500000000       -7.03669300000000        0.63027700000000
C           58.11451300000000       -5.67614400000000        0.31436500000000
C           57.42919100000000       -2.58905000000000        0.82239500000000
C           56.14584899999999       -3.15122200000000        1.26076600000000
C           55.21104800000000       -2.25266700000000        1.02696800000000
N           57.28616200000000       -1.39138700000000        0.34326400000000
C           55.89083100000000       -1.10509100000000        0.43879600000000
C           55.29627099999999        0.01460000000000       -0.00424200000000
C           56.05948400000000        1.14530400000000       -0.57772200000000
C           55.52856599999999        2.09831700000000       -1.33327900000000
C           56.57118300000000        3.07132700000000       -1.59583400000000
C           57.66909000000000        2.65023100000000       -0.97861700000000
N           57.43569500000000        1.41146700000000       -0.30666400000000
C           58.94758400000000        3.40512800000000       -0.93329700000000
C           58.92432600000000        4.85619900000000       -1.23984400000000
C           59.60849600000000        5.36043600000000       -2.35822700000000
C           59.56661400000000        6.72648000000000       -2.65297600000000
C           58.83496000000000        7.59878700000000       -1.83739700000000
C           58.79094400000000        9.00492200000000       -2.14200400000000
N           58.75551999999999       10.13540900000000       -2.38681900000000
C           58.14322800000000        7.09922900000000       -0.72680800000000
C           58.18514500000000        5.73342800000000       -0.43071500000000
C           60.10990499999999        2.80220500000000       -0.61751000000000
C           61.41719399999999        3.44699400000000       -0.50527300000000
C           62.27917500000000        2.48513200000000       -0.23741300000000
C           61.53096500000000        1.23126100000000       -0.16451700000000
N           60.26593900000000        1.40392900000000       -0.38444000000000
H           63.25206799999999       -0.10225200000000        0.06237200000000
H           63.22095400000000       -2.70184800000000        0.47395500000000
H           61.40566999999999       -4.45159700000000        0.90046000000000
H           59.57639799999999       -4.53404500000000        3.17590700000000
H           59.46922199999999       -6.93229600000000        3.72906500000000
H           57.62036600000000       -7.72944700000000       -0.08260600000000
H           57.73146599999999       -5.33199600000000       -0.63854300000000
H           55.97518199999999       -4.12492500000000        1.70090700000000
H           54.15726899999999       -2.37330600000000        1.24003500000000
H           54.50279700000000        2.16051500000000       -1.67117500000000
H           56.46206899999999        3.98420500000000       -2.16696300000000
H           60.16984999999999        4.69455000000000       -3.00215400000000
H           60.10133900000000        7.10146700000000       -3.51740100000000
H           57.57130800000000        7.76460800000000       -0.09122400000000
H           57.64477700000000        5.35891500000000        0.43013500000000
H           61.65879000000000        4.49614800000000       -0.61336000000000
H           63.34379300000000        2.61594100000000       -0.09443500000000
C           41.21401200000000        0.01460000000000       -0.00424200000000
C           42.43593000000000        0.01460000000000       -0.00424200000000
C           52.01822300000000        0.01460000000000       -0.00424200000000
C           53.24014000000000        0.01460000000000       -0.00424200000000
Cu          47.21052599999999        0.01598300000000       -0.01463300000000
C           43.77398199999999       -0.03073700000000        0.00893000000000
C           44.42955100000000       -1.14017400000000       -0.37897100000000
C           43.78882800000000       -2.41122100000000       -0.72275600000000
C           44.72532600000000       -3.25838400000000       -1.10078900000000
C           46.02247100000000       -2.57856200000000       -1.02509400000000
N           45.84453499999999       -1.23855900000000       -0.55926700000000
C           47.20689800000000       -3.13439200000000       -1.35838300000000
C           47.24250099999999       -4.51774300000000       -1.88696800000000
C           46.72126699999999       -4.80595300000000       -3.15844000000000
C           46.77003900000000       -6.11011600000000       -3.65988500000000
C           47.34459700000000       -7.13476500000000       -2.89712000000000
C           47.39595000000000       -8.47706400000000       -3.41431000000000
N           47.43736400000000       -9.55621300000000       -3.83011100000000
C           47.87139899999999       -6.84988400000000       -1.63094100000000
C           47.82233400000000       -5.54617900000000       -1.12822900000000
C           48.50385000000000       -2.42511000000000       -1.21495700000000
C           49.77246800000000       -2.92161200000000       -1.76346100000000
C           50.72468100000000       -2.08799200000000       -1.39670800000000
N           48.67162699999999       -1.32818900000000       -0.54411800000000
C           50.06978700000000       -1.04795400000000       -0.61395300000000
C           50.68479799999999       -0.03073700000000        0.00893000000000
C           49.93383900000000        0.99702500000000        0.75976900000000
C           50.46658100000000        1.80134600000000        1.67073900000000
C           49.43430900000000        2.73854300000000        2.07183400000000
C           48.34288300000000        2.44453900000000        1.37446000000000
N           48.56822900000000        1.32929500000000        0.51400700000000
C           47.08969700000000        3.23649200000000        1.40097700000000
C           47.15185900000000        4.64399000000000        1.86599900000000
C           46.44262899999999        5.05001700000000        3.00855900000000
C           46.51939400000000        6.37352100000000        3.45242200000000
C           47.31085599999999        7.30065100000000        2.76308900000000
C           47.38970900000000        8.66313500000000        3.22061900000000
N           47.45307600000000        9.75853400000000        3.58843100000000
C           48.02780000000000        6.89835300000000        1.62931300000000
C           47.95128000000000        5.57515800000000        1.18425100000000
C           45.91821400000000        2.70935400000000        0.99542900000000
C           44.64292999999999        3.41363800000000        0.90989100000000
C           43.75484300000000        2.51826400000000        0.52862700000000
C           44.45197300000000        1.23828100000000        0.36129900000000
N           45.71650600000000        1.34409800000000        0.62912900000000
H           42.73414400000000       -2.64809300000000       -0.68131400000000
H           44.53908900000000       -4.28060300000000       -1.40340000000000
H           46.27990700000000       -4.02020900000000       -3.75926300000000
H           46.36230499999999       -6.31885600000000       -4.64166800000000
H           48.32017400000000       -7.63441900000000       -1.03359000000000
H           48.23403700000000       -5.33706600000000       -0.14840700000000
H           49.92206599999999       -3.81106200000000       -2.36130900000000
H           51.77398299999999       -2.18474500000000       -1.64198700000000
H           51.48843600000000        1.78995900000000        2.02560900000000
H           49.54870900000000        3.55144400000000        2.77722700000000
H           45.83455100000000        4.34027000000000        3.55598600000000
H           45.96451700000000        6.67273300000000        4.33357800000000
H           48.64568300000000        7.60659000000000        1.09044900000000
H           48.51116700000000        5.27618800000000        0.30651300000000
H           44.43933300000000        4.45848300000000        1.10428300000000
H           42.70474200000000        2.71946900000000        0.36522300000000
177
 energy: -321.427834592838 gnorm: 0.300538281565 xtb: 6.5.1 (b24c23e)
Cu          35.63396176313977       -0.00922445698313       -0.00262136275743
C           32.28521736996137        0.08763559462412        0.06303998606903
C           32.95190188907787        1.25699811166281        0.22588789469136
C           32.29715280719046        2.54654893525439        0.36227909500591
C           33.24911429120644        3.46665694392595        0.53747691289897
C           34.54192697495162        2.78361190660827        0.52933156669501
N           34.34132991314998        1.40983310670743        0.32393258433585
C           35.75348836802171        3.38894882229352        0.71299720498306
C           35.79276454858536        4.85344987119107        0.96761450322359
C           35.30137675772374        5.38688915521061        2.16643255476211
C           35.36330871274119        6.75537855762641        2.40826951509869
C           35.91390186284352        7.61519420761393        1.45058749229320
C           35.97970598138917        9.02633855074200        1.69846797290105
N           36.03236081160913       10.15873649517929        1.89739009816334
C           36.40135371551517        7.08642640474805        0.24962907888278
C           36.34106165891738        5.71738387543362        0.01238702139353
C           37.02341925285215        2.67389819044980        0.68105572803496
C           38.29486682073345        3.25756354581862        1.08808276560752
C           39.24467884107832        2.32993358990878        0.89984386363845
N           37.19620042254145        1.42908210929299        0.27371300626217
C           38.59158850398988        1.14807753476232        0.37508118857744
C           39.20190940507804       -0.00345998735739       -0.01666424925727
C           38.41153025469833       -1.13885961611082       -0.49735956581909
C           38.93598900104624       -2.16611560728790       -1.22870369698784
C           37.91187208791997       -3.12654869384610       -1.43051352143934
C           36.78299856302741       -2.65747890497869       -0.81787061881317
N           37.03818397602798       -1.39378557334785       -0.23804545466299
C           35.52656770317773       -3.40802453099878       -0.74497896495623
C           35.54322632069619       -4.88047576560299       -0.98157262854057
C           34.84914895776689       -5.45205311685841       -2.05921523841431
C           34.88889539920710       -6.82581763057083       -2.28124045743448
C           35.61920133490407       -7.65711530018079       -1.42400538602932
C           35.66316252052713       -9.07294574849195       -1.65148141585462
N           35.69809644343540      -10.20888006375857       -1.83357802374680
C           36.30826145069141       -7.09382937665742       -0.34364756701819
C           36.26982331654434       -5.71993663372613       -0.12709343781952
C           34.34494375731595       -2.79997253606139       -0.46400258807771
C           33.04534275236924       -3.43618269065300       -0.32075486434708
C           32.16197032134458       -2.45153831296381       -0.10118845566072
C           32.89936023239685       -1.20060809098465       -0.09859838261138
N           34.18448347103745       -1.40573052773991       -0.30523684815154
H           31.20224578362756        0.12425092538764        0.05659075176182
H           31.23394684174469        2.73981773890768        0.32447219982134
H           33.06626591756245        4.52476657258211        0.65895789806079
H           34.88004451905853        4.73021911805077        2.92079088696882
H           34.98622096583875        7.15266994891536        3.34457480680566
H           36.83207909814448        7.74192626392894       -0.49947211758600
H           36.72123244451715        5.31967528205355       -0.92291621458315
H           38.46406939851388        4.24937241683732        1.47464737254343
H           40.29706681312204        2.45463291454149        1.10498922689917
H           39.95657420241456       -2.23176147021498       -1.56204480378103
H           38.00228400306045       -4.06560031842884       -1.95337674783399
H           34.28749290068758       -4.82114013270214       -2.74040772436327
H           34.35479846144958       -7.24997614983519       -3.12530755851054
H           36.88043821627559       -7.72676673983882        0.32639475357770
H           36.80771608030061       -5.29859365840897        0.71542250016484
H           32.81176544915230       -4.49081769316897       -0.37169391743565
H           31.10241248531646       -2.57625734561267        0.04854260602337
Cu          58.82036668247692        0.03858695207024       -0.00378169015376
C           62.16891296903934       -0.05474019661634        0.06691202301670
C           61.50231728187580       -1.21357369031298        0.29286112537501
C           62.15707118824606       -2.49387246255227        0.49884340907574
C           61.20512382908559       -3.40311501359278        0.72361724917767
C           59.91230218292601       -2.72144216541619        0.67848256003365
N           60.11292725607266       -1.36114614721206        0.39867732725850
C           58.70059631951212       -3.31594772132545        0.89465669775398
C           58.66134825676787       -4.76454122744131        1.22816186397833
C           59.15277493082714       -5.23229584260978        2.45408580985612
C           59.09085030728767       -6.58568774567531        2.76964613490604
C           58.54025288737367       -7.49608888330522        1.85991592632064
C           58.47445574777431       -8.89174608174165        2.18383050043209
N           58.42177206173110      -10.01170876404348        2.44379055246062
C           58.05279846100317       -7.03312132027712        0.63209440646376
C           58.11308567866678       -5.67892586606620        0.32109156267341
C           57.43072084574015       -2.60379211756904        0.82405621760521
C           56.15908765001801       -3.16453720469947        1.26215537571180
C           55.20913087567888       -2.24870995080286        1.02393367734797
N           57.25791030007680       -1.38308673311007        0.34966225719403
C           55.86259762306778       -1.09721206553126        0.43589209862945
C           55.25376706841776        0.03118223982297       -0.01796372956301
C           56.04264708144346        1.13973060592862       -0.55910456206714
C           55.51801979268775        2.12590345599076       -1.34507689074625
C           56.54212640524899        3.07384380018509       -1.59850397966031
C           57.67105564894374        2.63866373093239       -0.96123630011695
N           57.41591206055890        1.40845414245301       -0.31370697690620
C           58.92756652495727        3.39207386172848       -0.92916803912486
C           58.91089113462392        4.84958129402872       -1.24514522200098
C           59.60499974437367        5.36197528775132       -2.35214296470029
C           59.56525425252975        6.72171293461682       -2.64821069221933
C           58.83494912713632        7.59819801511190       -1.83723227675658
C           58.79099804946786        8.99964179491919       -2.14102580416576
N           58.75604521973644       10.12404569567270       -2.38439136190400
C           58.14589297396134        7.09423006165792       -0.72796420728295
C           58.18431773583355        5.73407247036212       -0.43735124073874
C           60.10927885676244        2.80022228465855       -0.61571489294078
C           61.40889018998968        3.44326415686257       -0.50715219279344
C           62.29224677532783        2.47197354070302       -0.23453089574768
C           61.55483547225167        1.22303308054587       -0.16427331844788
N           60.26987908957252        1.41674862209492       -0.38171840596332
H           63.25189535838027       -0.09161985494509        0.06242305766702
H           63.22025708398990       -2.68887011986310        0.47153929410521
H           61.38791892286563       -4.45309065127573        0.90216731779684
H           59.57410560803207       -4.53575164882795        3.17178758100456
H           59.46793218106384       -6.93170551222362        3.72608931512803
H           57.62207386719050       -7.72820782814537       -0.08042144660293
H           57.73292286906580       -5.33243273561362       -0.63437601805333
H           55.98999258050716       -4.13395567815474        1.70176791552292
H           54.15680750709891       -2.36184569938967        1.23540761434667
H           54.49754773446932        2.17331604632108       -1.68139105812641
H           56.45180464116479        3.98322666279562       -2.17141530258277
H           60.16665783447092        4.69511681159345       -2.99818790052309
H           60.09935515427791        7.09955249334364       -3.51400506049518
H           57.57371318669264        7.76250668057236       -0.09317764352721
H           57.64643196097501        5.35896671579375        0.42673520388319
H           61.64242195390518        4.49357746539368       -0.61506768132352
H           63.35178997717454        2.60455889253639       -0.09179337154462
C           41.11497140368760        0.01102986453678       -0.00408658425233
C           42.34869299851263        0.01965395719414       -0.00195727068313
C           52.09757839109616        0.02676026017882        0.00627611135847
C           53.33276555206304        0.01649316779809       -0.00435114859999
Cu          47.20549354519522        0.01476637915502       -0.01184662036680
C           43.75344298725060       -0.00934651592266        0.00538953654367
C           44.43037016743313       -1.14230069863849       -0.37995855832406
C           43.78752774733417       -2.40161245188448       -0.71950710535067
C           44.73720643291679       -3.25946811166576       -1.10255621078676
C           46.02108041500968       -2.57361177273560       -1.02281200099234
N           45.81811005409018       -1.26045272490251       -0.56234349048625
C           47.22341150019414       -3.13116618041393       -1.35985938735787
C           47.25042531403130       -4.51846211786586       -1.89095394836952
C           46.72225748958870       -4.81169010477386       -3.15459383049779
C           46.77047129620592       -6.10817762446016       -3.65576580440200
C           47.34458637922347       -7.13514116724497       -2.89725420932519
C           47.39577305622452       -8.47256414269176       -3.41262593195205
N           47.43697376734405       -9.54585739431955       -3.82615330974886
C           47.86977272720469       -6.84619740351051       -1.63224386377438
C           47.82331524655197       -5.54819792323732       -1.13541670614872
C           48.49691875469958       -2.44760883856897       -1.22183909937760
C           49.75511666764537       -2.93792700760961       -1.76782518318002
C           50.71890275047372       -2.08428711649617       -1.39231872976657
N           48.68540274925272       -1.32593442995825       -0.55347502874327
C           50.06889336576064       -1.04965844707448       -0.61816635264009
C           50.69298418663968       -0.01608761086382        0.01835817407505
C           49.92776410304937        0.99871280698716        0.74616113773659
C           50.47105066715543        1.82660449149122        1.68510748104715
C           49.46116987636409        2.74301973905018        2.07517000383323
C           48.33790945341295        2.44122446040486        1.35707569174537
N           48.57527177446624        1.32860896664634        0.52440746525277
C           47.10723489278111        3.22621129428085        1.39557819125999
C           47.16345677624678        4.63753890403619        1.87061995908428
C           46.44602628217805        5.05242563565147        3.00299270015739
C           46.52076263654595        6.36941479533017        3.44745073301471
C           47.31085935964050        7.30019750868271        2.76291369249858
C           47.38944366113965        8.65808352520536        3.21907447504983
N           47.45244211989907        9.74758131134512        3.58479249151595
C           48.02500929329128        6.89346235665140        1.62985077984146
C           47.95173076620645        5.57530609238968        1.19091025206630
C           45.91838964884835        2.70763231506253        0.99343115960418
C           44.65055463789184        3.40918462303296        0.91164203664373
C           43.74062813967252        2.50464209153236        0.52415704406703
C           44.42841098336845        1.23371470456218        0.36007013411287
N           45.71274906821716        1.35735864373229        0.62544772905808
H           42.73263607170767       -2.63203330237560       -0.67623287463675
H           44.55619541091136       -4.28090621017882       -1.40566381289300
H           46.28214357993483       -4.02255264196952       -3.75564931133239
H           46.36364713142499       -6.31883579674767       -4.63890424632241
H           48.31844489978109       -7.63291272220641       -1.03553180918898
H           48.23234852186530       -5.33681926202963       -0.15271421878531
H           49.90726458264530       -3.82125092102625       -2.36461450120050
H           51.76964649139239       -2.17184550815828       -1.63381899949481
H           51.48956832523714        1.79838795385469        2.03573731902641
H           49.55903486991149        3.55021365479136        2.78285593671151
H           45.83780461266684        4.34119608112341        3.55227019656745
H           45.96658007726814        6.67125704453422        4.33021622878514
H           48.64323608070249        7.60442388690862        1.09207709148871
H           48.50935588392777        5.27588498085825        0.30991095318203
H           44.45497723810516        4.45475566739150        1.10622992221590
H           42.69527505889744        2.70632910013560        0.36107234983884
177
 energy: -321.539113997415 gnorm: 0.118777650747 xtb: 6.5.1 (b24c23e)
Cu          35.65580996197483       -0.00355747900981        0.00347115213893
C           32.29069036333978        0.06691279096225        0.06071788602680
C           32.96045543061861        1.26216860202926        0.22511144162270
C           32.29947332024269        2.53971825346339        0.36116123935137
C           33.26246206616707        3.46752605443861        0.53879694383486
C           34.53880454876073        2.77478928217259        0.52678445750829
N           34.31539497310667        1.43526875505436        0.32599593269214
C           35.77830263490759        3.37497770279922        0.71333849966992
C           35.80193565853806        4.84816805645079        0.97052280645241
C           35.30361386983041        5.38790209144389        2.16182370810984
C           35.36332856067087        6.75071402454278        2.40441370487354
C           35.91383966465376        7.61443038260292        1.45043800438890
C           35.97949252506188        9.01953576298595        1.69740919433081
N           36.03197455955881       10.15260447589328        1.89634652003813
C           36.40005118418105        7.08174400039598        0.25106271101721
C           36.34296531535266        5.71768389873180        0.01829539258699
C           37.02238274547868        2.68504034393561        0.68178677513682
C           38.28230474693021        3.26620895389347        1.08418335726795
C           39.24474648735119        2.32883392654594        0.89637700357086
N           37.23281723446743        1.41096056379493        0.27941745193491
C           38.62405960038073        1.14533244437678        0.37708853034542
C           39.28644199008050       -0.01340467144722       -0.03008749844386
C           38.44623804956792       -1.12472426116529       -0.47693375205882
C           38.94710125689095       -2.20034869160170       -1.23443411880154
C           37.94891042638335       -3.12414552726799       -1.42673273683069
C           36.78541916406449       -2.63926807735274       -0.79796540984153
N           37.07613490325441       -1.38945481986163       -0.25097244394134