      -----------------------------------------------------------      
     |                   =====================                   |     
     |                           x T B                           |     
     |                   =====================                   |     
     |                         S. Grimme                         |     
     |          Mulliken Center for Theoretical Chemistry        |     
     |                    University of Bonn                     |     
      -----------------------------------------------------------      

   * xtb version 6.5.1 (b24c23e) compiled by 'conda@728c89f4b128' on 2022-07-12

   xtb is free software: you can redistribute it and/or modify it under
   the terms of the GNU Lesser General Public License as published by
   the Free Software Foundation, either version 3 of the License, or
   (at your option) any later version.
   
   xtb is distributed in the hope that it will be useful,
   but WITHOUT ANY WARRANTY; without even the implied warranty of
   MERCHANTABILITY or FITNESS FOR A PARTICULAR PURPOSE.  See the
   GNU Lesser General Public License for more details.
   
   Cite this work as:
   * C. Bannwarth, E. Caldeweyher, S. Ehlert, A. Hansen, P. Pracht,
     J. Seibert, S. Spicher, S. Grimme, WIREs Comput. Mol. Sci., 2020, 11,
     e01493. DOI: 10.1002/wcms.1493
   
   for GFN2-xTB:
   * C. Bannwarth, S. Ehlert and S. Grimme., J. Chem. Theory Comput., 2019,
     15, 1652-1671. DOI: 10.1021/acs.jctc.8b01176
   for GFN1-xTB:
   * S. Grimme, C. Bannwarth, P. Shushkov, J. Chem. Theory Comput., 2017,
     13, 1989-2009. DOI: 10.1021/acs.jctc.7b00118
   for GFN0-xTB:
   * P. Pracht, E. Caldeweyher, S. Ehlert, S. Grimme, ChemRxiv, 2019, preprint.
     DOI: 10.26434/chemrxiv.8326202.v1
   for GFN-FF:
   * S. Spicher and S. Grimme, Angew. Chem. Int. Ed., 2020, 59, 15665-15673.
     DOI: 10.1002/anie.202004239
   
   for ALPB and GBSA implicit solvation:
   * S. Ehlert, M. Stahn, S. Spicher, S. Grimme, J. Chem. Theory Comput.,
     2021, 17, 4250-4261. DOI: 10.1021/acs.jctc.1c00471
   
   for DFT-D4:
   * E. Caldeweyher, C. Bannwarth and S. Grimme, J. Chem. Phys., 2017,
     147, 034112. DOI: 10.1063/1.4993215
   * E. Caldeweyher, S. Ehlert, A. Hansen, H. Neugebauer, S. Spicher,
     C. Bannwarth and S. Grimme, J. Chem. Phys., 2019, 150, 154122.
     DOI: 10.1063/1.5090222
   * E. Caldeweyher, J.-M. Mewes, S. Ehlert and S. Grimme, Phys. Chem. Chem. Phys.
     2020, 22, 8499-8512. DOI: 10.1039/D0CP00502A
   
   for sTDA-xTB:
   * S. Grimme and C. Bannwarth, J. Chem. Phys., 2016, 145, 054103.
     DOI: 10.1063/1.4959605
   
   in the mass-spec context:
   * V. Asgeirsson, C. Bauer and S. Grimme, Chem. Sci., 2017, 8, 4879.
     DOI: 10.1039/c7sc00601b
   * J. Koopman and S. Grimme, ACS Omega 2019, 4, 12, 15120-15133.
     DOI: 10.1021/acsomega.9b02011
   
   for metadynamics refer to:
   * S. Grimme, J. Chem. Theory Comput., 2019, 155, 2847-2862
     DOI: 10.1021/acs.jctc.9b00143
   
   for SPH calculations refer to:
   * S. Spicher and S. Grimme, J. Chem. Theory Comput., 2021, 17, 1701-1714
     DOI: 10.1021/acs.jctc.0c01306
   
   with help from (in alphabetical order)
   P. Atkinson, C. Bannwarth, F. Bohle, G. Brandenburg, E. Caldeweyher
   M. Checinski, S. Dohm, S. Ehlert, S. Ehrlich, I. Gerasimov, C. Hölzer
   A. Katbashev, J. Koopman, C. Lavigne, S. Lehtola, F. März, M. Müller,
   F. Musil, H. Neugebauer, J. Pisarek, C. Plett, P. Pracht, F. Pultar,
   J. Seibert, P. Shushkov, S. Spicher, M. Stahn, M. Steiner, T. Strunk,
   J. Stückrath, T. Rose, and J. Unsleber
   
 * started run on 2022/07/30 at 07:21:15.685     

           -------------------------------------------------
          |                Calculation Setup                |
           -------------------------------------------------

          program call               : xtb Zn_Py_C6_2.xyz --gfn 1 --opt -T 48
          hostname                   : cx3-14-19.cx3.hpc.ic.ac.uk
          coordinate file            : Zn_Py_C6_2.xyz
          omp threads                :                     1

   ID    Z sym.   atoms
    1   30 Zn     1, 55
    2    6 C      2-6, 8-11, 13-17, 19-24, 26-29, 31-36, 56-60, 62-65, 67-71,
                  73-78, 80-83, 85-90, 109-114
    3    7 N      7, 12, 18, 25, 30, 37, 61, 66, 72, 79, 84, 91
    4    1 H      38-54, 92-108
########################################################################
[WARNING] Please study the warnings concerning your input carefully
-1- prog_main_parseArguments: Unknown option '-T' provided
########################################################################

           -------------------------------------------------
          |                 G F N 1 - x T B                 |
           -------------------------------------------------

        Reference                      10.1021/acs.jctc.7b00118
      * Hamiltonian:
        H0-scaling (s, p, d)           1.850000    2.250000    2.000000
        zeta-weighting                 0.000000
      * Dispersion:
        s8                             2.400000
        a1                             0.630000
        a2                             5.000000
        s9                             0.000000
      * Repulsion:
        kExp                           1.500000
        rExp                           1.000000
      * Coulomb:
        alpha                          2.000000
        third order                    atomic
        anisotropic                    false
      * Halogen bond correction:
        rad-scale                      1.300000
        damping                        0.440000


          ...................................................
          :                      SETUP                      :
          :.................................................:
          :  # basis functions                 388          :
          :  # atomic orbitals                 388          :
          :  # shells                          228          :
          :  # electrons                       362          :
          :  # halogen bonds                     0          :
          :  max. iterations                   250          :
          :  Hamiltonian                  GFN1-xTB          :
          :  restarted?                      false          :
          :  GBSA solvation                  false          :
          :  PC potential                    false          :
          :  electronic temp.          300.0000000     K    :
          :  accuracy                    1.0000000          :
          :  -> integral cutoff          0.2500000E+02      :
          :  -> integral neglect         0.1000000E-07      :
          :  -> SCF convergence          0.1000000E-05 Eh   :
          :  -> wf. convergence          0.2000000E-04 e    :
          :  Broyden damping             0.4000000          :
          ...................................................

 iter      E             dE          RMSdq      gap      omega  full diag
   1   -200.3821333 -0.200382E+03  0.104E+01    0.86       0.0  T
   2   -200.5748883 -0.192755E+00  0.625E+00    0.90       1.0  T
   3   -200.1378115  0.437077E+00  0.146E+00    0.67       1.0  T
   4   -200.5271469 -0.389335E+00  0.564E-01    1.04       1.0  T
   5   -200.6153668 -0.882199E-01  0.118E-01    0.81       1.0  T
   6   -200.6175361 -0.216933E-02  0.603E-02    0.85       1.0  T
   7   -200.6187232 -0.118710E-02  0.141E-02    0.83       1.0  T
   8   -200.6187879 -0.646185E-04  0.294E-03    0.84       3.2  T
   9   -200.6187883 -0.403689E-06  0.187E-03    0.84       5.0  T
  10   -200.6187889 -0.608559E-06  0.888E-04    0.84      10.6  T
  11   -200.6187890 -0.951436E-07  0.450E-04    0.84      20.8  T
  12   -200.6187890 -0.107528E-07  0.190E-04    0.84      49.3  T
  13   -200.6187890 -0.672694E-08  0.725E-05    0.84     129.1  T

   *** convergence criteria satisfied after 13 iterations ***

         #    Occupation            Energy/Eh            Energy/eV
      -------------------------------------------------------------
         1        2.0000           -0.7666143             -20.8606
       ...           ...                  ...                  ...
       175        2.0000           -0.4062347             -11.0542
       176        2.0000           -0.3997462             -10.8776
       177        2.0000           -0.3996884             -10.8761
       178        2.0000           -0.3988364             -10.8529
       179        2.0000           -0.3983763             -10.8404
       180        2.0000           -0.3881977             -10.5634
       181        2.0000           -0.3786822             -10.3045 (HOMO)
       182        0.0000           -0.3479626              -9.4685 (LUMO)
       183                         -0.3299058              -8.9772
       184                         -0.3284510              -8.9376
       185                         -0.3225446              -8.7769
       186                         -0.2981107              -8.1120
       ...                                ...                  ...
       388                          2.4257158              66.0071
      -------------------------------------------------------------
                  HL-Gap            0.0307196 Eh            0.8359 eV
             Fermi-level           -0.3633224 Eh           -9.8865 eV

 SCC (total)                   0 d,  0 h,  0 min,  1.249 sec
 SCC setup                      ...        0 min,  0.006 sec (  0.450%)
 Dispersion                     ...        0 min,  0.005 sec (  0.379%)
 classical contributions        ...        0 min,  0.002 sec (  0.132%)
 integral evaluation            ...        0 min,  0.166 sec ( 13.256%)
 iterations                     ...        0 min,  0.648 sec ( 51.874%)
 molecular gradient             ...        0 min,  0.410 sec ( 32.862%)
 printout                       ...        0 min,  0.013 sec (  1.043%)

         :::::::::::::::::::::::::::::::::::::::::::::::::::::
         ::                     SUMMARY                     ::
         :::::::::::::::::::::::::::::::::::::::::::::::::::::
         :: total energy            -197.067365262157 Eh    ::
         :: gradient norm              1.316077140896 Eh/a0 ::
         :: HOMO-LUMO gap              0.835923658977 eV    ::
         ::.................................................::
         :: SCC energy              -200.618788975254 Eh    ::
         :: -> electrostatic           0.203706669507 Eh    ::
         :: repulsion energy           3.652845822501 Eh    ::
         :: dispersion energy         -0.101422109404 Eh    ::
         :: halogen bond corr.         0.000000000000 Eh    ::
         :: add. restraining           0.000000000000 Eh    ::
         :: total charge               0.000000000009 e     ::
         :::::::::::::::::::::::::::::::::::::::::::::::::::::

      ----------------------------------------------------------- 
     |                   =====================                   |
     |                        A N C O P T                        |
     |                   =====================                   |
     |               Approximate Normal Coordinate               |
     |                Rational Function Optimizer                |
      ----------------------------------------------------------- 

          ...................................................
          :                      SETUP                      :
          :.................................................:
          :   optimization level            normal          :
          :   max. optcycles                   342          :
          :   ANC micro-cycles                  20          :
          :   degrees of freedom               336          :
          :.................................................:
          :   RF solver                   davidson          :
          :   write xtbopt.log                true          :
          :   linear?                        false          :
          :   energy convergence         0.5000000E-05 Eh   :
          :   grad. convergence          0.1000000E-02 Eh/α :
          :   maximium RF displ.         1.0000000          :
          :   Hlow (freq-cutoff)         0.1000000E-01      :
          :   Hmax (freq-cutoff)         5.0000000          :
          :   S6 in model hess.         20.0000000          :
          ...................................................

generating ANC from model Hessian ...
Using Lindh-Hessian (1995)
 Shifting diagonal of input Hessian by    1.0027503227333763E-002
 Lowest  eigenvalues of input Hessian
    0.010000    0.010007    0.010022    0.000000    0.000000    0.000000
    0.000000    0.000000    0.000000    0.010042    0.010089    0.010220
    0.010245    0.010587    0.010665    0.010729    0.010741    0.010817
 Highest eigenvalues
    2.102481    2.421078    2.556139    2.610049    3.563762    3.583804


........................................................................
.............................. CYCLE    1 ..............................
........................................................................
   1   -200.6187890 -0.200619E+03  0.180E-05    0.84       0.0  T
   2   -200.6187890 -0.152056E-10  0.109E-05    0.84     856.4  T
   3   -200.6187890 -0.206057E-10  0.607E-06    0.84    1543.2  T
     SCC iter.                  ...        0 min,  0.152 sec
     gradient                   ...        0 min,  0.410 sec
 * total energy  :  -197.0673653 Eh     change       -0.1422336E-08 Eh
   gradient norm :     1.3160775 Eh/α   predicted     0.0000000E+00 (-100.00%)
   displ. norm   :     0.4822939 α      lambda       -0.5693601E+00
   maximum displ.:     0.2379217 α      in ANC's #336, #266, #334, ...

........................................................................
.............................. CYCLE    2 ..............................
........................................................................
   1   -200.6850011 -0.200685E+03  0.196E-01    1.01       0.0  T
   2   -200.6891270 -0.412592E-02  0.124E-01    1.02       1.0  T
   3   -200.6909538 -0.182678E-02  0.382E-02    1.02       1.0  T
   4   -200.6909234  0.303831E-04  0.281E-02    1.01       1.0  T
   5   -200.6909561 -0.326741E-04  0.111E-02    1.02       1.0  T
   6   -200.6909869 -0.308072E-04  0.348E-03    1.01       2.7  T
   7   -200.6909907 -0.381965E-05  0.788E-04    1.01      11.9  T
   8   -200.6909908 -0.789936E-07  0.192E-04    1.01      48.8  T
   9   -200.6909908 -0.329524E-08  0.117E-04    1.01      80.0  T
     SCC iter.                  ...        0 min,  0.450 sec
     gradient                   ...        0 min,  0.409 sec
 * total energy  :  -197.3905598 Eh     change       -0.3231945E+00 Eh
   gradient norm :     0.3407487 Eh/α   predicted    -0.3509055E+00 (   8.57%)
   displ. norm   :     0.4153353 α      lambda       -0.1003414E+00
   maximum displ.:     0.1224343 α      in ANC's #155, #266, #100, ...

........................................................................
.............................. CYCLE    3 ..............................
........................................................................
   1   -200.7381603 -0.200738E+03  0.132E-01    0.98       0.0  T
   2   -200.7402944 -0.213411E-02  0.651E-02    0.97       1.0  T
   3   -200.7410712 -0.776852E-03  0.286E-02    0.98       1.0  T
   4   -200.7411138 -0.425959E-04  0.181E-02    0.97       1.0  T
   5   -200.7411562 -0.423912E-04  0.101E-02    0.98       1.0  T
   6   -200.7411907 -0.344676E-04  0.142E-03    0.98       6.6  T
   7   -200.7411911 -0.454759E-06  0.590E-04    0.98      15.9  T
   8   -200.7411912 -0.475411E-07  0.182E-04    0.98      51.4  T
   9   -200.7411912 -0.527507E-08  0.593E-05    0.98     157.8  T
     SCC iter.                  ...        0 min,  0.450 sec
     gradient                   ...        0 min,  0.411 sec
 * total energy  :  -197.4631289 Eh     change       -0.7256911E-01 Eh
   gradient norm :     0.1643975 Eh/α   predicted    -0.5882535E-01 ( -18.94%)
   displ. norm   :     0.4390229 α      lambda       -0.4328294E-01
   maximum displ.:     0.1187418 α      in ANC's #100, #131, #155, ...

........................................................................
.............................. CYCLE    4 ..............................
........................................................................
   1   -200.7796421 -0.200780E+03  0.116E-01    1.02       0.0  T
   2   -200.7809931 -0.135101E-02  0.506E-02    1.01       1.0  T
   3   -200.7814684 -0.475230E-03  0.247E-02    1.01       1.0  T
   4   -200.7815893 -0.120961E-03  0.155E-02    1.01       1.0  T
   5   -200.7816359 -0.465788E-04  0.688E-03    1.01       1.4  T
   6   -200.7816480 -0.120440E-04  0.119E-03    1.01       7.9  T
   7   -200.7816482 -0.294646E-06  0.487E-04    1.01      19.2  T
   8   -200.7816483 -0.343951E-07  0.183E-04    1.01      51.2  T
   9   -200.7816483 -0.294042E-08  0.959E-05    1.01      97.7  T
     SCC iter.                  ...        0 min,  0.451 sec
     gradient                   ...        0 min,  0.410 sec
 * total energy  :  -197.4903617 Eh     change       -0.2723287E-01 Eh
   gradient norm :     0.0509713 Eh/α   predicted    -0.2581277E-01 (  -5.21%)
   displ. norm   :     0.4816559 α      lambda       -0.1089691E-01
   maximum displ.:     0.1872112 α      in ANC's #22, #58, #54, ...

........................................................................
.............................. CYCLE    5 ..............................
........................................................................
   1   -200.7679396 -0.200768E+03  0.381E-02    1.05       0.0  T
   2   -200.7680266 -0.870758E-04  0.179E-02    1.05       1.0  T
   3   -200.7680780 -0.513246E-04  0.100E-02    1.05       1.0  T
   4   -200.7681160 -0.380062E-04  0.610E-03    1.05       1.5  T
   5   -200.7681228 -0.677028E-05  0.192E-03    1.05       4.9  T
   6   -200.7681232 -0.482401E-06  0.494E-04    1.05      18.9  T
   7   -200.7681233 -0.608807E-07  0.194E-04    1.05      48.3  T
   8   -200.7681233 -0.382951E-08  0.100E-04    1.05      93.4  T
     SCC iter.                  ...        0 min,  0.399 sec
     gradient                   ...        0 min,  0.410 sec
 * total energy  :  -197.4984878 Eh     change       -0.8126101E-02 Eh
   gradient norm :     0.0281080 Eh/α   predicted    -0.6712794E-02 ( -17.39%)
   displ. norm   :     0.5741116 α      lambda       -0.6790913E-02
   maximum displ.:     0.2691340 α      in ANC's #22, #29, #58, ...

........................................................................
.............................. CYCLE    6 ..............................
........................................................................
   1   -200.7459232 -0.200746E+03  0.228E-02    1.08       0.0  T
   2   -200.7459423 -0.190315E-04  0.118E-02    1.08       1.0  T
   3   -200.7459563 -0.140202E-04  0.749E-03    1.08       1.3  T
   4   -200.7459739 -0.175722E-04  0.436E-03    1.08       2.1  T
   5   -200.7459769 -0.304323E-05  0.119E-03    1.08       7.9  T
   6   -200.7459772 -0.281038E-06  0.230E-04    1.08      40.7  T
   7   -200.7459772 -0.108051E-07  0.843E-05    1.08     111.1  T
   8   -200.7459772 -0.794586E-09  0.431E-05    1.08     217.3  T
     SCC iter.                  ...        0 min,  0.402 sec
     gradient                   ...        0 min,  0.406 sec
 * total energy  :  -197.5035896 Eh     change       -0.5101781E-02 Eh
   gradient norm :     0.0201669 Eh/α   predicted    -0.4514912E-02 ( -11.50%)
   displ. norm   :     0.5799263 α      lambda       -0.4032294E-02
   maximum displ.:     0.3248858 α      in ANC's #22, #29, #8, ...

........................................................................
.............................. CYCLE    7 ..............................
........................................................................
   1   -200.7287902 -0.200729E+03  0.145E-02    1.10       0.0  T
   2   -200.7288041 -0.138463E-04  0.741E-03    1.10       1.3  T
   3   -200.7288095 -0.543719E-05  0.401E-03    1.10       2.3  T
   4   -200.7288110 -0.145855E-05  0.285E-03    1.10       3.3  T
   5   -200.7288127 -0.173704E-05  0.103E-03    1.10       9.1  T
   6   -200.7288130 -0.319936E-06  0.968E-05    1.10      96.7  T
   7   -200.7288130 -0.155100E-08  0.302E-05    1.10     310.6  T
     SCC iter.                  ...        0 min,  0.351 sec
     gradient                   ...        0 min,  0.408 sec
 * total energy  :  -197.5066934 Eh     change       -0.3103742E-02 Eh
   gradient norm :     0.0190010 Eh/α   predicted    -0.2694209E-02 ( -13.19%)
   displ. norm   :     0.5805580 α      lambda       -0.2768914E-02
   maximum displ.:     0.3596645 α      in ANC's #22, #8, #29, ...

........................................................................
.............................. CYCLE    8 ..............................
........................................................................
   1   -200.7211968 -0.200721E+03  0.117E-02    1.11       0.0  T
   2   -200.7212095 -0.127213E-04  0.545E-03    1.11       1.7  T
   3   -200.7212145 -0.503146E-05  0.240E-03    1.11       3.9  T
   4   -200.7212153 -0.827490E-06  0.155E-03    1.11       6.0  T
   5   -200.7212157 -0.365973E-06  0.778E-04    1.11      12.0  T
   6   -200.7212159 -0.183009E-06  0.130E-04    1.11      72.2  T
   7   -200.7212159 -0.371097E-08  0.499E-05    1.11     187.6  T
     SCC iter.                  ...        0 min,  0.352 sec
     gradient                   ...        0 min,  0.407 sec
 * total energy  :  -197.5088585 Eh     change       -0.2165128E-02 Eh
   gradient norm :     0.0149742 Eh/α   predicted    -0.1851086E-02 ( -14.50%)
   displ. norm   :     0.5719142 α      lambda       -0.2019474E-02
   maximum displ.:     0.3602089 α      in ANC's #22, #8, #21, ...

........................................................................
.............................. CYCLE    9 ..............................
........................................................................
   1   -200.7205337 -0.200721E+03  0.106E-02    1.11       0.0  T
   2   -200.7205417 -0.795274E-05  0.559E-03    1.11       1.7  T
   3   -200.7205490 -0.736005E-05  0.266E-03    1.11       3.5  T
   4   -200.7205515 -0.247844E-05  0.148E-03    1.11       6.3  T
   5   -200.7205519 -0.404942E-06  0.552E-04    1.11      17.0  T
   6   -200.7205519 -0.428406E-07  0.139E-04    1.11      67.5  T
   7   -200.7205519 -0.370903E-08  0.517E-05    1.11     181.1  T
     SCC iter.                  ...        0 min,  0.351 sec
     gradient                   ...        0 min,  0.409 sec
 * total energy  :  -197.5104482 Eh     change       -0.1589749E-02 Eh
   gradient norm :     0.0106108 Eh/α   predicted    -0.1340010E-02 ( -15.71%)
   displ. norm   :     0.5570253 α      lambda       -0.1465586E-02
   maximum displ.:     0.3234847 α      in ANC's #22, #8, #21, ...

........................................................................
.............................. CYCLE   10 ..............................
........................................................................
   1   -200.7223635 -0.200722E+03  0.754E-03    1.11       0.0  T
   2   -200.7223657 -0.218976E-05  0.467E-03    1.11       2.0  T
   3   -200.7223712 -0.545169E-05  0.230E-03    1.11       4.1  T
   4   -200.7223730 -0.178462E-05  0.136E-03    1.11       6.9  T
   5   -200.7223732 -0.258136E-06  0.400E-04    1.11      23.4  T
   6   -200.7223732 -0.292251E-07  0.110E-04    1.11      85.5  T
   7   -200.7223732 -0.257847E-08  0.356E-05    1.11     263.0  T
     SCC iter.                  ...        0 min,  0.352 sec
     gradient                   ...        0 min,  0.407 sec
 * total energy  :  -197.5116023 Eh     change       -0.1154031E-02 Eh
   gradient norm :     0.0095793 Eh/α   predicted    -0.9601687E-03 ( -16.80%)
   displ. norm   :     0.5504946 α      lambda       -0.1085211E-02
   maximum displ.:     0.2989303 α      in ANC's #8, #22, #21, ...

........................................................................
.............................. CYCLE   11 ..............................
........................................................................
   1   -200.7221305 -0.200722E+03  0.505E-03    1.11       0.0  T
   2   -200.7221314 -0.958579E-06  0.338E-03    1.11       2.8  T
   3   -200.7221335 -0.203870E-05  0.168E-03    1.11       5.6  T
   4   -200.7221340 -0.489940E-06  0.113E-03    1.11       8.3  T
   5   -200.7221342 -0.256641E-06  0.274E-04    1.11      34.1  T
   6   -200.7221343 -0.202659E-07  0.673E-05    1.11     139.1  T
   7   -200.7221343 -0.859643E-09  0.232E-05    1.11     403.9  T
     SCC iter.                  ...        0 min,  0.352 sec
     gradient                   ...        0 min,  0.407 sec
 * total energy  :  -197.5124467 Eh     change       -0.8444517E-03 Eh
   gradient norm :     0.0092550 Eh/α   predicted    -0.7070453E-03 ( -16.27%)
   displ. norm   :     0.4984836 α      lambda       -0.7708421E-03
   maximum displ.:     0.2987328 α      in ANC's #8, #22, #21, ...

........................................................................
.............................. CYCLE   12 ..............................
........................................................................
   1   -200.7196720 -0.200720E+03  0.485E-03    1.11       0.0  T
   2   -200.7196741 -0.207243E-05  0.217E-03    1.11       4.3  T
   3   -200.7196744 -0.302499E-06  0.119E-03    1.11       7.9  T
   4   -200.7196744  0.231707E-07  0.683E-04    1.11      13.7  T
   5   -200.7196744 -0.651349E-07  0.319E-04    1.11      29.3  T
   6   -200.7196745 -0.492203E-07  0.525E-05    1.11     178.5  T
   7   -200.7196745 -0.619508E-09  0.206E-05    1.11     454.2  T
     SCC iter.                  ...        0 min,  0.352 sec
     gradient                   ...        0 min,  0.407 sec
 * total energy  :  -197.5130369 Eh     change       -0.5901326E-03 Eh
   gradient norm :     0.0070213 Eh/α   predicted    -0.4811935E-03 ( -18.46%)
   displ. norm   :     0.4377432 α      lambda       -0.5842871E-03
   maximum displ.:     0.2839099 α      in ANC's #8, #10, #21, ...

........................................................................
.............................. CYCLE   13 ..............................
........................................................................
   1   -200.7168476 -0.200717E+03  0.501E-03    1.11       0.0  T
   2   -200.7168499 -0.223445E-05  0.217E-03    1.11       4.3  T
   3   -200.7168503 -0.427401E-06  0.107E-03    1.11       8.7  T
   4   -200.7168503  0.338884E-07  0.895E-04    1.11      10.5  T
   5   -200.7168505 -0.202202E-06  0.288E-04    1.11      32.6  T
   6   -200.7168505 -0.248171E-07  0.421E-05    1.11     222.5  T
   7   -200.7168505 -0.432976E-09  0.161E-05    1.11     583.3  T
     SCC iter.                  ...        0 min,  0.351 sec
     gradient                   ...        0 min,  0.407 sec
 * total energy  :  -197.5134638 Eh     change       -0.4269408E-03 Eh
   gradient norm :     0.0049945 Eh/α   predicted    -0.3481275E-03 ( -18.46%)
   displ. norm   :     0.3804247 α      lambda       -0.4722982E-03
   maximum displ.:     0.2563523 α      in ANC's #8, #10, #21, ...

........................................................................
.............................. CYCLE   14 ..............................
........................................................................
   1   -200.7142482 -0.200714E+03  0.442E-03    1.11       0.0  T
   2   -200.7142497 -0.145813E-05  0.205E-03    1.11       4.6  T
   3   -200.7142502 -0.566809E-06  0.107E-03    1.11       8.7  T
   4   -200.7142505 -0.267108E-06  0.795E-04    1.11      11.8  T
   5   -200.7142507 -0.148947E-06  0.231E-04    1.11      40.6  T
   6   -200.7142507 -0.694288E-08  0.339E-05    1.11     275.9  T
   7   -200.7142507 -0.214669E-09  0.158E-05    1.11     591.6  T
     SCC iter.                  ...        0 min,  0.350 sec
     gradient                   ...        0 min,  0.408 sec
 * total energy  :  -197.5138204 Eh     change       -0.3566232E-03 Eh
   gradient norm :     0.0055142 Eh/α   predicted    -0.2703308E-03 ( -24.20%)
   displ. norm   :     0.3590065 α      lambda       -0.4025605E-03
   maximum displ.:     0.2435251 α      in ANC's #8, #10, #12, ...

........................................................................
.............................. CYCLE   15 ..............................
........................................................................
   1   -200.7124361 -0.200712E+03  0.296E-03    1.11       0.0  T
   2   -200.7124366 -0.462023E-06  0.135E-03    1.11       7.0  T
   3   -200.7124368 -0.226640E-06  0.859E-04    1.11      10.9  T
   4   -200.7124370 -0.222291E-06  0.459E-04    1.11      20.4  T
   5   -200.7124370 -0.370426E-07  0.163E-04    1.11      57.5  T
   6   -200.7124370 -0.444561E-08  0.237E-05    1.11     394.7  T
     SCC iter.                  ...        0 min,  0.301 sec
     gradient                   ...        0 min,  0.404 sec
 * total energy  :  -197.5141488 Eh     change       -0.3283377E-03 Eh
   gradient norm :     0.0063426 Eh/α   predicted    -0.2272234E-03 ( -30.80%)
   displ. norm   :     0.3882831 α      lambda       -0.3942910E-03
   maximum displ.:     0.2603050 α      in ANC's #8, #10, #12, ...

........................................................................
.............................. CYCLE   16 ..............................
........................................................................
   1   -200.7123227 -0.200712E+03  0.212E-03    1.12       0.0  T
   2   -200.7123228 -0.113184E-06  0.112E-03    1.12       8.3  T
   3   -200.7123230 -0.183717E-06  0.833E-04    1.12      11.2  T
   4   -200.7123233 -0.234250E-06  0.331E-04    1.12      28.3  T
   5   -200.7123233 -0.819890E-08  0.701E-05    1.12     133.6  T
   6   -200.7123233 -0.662823E-09  0.148E-05    1.12     634.8  T
     SCC iter.                  ...        0 min,  0.301 sec
     gradient                   ...        0 min,  0.406 sec
 * total energy  :  -197.5144727 Eh     change       -0.3239118E-03 Eh
   gradient norm :     0.0061219 Eh/α   predicted    -0.2268728E-03 ( -29.96%)
   displ. norm   :     0.4124210 α      lambda       -0.3649002E-03
   maximum displ.:     0.2778698 α      in ANC's #8, #10, #12, ...

........................................................................
.............................. CYCLE   17 ..............................
........................................................................
   1   -200.7133673 -0.200713E+03  0.252E-03    1.11       0.0  T
   2   -200.7133677 -0.350611E-06  0.141E-03    1.12       6.6  T
   3   -200.7133680 -0.335088E-06  0.802E-04    1.12      11.7  T
   4   -200.7133682 -0.198493E-06  0.496E-04    1.12      18.9  T
   5   -200.7133682 -0.471240E-07  0.123E-04    1.12      76.0  T
   6   -200.7133682 -0.182183E-08  0.242E-05    1.12     387.5  T
     SCC iter.                  ...        0 min,  0.299 sec
     gradient                   ...        0 min,  0.401 sec
 * total energy  :  -197.5147750 Eh     change       -0.3023609E-03 Eh
   gradient norm :     0.0051903 Eh/α   predicted    -0.2134855E-03 ( -29.39%)
   displ. norm   :     0.4447603 α      lambda       -0.3447298E-03
   maximum displ.:     0.3001517 α      in ANC's #8, #10, #12, ...

........................................................................
.............................. CYCLE   18 ..............................
........................................................................
   1   -200.7155504 -0.200716E+03  0.291E-03    1.11       0.0  T
   2   -200.7155510 -0.580993E-06  0.148E-03    1.11       6.3  T
   3   -200.7155513 -0.289934E-06  0.763E-04    1.11      12.3  T
   4   -200.7155514 -0.125991E-06  0.603E-04    1.11      15.5  T
   5   -200.7155515 -0.864178E-07  0.152E-04    1.11      61.7  T
   6   -200.7155515 -0.346196E-08  0.248E-05    1.11     377.5  T
     SCC iter.                  ...        0 min,  0.300 sec
     gradient                   ...        0 min,  0.400 sec
 * total energy  :  -197.5150631 Eh     change       -0.2880556E-03 Eh
   gradient norm :     0.0046122 Eh/α   predicted    -0.2064620E-03 ( -28.33%)
   displ. norm   :     0.4789354 α      lambda       -0.3304674E-03
   maximum displ.:     0.3238144 α      in ANC's #8, #10, #12, ...

........................................................................
.............................. CYCLE   19 ..............................
........................................................................
   1   -200.7173594 -0.200717E+03  0.303E-03    1.11       0.0  T
   2   -200.7173601 -0.785539E-06  0.119E-03    1.11       7.8  T
   3   -200.7173603 -0.140327E-06  0.566E-04    1.11      16.6  T
   4   -200.7173603  0.217807E-08  0.447E-04    1.11      21.0  T
   5   -200.7173603 -0.291972E-07  0.192E-04    1.11      48.9  T
   6   -200.7173603 -0.162795E-07  0.246E-05    1.11     380.3  T
     SCC iter.                  ...        0 min,  0.305 sec
     gradient                   ...        0 min,  0.401 sec
 * total energy  :  -197.5153375 Eh     change       -0.2743878E-03 Eh
   gradient norm :     0.0043349 Eh/α   predicted    -0.2031375E-03 ( -25.97%)
   displ. norm   :     0.5093328 α      lambda       -0.3052863E-03
   maximum displ.:     0.3435000 α      in ANC's #8, #10, #12, ...

........................................................................
.............................. CYCLE   20 ..............................
........................................................................
   1   -200.7184378 -0.200718E+03  0.288E-03    1.11       0.0  T
   2   -200.7184385 -0.699231E-06  0.111E-03    1.11       8.4  T
   3   -200.7184387 -0.120717E-06  0.661E-04    1.11      14.2  T
   4   -200.7184387 -0.698006E-07  0.395E-04    1.11      23.7  T
   5   -200.7184388 -0.277278E-07  0.170E-04    1.11      55.2  T
   6   -200.7184388 -0.809496E-08  0.203E-05    1.11     461.1  T
     SCC iter.                  ...        0 min,  0.298 sec
     gradient                   ...        0 min,  0.400 sec
 * total energy  :  -197.5155849 Eh     change       -0.2474634E-03 Eh
   gradient norm :     0.0041983 Eh/α   predicted    -0.1922455E-03 ( -22.31%)
   displ. norm   :     0.5187054 α      lambda       -0.2602190E-03
   maximum displ.:     0.3465273 α      in ANC's #8, #10, #12, ...
 * RMSD in coord.:     0.6375574 α      energy gain  -0.4482197E+00 Eh

generating ANC from model Hessian ...
Using Lindh-Hessian (1995)
 Shifting diagonal of input Hessian by    1.0025194875578460E-002
 Lowest  eigenvalues of input Hessian
    0.010000    0.010005    0.010018    0.000000    0.000000    0.000000
    0.000000    0.000000    0.000000    0.010030    0.010042    0.010213
    0.010232    0.010486    0.010681    0.010702    0.010734    0.010740
 Highest eigenvalues
    2.105515    2.127619    2.127622    2.218866    2.656136    2.991399


........................................................................
.............................. CYCLE   21 ..............................
........................................................................
   1   -200.7181148 -0.200718E+03  0.261E-03    1.11       0.0  T
   2   -200.7181152 -0.378704E-06  0.142E-03    1.11       6.6  T
   3   -200.7181156 -0.387973E-06  0.779E-04    1.11      12.0  T
   4   -200.7181158 -0.234315E-06  0.407E-04    1.11      23.0  T
   5   -200.7181158 -0.255050E-07  0.125E-04    1.11      74.9  T
   6   -200.7181158 -0.172201E-08  0.244E-05    1.11     384.5  T
     SCC iter.                  ...        0 min,  0.299 sec
     gradient                   ...        0 min,  0.404 sec
 * total energy  :  -197.5157904 Eh     change       -0.2054600E-03 Eh
   gradient norm :     0.0040675 Eh/α   predicted     0.0000000E+00 (-100.00%)
   displ. norm   :     0.0636075 α      lambda       -0.8185580E-04
   maximum displ.:     0.0339080 α      in ANC's #21, #24, #20, ...

........................................................................
.............................. CYCLE   22 ..............................
........................................................................
   1   -200.7193784 -0.200719E+03  0.151E-03    1.11       0.0  T
   2   -200.7193785 -0.112092E-06  0.918E-04    1.11      10.2  T
   3   -200.7193786 -0.571044E-07  0.496E-04    1.11      18.9  T
   4   -200.7193786 -0.799892E-08  0.420E-04    1.11      22.3  T
   5   -200.7193786 -0.463820E-07  0.915E-05    1.11     102.4  T
   6   -200.7193786 -0.245791E-08  0.123E-05    1.11     758.7  T
     SCC iter.                  ...        0 min,  0.305 sec
     gradient                   ...        0 min,  0.403 sec
 * total energy  :  -197.5158590 Eh     change       -0.6859118E-04 Eh
   gradient norm :     0.0023016 Eh/α   predicted    -0.4170873E-04 ( -39.19%)
   displ. norm   :     0.2512917 α      lambda       -0.2282234E-03
   maximum displ.:     0.1389546 α      in ANC's #21, #24, #20, ...

........................................................................
.............................. CYCLE   23 ..............................
........................................................................
   1   -200.7207795 -0.200721E+03  0.453E-03    1.11       0.0  T
   2   -200.7207809 -0.135136E-05  0.252E-03    1.11       3.7  T
   3   -200.7207815 -0.602226E-06  0.128E-03    1.11       7.3  T
   4   -200.7207816 -0.922220E-07  0.113E-03    1.11       8.3  T
   5   -200.7207819 -0.313552E-06  0.278E-04    1.11      33.7  T
   6   -200.7207819 -0.200289E-07  0.383E-05    1.11     244.4  T
   7   -200.7207819 -0.224134E-09  0.175E-05    1.11     534.1  T
     SCC iter.                  ...        0 min,  0.340 sec
     gradient                   ...        0 min,  0.397 sec
 * total energy  :  -197.5159369 Eh     change       -0.7792723E-04 Eh
   gradient norm :     0.0049853 Eh/α   predicted    -0.1213180E-03 (  55.68%)
   displ. norm   :     0.2300873 α      lambda       -0.2540553E-03
   maximum displ.:     0.1221057 α      in ANC's #21, #20, #24, ...

........................................................................
.............................. CYCLE   24 ..............................
........................................................................
   1   -200.7193527 -0.200719E+03  0.290E-03    1.12       0.0  T
   2   -200.7193535 -0.712947E-06  0.136E-03    1.12       6.9  T
   3   -200.7193537 -0.236862E-06  0.621E-04    1.12      15.1  T
   4   -200.7193538 -0.580494E-07  0.534E-04    1.12      17.5  T
   5   -200.7193538 -0.625586E-07  0.167E-04    1.12      56.2  T
   6   -200.7193538 -0.562946E-08  0.263E-05    1.12     356.2  T
     SCC iter.                  ...        0 min,  0.291 sec
     gradient                   ...        0 min,  0.397 sec
 * total energy  :  -197.5159967 Eh     change       -0.5972862E-04 Eh
   gradient norm :     0.0064411 Eh/α   predicted    -0.1337575E-03 ( 123.94%)
   displ. norm   :     0.0407927 α      lambda       -0.1179808E-03
   maximum displ.:     0.0185988 α      in ANC's #14, #24, #68, ...

........................................................................
.............................. CYCLE   25 ..............................
........................................................................
   1   -200.7185198 -0.200719E+03  0.187E-03    1.12       0.0  T
   2   -200.7185200 -0.177301E-06  0.116E-03    1.12       8.1  T
   3   -200.7185201 -0.986482E-07  0.616E-04    1.12      15.2  T
   4   -200.7185201 -0.109827E-07  0.542E-04    1.12      17.3  T
   5   -200.7185202 -0.787389E-07  0.100E-04    1.12      93.3  T
   6   -200.7185202 -0.244685E-08  0.160E-05    1.12     584.4  T
     SCC iter.                  ...        0 min,  0.290 sec
     gradient                   ...        0 min,  0.397 sec
 * total energy  :  -197.5160794 Eh     change       -0.8272260E-04 Eh
   gradient norm :     0.0034585 Eh/α   predicted    -0.5909419E-04 ( -28.56%)
   displ. norm   :     0.1291539 α      lambda       -0.9370260E-04
   maximum displ.:     0.0667036 α      in ANC's #21, #13, #9, ...

........................................................................
.............................. CYCLE   26 ..............................
........................................................................
   1   -200.7170678 -0.200717E+03  0.181E-03    1.11       0.0  T
   2   -200.7170680 -0.173948E-06  0.106E-03    1.11       8.8  T
   3   -200.7170680 -0.321313E-07  0.599E-04    1.11      15.6  T
   4   -200.7170680  0.413840E-08  0.528E-04    1.11      17.7  T
   5   -200.7170681 -0.839017E-07  0.789E-05    1.11     118.8  T
   6   -200.7170681 -0.119309E-08  0.170E-05    1.11     549.8  T
     SCC iter.                  ...        0 min,  0.288 sec
     gradient                   ...        0 min,  0.395 sec
 * total energy  :  -197.5161461 Eh     change       -0.6669831E-04 Eh
   gradient norm :     0.0018386 Eh/α   predicted    -0.4763319E-04 ( -28.58%)
   displ. norm   :     0.3512426 α      lambda       -0.9099174E-04
   maximum displ.:     0.1822939 α      in ANC's #21, #13, #9, ...

........................................................................
.............................. CYCLE   27 ..............................
........................................................................
   1   -200.7139943 -0.200714E+03  0.280E-03    1.11       0.0  T
   2   -200.7139948 -0.478030E-06  0.143E-03    1.11       6.5  T
   3   -200.7139948 -0.103932E-07  0.813E-04    1.11      11.5  T
   4   -200.7139947  0.109771E-06  0.729E-04    1.11      12.8  T
   5   -200.7139949 -0.195343E-06  0.104E-04    1.11      89.9  T
   6   -200.7139949 -0.234067E-08  0.307E-05    1.11     305.3  T
     SCC iter.                  ...        0 min,  0.288 sec
     gradient                   ...        0 min,  0.394 sec
 * total energy  :  -197.5162131 Eh     change       -0.6707039E-04 Eh
   gradient norm :     0.0046501 Eh/α   predicted    -0.4799512E-04 ( -28.44%)
   displ. norm   :     0.1661623 α      lambda       -0.7599151E-04
   maximum displ.:     0.0836410 α      in ANC's #21, #13, #9, ...

........................................................................
.............................. CYCLE   28 ..............................
........................................................................
   1   -200.7142029 -0.200714E+03  0.726E-04    1.11       0.0  T
   2   -200.7142029 -0.160918E-07  0.504E-04    1.11      18.6  T
   3   -200.7142030 -0.423003E-07  0.225E-04    1.11      41.7  T
   4   -200.7142030 -0.498866E-08  0.182E-04    1.11      51.4  T
   5   -200.7142030 -0.809149E-08  0.445E-05    1.11     210.6  T
     SCC iter.                  ...        0 min,  0.241 sec
     gradient                   ...        0 min,  0.394 sec
 * total energy  :  -197.5162690 Eh     change       -0.5587723E-04 Eh
   gradient norm :     0.0041335 Eh/α   predicted    -0.3904771E-04 ( -30.12%)
   displ. norm   :     0.2231648 α      lambda       -0.1006688E-03
   maximum displ.:     0.1065862 α      in ANC's #21, #13, #9, ...

........................................................................
.............................. CYCLE   29 ..............................
........................................................................
   1   -200.7162819 -0.200716E+03  0.168E-03    1.11       0.0  T
   2   -200.7162818  0.358311E-07  0.135E-03    1.11       6.9  T
   3   -200.7162821 -0.310426E-06  0.668E-04    1.11      14.0  T
   4   -200.7162822 -0.254381E-07  0.413E-04    1.11      22.7  T
   5   -200.7162822 -0.456724E-07  0.907E-05    1.11     103.3  T
   6   -200.7162822 -0.220166E-08  0.152E-05    1.11     617.7  T
     SCC iter.                  ...        0 min,  0.288 sec
     gradient                   ...        0 min,  0.394 sec
 * total energy  :  -197.5163429 Eh     change       -0.7386274E-04 Eh
   gradient norm :     0.0019226 Eh/α   predicted    -0.5284382E-04 ( -28.46%)
   displ. norm   :     0.4244312 α      lambda       -0.7418132E-04
   maximum displ.:     0.2023627 α      in ANC's #13, #21, #11, ...

........................................................................
.............................. CYCLE   30 ..............................
........................................................................
   1   -200.7167016 -0.200717E+03  0.212E-03    1.11       0.0  T
   2   -200.7167014  0.164917E-06  0.177E-03    1.11       5.3  T
   3   -200.7167023 -0.901720E-06  0.638E-04    1.11      14.7  T
   4   -200.7167024 -0.528842E-07  0.476E-04    1.11      19.7  T
   5   -200.7167024 -0.444037E-07  0.772E-05    1.11     121.3  T
   6   -200.7167024 -0.134514E-08  0.270E-05    1.11     347.0  T
     SCC iter.                  ...        0 min,  0.289 sec
     gradient                   ...        0 min,  0.394 sec
 * total energy  :  -197.5164154 Eh     change       -0.7247443E-04 Eh
   gradient norm :     0.0019368 Eh/α   predicted    -0.4006146E-04 ( -44.72%)
   displ. norm   :     0.2358547 α      lambda       -0.3786692E-04
   maximum displ.:     0.1268684 α      in ANC's #13, #11, #9, ...

........................................................................
.............................. CYCLE   31 ..............................
........................................................................
   1   -200.7178861 -0.200718E+03  0.129E-03    1.11       0.0  T
   2   -200.7178862 -0.784075E-08  0.824E-04    1.11      11.4  T
   3   -200.7178864 -0.203360E-06  0.418E-04    1.11      22.4  T
   4   -200.7178864 -0.576396E-07  0.189E-04    1.11      49.6  T
   5   -200.7178864 -0.292181E-08  0.668E-05    1.11     140.1  T
     SCC iter.                  ...        0 min,  0.241 sec
     gradient                   ...        0 min,  0.394 sec
 * total energy  :  -197.5164575 Eh     change       -0.4209404E-04 Eh
   gradient norm :     0.0016769 Eh/α   predicted    -0.1940612E-04 ( -53.90%)
   displ. norm   :     0.2056439 α      lambda       -0.3042831E-04
   maximum displ.:     0.1202445 α      in ANC's #13, #11, #17, ...

........................................................................
.............................. CYCLE   32 ..............................
........................................................................
   1   -200.7179683 -0.200718E+03  0.102E-03    1.11       0.0  T
   2   -200.7179683 -0.310787E-07  0.658E-04    1.11      14.2  T
   3   -200.7179684 -0.125210E-06  0.347E-04    1.11      27.0  T
   4   -200.7179685 -0.276756E-07  0.167E-04    1.11      56.0  T
   5   -200.7179685 -0.251620E-08  0.744E-05    1.11     126.0  T
     SCC iter.                  ...        0 min,  0.241 sec
     gradient                   ...        0 min,  0.394 sec
 * total energy  :  -197.5164911 Eh     change       -0.3366302E-04 Eh
   gradient norm :     0.0011243 Eh/α   predicted    -0.1550118E-04 ( -53.95%)
   displ. norm   :     0.1676065 α      lambda       -0.2558102E-04
   maximum displ.:     0.0988422 α      in ANC's #13, #11, #17, ...

........................................................................
.............................. CYCLE   33 ..............................
........................................................................
   1   -200.7192803 -0.200719E+03  0.102E-03    1.11       0.0  T
   2   -200.7192804 -0.542074E-07  0.511E-04    1.11      18.3  T
   3   -200.7192804 -0.326376E-07  0.334E-04    1.11      28.0  T
   4   -200.7192804 -0.181058E-07  0.184E-04    1.11      50.9  T
   5   -200.7192804 -0.446553E-08  0.664E-05    1.11     141.0  T
     SCC iter.                  ...        0 min,  0.242 sec
     gradient                   ...        0 min,  0.394 sec
 * total energy  :  -197.5165176 Eh     change       -0.2648338E-04 Eh
   gradient norm :     0.0013631 Eh/α   predicted    -0.1295372E-04 ( -51.09%)
   displ. norm   :     0.1498165 α      lambda       -0.1908040E-04
   maximum displ.:     0.0956161 α      in ANC's #13, #11, #17, ...

........................................................................
.............................. CYCLE   34 ..............................
........................................................................
   1   -200.7183094 -0.200718E+03  0.114E-03    1.11       0.0  T
   2   -200.7183095 -0.818041E-07  0.539E-04    1.11      17.4  T
   3   -200.7183095 -0.133065E-07  0.329E-04    1.11      28.5  T
   4   -200.7183095  0.186947E-08  0.199E-04    1.11      47.1  T
   5   -200.7183095 -0.759917E-08  0.791E-05    1.11     118.4  T
     SCC iter.                  ...        0 min,  0.242 sec
     gradient                   ...        0 min,  0.393 sec
 * total energy  :  -197.5165379 Eh     change       -0.2032604E-04 Eh
   gradient norm :     0.0013152 Eh/α   predicted    -0.9638016E-05 ( -52.58%)
   displ. norm   :     0.1261698 α      lambda       -0.1585503E-04
   maximum displ.:     0.0780702 α      in ANC's #13, #11, #21, ...

........................................................................
.............................. CYCLE   35 ..............................
........................................................................
   1   -200.7188758 -0.200719E+03  0.831E-04    1.11       0.0  T
   2   -200.7188758 -0.417916E-07  0.427E-04    1.11      21.9  T
   3   -200.7188759 -0.290819E-07  0.244E-04    1.11      38.5  T
   4   -200.7188759 -0.157384E-07  0.138E-04    1.11      68.0  T
   5   -200.7188759 -0.296842E-08  0.487E-05    1.11     192.3  T
     SCC iter.                  ...        0 min,  0.241 sec
     gradient                   ...        0 min,  0.393 sec
 * total energy  :  -197.5165547 Eh     change       -0.1675959E-04 Eh
   gradient norm :     0.0010001 Eh/α   predicted    -0.7984595E-05 ( -52.36%)
   displ. norm   :     0.1242130 α      lambda       -0.1273106E-04
   maximum displ.:     0.0800595 α      in ANC's #13, #11, #5, ...

........................................................................
.............................. CYCLE   36 ..............................
........................................................................
   1   -200.7184822 -0.200718E+03  0.722E-04    1.11       0.0  T
   2   -200.7184822 -0.151339E-07  0.418E-04    1.11      22.4  T
   3   -200.7184823 -0.471022E-07  0.241E-04    1.11      38.9  T
   4   -200.7184823 -0.197556E-07  0.984E-05    1.11      95.2  T
   5   -200.7184823 -0.467850E-09  0.437E-05    1.11     214.1  T
     SCC iter.                  ...        0 min,  0.241 sec
     gradient                   ...        0 min,  0.392 sec
 * total energy  :  -197.5165681 Eh     change       -0.1345269E-04 Eh
   gradient norm :     0.0007681 Eh/α   predicted    -0.6411704E-05 ( -52.34%)
   displ. norm   :     0.0944166 α      lambda       -0.7894913E-05
   maximum displ.:     0.0616859 α      in ANC's #13, #11, #5, ...

........................................................................
.............................. CYCLE   37 ..............................
........................................................................
   1   -200.7180036 -0.200718E+03  0.570E-04    1.11       0.0  T
   2   -200.7180036 -0.183285E-07  0.266E-04    1.11      35.2  T
   3   -200.7180036 -0.987799E-08  0.173E-04    1.11      54.2  T
   4   -200.7180036 -0.784948E-08  0.851E-05    1.11     110.0  T
     SCC iter.                  ...        0 min,  0.195 sec
     gradient                   ...        0 min,  0.393 sec
 * total energy  :  -197.5165766 Eh     change       -0.8446108E-05 Eh
   gradient norm :     0.0007523 Eh/α   predicted    -0.3966292E-05 ( -53.04%)
   displ. norm   :     0.0818863 α      lambda       -0.6116484E-05
   maximum displ.:     0.0537652 α      in ANC's #13, #5, #24, ...

........................................................................
.............................. CYCLE   38 ..............................
........................................................................
   1   -200.7180073 -0.200718E+03  0.664E-04    1.11       0.0  T
   2   -200.7180073 -0.268825E-07  0.284E-04    1.11      32.9  T
   3   -200.7180073 -0.523050E-08  0.164E-04    1.11      57.0  T
   4   -200.7180073 -0.796916E-09  0.107E-04    1.11      87.6  T
     SCC iter.                  ...        0 min,  0.194 sec
     gradient                   ...        0 min,  0.391 sec
 * total energy  :  -197.5165822 Eh     change       -0.5613273E-05 Eh
   gradient norm :     0.0007019 Eh/α   predicted    -0.3070474E-05 ( -45.30%)
   displ. norm   :     0.0567365 α      lambda       -0.3360720E-05
   maximum displ.:     0.0365399 α      in ANC's #13, #5, #6, ...

........................................................................
.............................. CYCLE   39 ..............................
........................................................................
   1   -200.7174090 -0.200717E+03  0.493E-04    1.11       0.0  T
   2   -200.7174090 -0.630683E-08  0.267E-04    1.11      35.0  T
   3   -200.7174090 -0.111330E-07  0.167E-04    1.11      55.9  T
   4   -200.7174090 -0.862920E-08  0.816E-05    1.11     114.8  T
     SCC iter.                  ...        0 min,  0.194 sec
     gradient                   ...        0 min,  0.391 sec
 * total energy  :  -197.5165853 Eh     change       -0.3109504E-05 Eh
   gradient norm :     0.0005121 Eh/α   predicted    -0.1683836E-05 ( -45.85%)
   displ. norm   :     0.0334717 α      lambda       -0.1932709E-05
   maximum displ.:     0.0217359 α      in ANC's #13, #5, #6, ...

   *** GEOMETRY OPTIMIZATION CONVERGED AFTER 39 ITERATIONS ***

------------------------------------------------------------------------
 total energy gain   :        -0.4492200 Eh     -281.8898 kcal/mol
 total RMSD          :         0.8034156 a0        0.4251 Å
 total power (kW/mol):       -30.2417196 (step)  -33.6024 (real)
------------------------------------------------------------------------

 ANCopt (total)                0 d,  0 h,  0 min, 35.099 sec
 optimizer setup                ...        0 min,  0.000 sec (  0.001%)
 model hessian                  ...        0 min,  0.117 sec (  0.333%)
 ANC generation                 ...        0 min,  0.053 sec (  0.151%)
 coordinate transformation      ...        0 min,  0.006 sec (  0.016%)
 single point calculation       ...        0 min, 34.867 sec ( 99.338%)
 optimization log               ...        0 min,  0.028 sec (  0.079%)
 hessian update                 ...        0 min,  0.006 sec (  0.016%)
 rational function              ...        0 min,  0.018 sec (  0.052%)

================
 final structure:
================
114
 xtb: 6.5.1 (b24c23e)
Zn          11.07005529316459       -0.03400176501204       -0.00508744971020
C            7.65978050695853       -0.06160087260901       -0.00766908991551
C            8.28775928848274       -1.29560545100154        0.11030276302822
C            7.61212810493222       -2.55382615368907        0.26336493921548
C            8.56977838429893       -3.50869778590746        0.36721931213466
C            9.84347061853607       -2.84572618154604        0.26906099862321
N            9.63691907363972       -1.50567647981189        0.11984491733487
C           11.09437392262539       -3.46972120799689        0.34970580577524
C           11.10605400312153       -4.94371850680667        0.51234427163817
C           11.65852474104408       -5.54220268663466        1.64445728319213
C           11.64444660273571       -6.92347921170789        1.75490029015777
N           11.12932051864448       -7.71966274345140        0.82326847316585
C           10.60277211181993       -7.15783664343073       -0.26007858034543
C           10.56525900601410       -5.78655759773500       -0.45801961077663
C           12.33478355024376       -2.82471861132824        0.29394775854299
C           13.61311605613639       -3.48019194055583        0.32765871803917
C           14.56100275108913       -2.51366021022239        0.22930322571194
N           12.53064721766683       -1.47567840151723        0.16412764796434
C           13.87295571156513       -1.26018639896325        0.12743592768403
C           14.50661589978456       -0.00790680797524       -0.00415003465301
C           13.85440994056282        1.23515788803356       -0.13241400580551
C           14.52318083828290        2.49256985801400       -0.29426693503463
C           13.56060710412067        3.44477853760940       -0.39161143756974
C           12.29253254306568        2.77800780286307       -0.28116766722320
N           12.50904182093479        1.43394319766300       -0.13317800990305
C           11.04178182222227        3.40214848825007       -0.34532949475472
C           11.02765772435263        4.87773456734389       -0.49113158996237
C           10.45467094422285        5.49018285248999       -1.60551563653849
C           10.46552307546458        6.87286300633386       -1.69831714413094
N           10.99701927510359        7.65756851728176       -0.76623899470254
C           11.54369782262659        7.08241697517450        0.30021243609410
C           11.58475954164701        5.70888371133448        0.48032207012408
C            9.80094453749609        2.75586231884591       -0.28421696619417
C            8.51739441530736        3.40668419939446       -0.30187114376611
C            7.57457831407793        2.43585476296892       -0.21045719302979
C            8.26928259315074        1.18167679971075       -0.12615626398170
N            9.61501166132260        1.40943620420704       -0.16810709506770
H            6.57422779621627       -0.06829356277156        0.00536926741102
H            6.54090910774302       -2.67768733767192        0.29376389765107
H            8.43063335246680       -4.56836241855325        0.50986396938829
H           12.07950351095574       -4.93254223817734        2.43520442461416
H           12.06517587334908       -7.41141910530845        2.62940865692602
H           10.19196696971078       -7.83407567675625       -1.00439627805010
H           10.13604490951316       -5.37450483864774       -1.36362552401047
H           13.76430292586694       -4.54495277794607        0.40264155861168
H           15.63282944250047       -2.63184869633240        0.21946698374028
H           15.59300053437029        2.62220402076626       -0.33403956494996
H           13.69592893868829        4.50418605142600       -0.53846167098120
H           10.02078080251197        4.89049202568149       -2.39687452512898
H           10.02865994666141        7.37154296422226       -2.55871235553826
H           11.96773176091129        7.74939069476930        1.04527039303559
H           12.02978655693879        5.28555233159761        1.37298737233700
H            8.36192077895579        4.47192100170184       -0.36286212196537
H            6.50179817819825        2.54807358701527       -0.19279777774063
Zn          27.11996640386290        0.03028503478300       -0.01447718957252
C           30.53020345965180        0.05599725318664       -0.02481800166084
C           29.90226309114001        1.27138702748930       -0.26889572174376
C           30.57788920077940        2.52012057327831       -0.48618062161248
C           29.62023900289967        3.46394467964568       -0.66444548513853
C           28.34660082912166        2.80071201891333       -0.56761349822676
N           28.55312969664428        1.47498687485673       -0.32171074241324
C           27.09572595292563        3.42091323386267       -0.67353766157494
C           27.08404502617001        4.87850157238043       -0.94671456591640
C           26.53096547706540        5.78046985667293       -0.03806340616970
C           26.54504749343369        7.13410533661502       -0.33442358078084
N           27.06057625991007        7.62470828691498       -1.45728441268882
C           27.58765558473785        6.77196384419282       -2.33000160602621
C           27.62537750248833        5.40246820595546       -2.12014150685625
C           25.85531109527242        2.78726186068116       -0.54114518806581
C           24.57707631058822        3.42379832952987       -0.70171644666808
C           23.62915496896261        2.47043094807315       -0.51484369192165
N           25.65941394761715        1.45892646646985       -0.27223626458499
C           24.31714359419893        1.24186757593065       -0.24609481679489
C           23.68344599017848        0.00577063101742       -0.00619172354958
C           24.33560412531800       -1.22060908510539        0.23400517825927
C           23.66671102944961       -2.47029974569873        0.44702467272941
C           24.62923437853151       -3.40982195367418        0.63028311459083
C           25.89741886706707       -2.74021420145816        0.54018812489885
N           25.68098576578555       -1.41130827567232        0.29027155846723
C           27.14817112400265       -3.35648761429685        0.65853612334521
C           27.16232690044085       -4.81065665571971        0.94816461877170
C           27.73595400537965       -5.72069168797020        0.06037055599323
C           27.72550500036059       -7.07056250447200        0.37383259951990
N           27.19343261373568       -7.55040813145330        1.49352875380531
C           26.64594317594286       -6.69006540608309        2.34622812249550
C           26.60480198735319       -5.32352162844012        2.11911147854481
C           28.38904853940762       -2.72068654269627        0.52740253826264
C           29.67271084574553       -3.34890353237241        0.69765480415378
C           30.61547804373173       -2.39338022754492        0.50294907610145
C           29.92068924507905       -1.16841475921706        0.22122342231370
N           28.57494279372341       -1.39842780562098        0.24812589765567
H           31.61575492673620        0.06616738620158       -0.01419732230926
H           31.64908838288518        2.64768294508457       -0.49182236512042
H           29.75928362736910        4.51951722215563       -0.83484748983266
H           26.10942793195781        5.42729611572183        0.89564780527270
H           26.12392256517592        7.85542870745102        0.36004006924588
H           27.99873762175659        7.20232896032531       -3.23881700006348
H           28.05520474018295        4.74467936338416       -2.86629520921920
H           24.42601335042095        4.46410460325803       -0.94081237834644
H           22.55737343102864        2.58038986275525       -0.56022004239094
H           22.59685461930161       -2.60555789309145        0.44797059543378
H           24.49369500299486       -4.46596344573986        0.79872960129158
H           28.17005501832847       -5.37708536705008       -0.87111217955741
H           28.16314592558739       -7.79778400707934       -0.30402705040939
H           26.22136368030800       -7.11160371884009        3.25278758822616
H           26.15943277343915       -4.65901611717501        2.85001886877865
H           29.82843486661014       -4.38612852887324        0.94768432620073
H           31.68829325380446       -2.49587894429851        0.55112582094161
C           19.70928331011685       -0.00398064134269       -0.02179627451051
C           18.48085612525296       -0.00070386150911       -0.02346904595333
C           17.13625027467132       -0.00028511393980       -0.02179185040719
C           15.91216365615877       -0.00045134309941       -0.01534919434409
C           21.05387282596863       -0.00380980937219       -0.01852081215760
C           22.27789803930179       -0.00427528249389       -0.01406616940901

 Bond Distances (Angstroems)
 ---------------------------
Zn1-N7=2.0580        Zn1-N18=2.0592       Zn1-N25=2.0596       Zn1-N37=2.0560       C2-C3=1.3896         C2-C36=1.3897        
C2-H38=1.0857        C3-C2=1.3896         C3-C4=1.4363         C3-N7=1.3654         C4-C3=1.4363         C4-C5=1.3563         
C4-H39=1.0788        C5-C4=1.3563         C5-C6=1.4393         C5-H40=1.0782        C6-C5=1.4393         C6-N7=1.3641         
C6-C8=1.4002         N7-Zn1=2.0580        N7-C3=1.3654         N7-C6=1.3641         C8-C6=1.4002         C8-C9=1.4830         
C8-C15=1.3992        C9-C8=1.4830         C9-C10=1.3947        C9-C14=1.3944        C10-C9=1.3947        C10-C11=1.3858       
C10-H41=1.0836       C11-C10=1.3858       C11-N12=1.3294       C11-H42=1.0862       N12-C11=1.3294       N12-C13=1.3291       
C13-N12=1.3291       C13-C14=1.3860       C13-H43=1.0863       C14-C9=1.3944        C14-C13=1.3860       C14-H44=1.0836       
C15-C8=1.3992        C15-C16=1.4370       C15-N18=1.3694       C16-C15=1.4370       C16-C17=1.3573       C16-H45=1.0781       
C17-C16=1.3573       C17-C19=1.4335       C17-H46=1.0784       N18-Zn1=2.0592       N18-C15=1.3694       N18-C19=1.3600       
C19-C17=1.4335       C19-N18=1.3600       C19-C20=1.4096       C20-C19=1.4096       C20-C21=1.4096       C20-C112=1.4056      
C21-C20=1.4096       C21-C22=1.4334       C21-N25=1.3600       C22-C21=1.4334       C22-C23=1.3575       C22-H47=1.0784       
C23-C22=1.3575       C23-C24=1.4369       C23-H48=1.0781       C24-C23=1.4369       C24-N25=1.3694       C24-C26=1.3993       
N25-Zn1=2.0596       N25-C21=1.3600       N25-C24=1.3694       C26-C24=1.3993       C26-C27=1.4828       C26-C33=1.4004       
C27-C26=1.4828       C27-C28=1.3947       C27-C32=1.3946       C28-C27=1.3947       C28-C29=1.3858       C28-H49=1.0836       
C29-C28=1.3858       C29-N30=1.3293       C29-H50=1.0862       N30-C29=1.3293       N30-C31=1.3293       C31-N30=1.3293       
C31-C32=1.3859       C31-H51=1.0862       C32-C27=1.3946       C32-C31=1.3859       C32-H52=1.0836       C33-C26=1.4004       
C33-C34=1.4392       C33-N37=1.3642       C34-C33=1.4392       C34-C35=1.3564       C34-H53=1.0782       C35-C34=1.3564       
C35-C36=1.4362       C35-H54=1.0788       C36-C2=1.3897        C36-C35=1.4362       C36-N37=1.3655       N37-Zn1=2.0560       
N37-C33=1.3642       N37-C36=1.3655       H38-C2=1.0857        H39-C4=1.0788        H40-C5=1.0782        H41-C10=1.0836       
H42-C11=1.0862       H43-C13=1.0863       H44-C14=1.0836       H45-C16=1.0781       H46-C17=1.0784       H47-C22=1.0784       
H48-C23=1.0781       H49-C28=1.0836       H50-C29=1.0862       H51-C31=1.0862       H52-C32=1.0836       H53-C34=1.0782       
H54-C35=1.0788       Zn55-N61=2.0580      Zn55-N72=2.0593      Zn55-N79=2.0595      Zn55-N91=2.0560      C56-C57=1.3896       
C56-C90=1.3897       C56-H92=1.0857       C57-C56=1.3896       C57-C58=1.4363       C57-N61=1.3654       C58-C57=1.4363       
C58-C59=1.3563       C58-H93=1.0788       C59-C58=1.3563       C59-C60=1.4392       C59-H94=1.0782       C60-C59=1.4392       
C60-N61=1.3641       C60-C62=1.4002       N61-Zn55=2.0580      N61-C57=1.3654       N61-C60=1.3641       C62-C60=1.4002       
C62-C63=1.4830       C62-C69=1.3992       C63-C62=1.4830       C63-C64=1.3947       C63-C68=1.3945       C64-C63=1.3947       
C64-C65=1.3858       C64-H95=1.0836       C65-C64=1.3858       C65-N66=1.3294       C65-H96=1.0862       N66-C65=1.3294       
N66-C67=1.3291       C67-N66=1.3291       C67-C68=1.3860       C67-H97=1.0863       C68-C63=1.3945       C68-C67=1.3860       
C68-H98=1.0836       C69-C62=1.3992       C69-C70=1.4370       C69-N72=1.3694       C70-C69=1.4370       C70-C71=1.3573       
C70-H99=1.0781       C71-C70=1.3573       C71-C73=1.4335       C71-H100=1.0784      N72-Zn55=2.0593      N72-C69=1.3694       
N72-C73=1.3600       C73-C71=1.4335       C73-N72=1.3600       C73-C74=1.4096       C74-C73=1.4096       C74-C75=1.4096       
C74-C114=1.4056      C75-C74=1.4096       C75-C76=1.4334       C75-N79=1.3600       C76-C75=1.4334       C76-C77=1.3575       
C76-H101=1.0784      C77-C76=1.3575       C77-C78=1.4369       C77-H102=1.0780      C78-C77=1.4369       C78-N79=1.3694       
C78-C80=1.3994       N79-Zn55=2.0595      N79-C75=1.3600       N79-C78=1.3694       C80-C78=1.3994       C80-C81=1.4828       
C80-C87=1.4004       C81-C80=1.4828       C81-C82=1.3948       C81-C86=1.3946       C82-C81=1.3948       C82-C83=1.3858       
C82-H103=1.0836      C83-C82=1.3858       C83-N84=1.3293       C83-H104=1.0862      N84-C83=1.3293       N84-C85=1.3293       
C85-N84=1.3293       C85-C86=1.3859       C85-H105=1.0862      C86-C81=1.3946       C86-C85=1.3859       C86-H106=1.0836      
C87-C80=1.4004       C87-C88=1.4392       C87-N91=1.3642       C88-C87=1.4392       C88-C89=1.3564       C88-H107=1.0782      
C89-C88=1.3564       C89-C90=1.4362       C89-H108=1.0788      C90-C56=1.3897       C90-C89=1.4362       C90-N91=1.3655       
N91-Zn55=2.0560      N91-C87=1.3642       N91-C90=1.3655       H92-C56=1.0857       H93-C58=1.0788       H94-C59=1.0782       
H95-C64=1.0836       H96-C65=1.0862       H97-C67=1.0863       H98-C68=1.0836       H99-C70=1.0781       H100-C71=1.0784      
H101-C76=1.0784      H102-C77=1.0780      H103-C82=1.0836      H104-C83=1.0862      H105-C85=1.0862      H106-C86=1.0836      
H107-C88=1.0782      H108-C89=1.0788      C109-C110=1.2284     C109-C113=1.3446     C110-C109=1.2284     C110-C111=1.3446     
C111-C110=1.3446     C111-C112=1.2241     C112-C20=1.4056      C112-C111=1.2241     C113-C109=1.3446     C113-C114=1.2240     
C114-C74=1.4056      C114-C113=1.2240     
 C  H  Rav=1.0819 sigma=0.0034  Rmin=1.0780  Rmax=1.0863    34
 C  C  Rav=1.3968 sigma=0.0494  Rmin=1.2240  Rmax=1.4830    67
 N  C  Rav=1.3529 sigma=0.0169  Rmin=1.3291  Rmax=1.3694    24
 Zn N  Rav=2.0582 sigma=0.0014  Rmin=2.0560  Rmax=2.0596     8

 selected bond angles (degree)
 --------------------
N18-Zn1-N7= 89.33              N25-Zn1-N7=179.79              N25-Zn1-N18= 90.49             N37-Zn1-N7= 90.80              
N37-Zn1-N18=179.78             N37-Zn1-N25= 89.38             C36-C2-C3=127.12               H38-C2-C3=116.45               
H38-C2-C36=116.43              C4-C3-C2=125.06                N7-C3-C2=125.71                N7-C3-C4=109.22                
C5-C4-C3=107.02                H39-C4-C3=124.80               H39-C4-C5=128.18               C6-C5-C4=107.18                
H40-C5-C4=127.65               H40-C5-C6=125.16               N7-C6-C5=109.03                C8-C6-C5=125.55                
C8-C6-N7=125.41                C3-N7-Zn1=125.28               C6-N7-Zn1=127.14               C6-N7-C3=107.55                
C9-C8-C6=117.15                C15-C8-C6=125.75               C15-C8-C9=117.10               C10-C9-C8=121.24               
C14-C9-C8=121.43               C14-C9-C10=117.33              C11-C10-C9=119.24              H41-C10-C9=120.32              
H41-C10-C11=120.44             

 selected dihedral angles (degree)
 ---------------------------------
C4-C3-C2-C36=178.39           C4-C3-C2-H38=359.14           N7-C3-C2-C36=359.44           N7-C3-C2-H38=180.19           
C5-C4-C3-C2=181.07            C5-C4-C3-N7=  0.17            H39-C4-C3-C2=  0.62           H39-C4-C3-N7=179.72           
C6-C5-C4-C3=359.59            C6-C5-C4-H39=180.06           H40-C5-C4-C3=178.84           H40-C5-C4-H39=359.31          
N7-C6-C5-C4=  0.52            N7-C6-C5-H40=181.25           C8-C6-C5-C4=178.94            C8-C6-C5-H40=359.67           
C3-N7-Zn1-N18=178.28          C3-N7-Zn1-N25=207.25          C3-N7-Zn1-N37=358.45          C6-N7-Zn1-N18=  0.56          
C6-N7-Zn1-N25= 29.54          C6-N7-Zn1-N37=180.74          Zn1-N7-C3-C2=  1.16           Zn1-N7-C3-C4=182.07           
C6-N7-C3-C2=179.25            C6-N7-C3-C4=  0.16            Zn1-N7-C6-C5=177.63           Zn1-N7-C6-C8=359.21           
C3-N7-C6-C5=359.59            C3-N7-C6-C8=181.16            C9-C8-C6-C5=  1.81            C9-C8-C6-N7=179.97            
C15-C8-C6-C5=181.99           C15-C8-C6-N7=  0.16           C10-C9-C8-C6=242.17           C10-C9-C8-C15= 62.00          
C14-C9-C8-C6= 62.12           C14-C9-C8-C15=241.95          C11-C10-C9-C8=179.85          C11-C10-C9-C14=359.90         
H41-C10-C9-C8=  0.82          H41-C10-C9-C14=180.86         
           -------------------------------------------------
          |                Final Singlepoint                |
           -------------------------------------------------

          ...................................................
          :                      SETUP                      :
          :.................................................:
          :  # basis functions                 388          :
          :  # atomic orbitals                 388          :
          :  # shells                          228          :
          :  # electrons                       362          :
          :  # halogen bonds                     0          :
          :  max. iterations                   250          :
          :  Hamiltonian                  GFN1-xTB          :
          :  restarted?                      false          :
          :  GBSA solvation                  false          :
          :  PC potential                    false          :
          :  electronic temp.          300.0000000     K    :
          :  accuracy                    1.0000000          :
          :  -> integral cutoff          0.2500000E+02      :
          :  -> integral neglect         0.1000000E-07      :
          :  -> SCF convergence          0.1000000E-05 Eh   :
          :  -> wf. convergence          0.2000000E-04 e    :
          :  Broyden damping             0.4000000          :
          ...................................................

 iter      E             dE          RMSdq      gap      omega  full diag
   1   -200.7174090 -0.200717E+03  0.229E-05    1.11       0.0  T
   2   -200.7174090 -0.431726E-10  0.150E-05    1.11     626.4  T
   3   -200.7174090 -0.526938E-10  0.650E-06    1.11    1440.1  T

   *** convergence criteria satisfied after 3 iterations ***

         #    Occupation            Energy/Eh            Energy/eV
      -------------------------------------------------------------
         1        2.0000           -0.7645789             -20.8053
       ...           ...                  ...                  ...
       175        2.0000           -0.4182555             -11.3813
       176        2.0000           -0.4181941             -11.3796
       177        2.0000           -0.4139220             -11.2634
       178        2.0000           -0.3980587             -10.8317
       179        2.0000           -0.3980575             -10.8317
       180        2.0000           -0.3921512             -10.6710
       181        2.0000           -0.3816069             -10.3841 (HOMO)
       182                         -0.3406489              -9.2695 (LUMO)
       183                         -0.3318285              -9.0295
       184                         -0.3318233              -9.0294
       185                         -0.3290124              -8.9529
       186                         -0.3031505              -8.2491
       ...                                ...                  ...
       388                          1.5778920              42.9366
      -------------------------------------------------------------
                  HL-Gap            0.0409580 Eh            1.1145 eV
             Fermi-level           -0.3611280 Eh           -9.8268 eV

 SCC (total)                   0 d,  0 h,  0 min,  0.716 sec
 SCC setup                      ...        0 min,  0.005 sec (  0.733%)
 Dispersion                     ...        0 min,  0.004 sec (  0.589%)
 classical contributions        ...        0 min,  0.002 sec (  0.230%)
 integral evaluation            ...        0 min,  0.158 sec ( 22.047%)
 iterations                     ...        0 min,  0.147 sec ( 20.467%)
 molecular gradient             ...        0 min,  0.389 sec ( 54.293%)
 printout                       ...        0 min,  0.012 sec (  1.636%)

         :::::::::::::::::::::::::::::::::::::::::::::::::::::
         ::                     SUMMARY                     ::
         :::::::::::::::::::::::::::::::::::::::::::::::::::::
         :: total energy            -197.516585307019 Eh    ::
         :: gradient norm              0.000512527583 Eh/a0 ::
         :: HOMO-LUMO gap              1.114522906081 eV    ::
         ::.................................................::
         :: SCC energy              -200.717408983214 Eh    ::
         :: -> electrostatic           0.189936738172 Eh    ::
         :: repulsion energy           3.302536033140 Eh    ::
         :: dispersion energy         -0.101712356945 Eh    ::
         :: halogen bond corr.         0.000000000000 Eh    ::
         :: add. restraining           0.000000000000 Eh    ::
         :: total charge              -0.000000000000 e     ::
         :::::::::::::::::::::::::::::::::::::::::::::::::::::

           -------------------------------------------------
          |                Property Printout                |
           -------------------------------------------------

    * Orbital Energies and Occupations

         #    Occupation            Energy/Eh            Energy/eV
      -------------------------------------------------------------
         1        2.0000           -0.7645789             -20.8053
       ...           ...                  ...                  ...
       169        2.0000           -0.4254523             -11.5771
       170        2.0000           -0.4254346             -11.5767
       171        2.0000           -0.4253961             -11.5756
       172        2.0000           -0.4197903             -11.4231
       173        2.0000           -0.4183558             -11.3840
       174        2.0000           -0.4182611             -11.3815
       175        2.0000           -0.4182555             -11.3813
       176        2.0000           -0.4181941             -11.3796
       177        2.0000           -0.4139220             -11.2634
       178        2.0000           -0.3980587             -10.8317
       179        2.0000           -0.3980575             -10.8317
       180        2.0000           -0.3921512             -10.6710
       181        2.0000           -0.3816069             -10.3841 (HOMO)
       182                         -0.3406489              -9.2695 (LUMO)
       183                         -0.3318285              -9.0295
       184                         -0.3318233              -9.0294
       185                         -0.3290124              -8.9529
       186                         -0.3031505              -8.2491
       187                         -0.2969267              -8.0798
       188                         -0.2854727              -7.7681
       189                         -0.2792593              -7.5990
       190                         -0.2791701              -7.5966
       191                         -0.2787896              -7.5863
       192                         -0.2764272              -7.5220
       ...                                ...                  ...
       388                          1.5778920              42.9366
      -------------------------------------------------------------
                  HL-Gap            0.0409580 Eh            1.1145 eV
             Fermi-level           -0.3611280 Eh           -9.8268 eV

  Mulliken/CM5 charges         n(s)   n(p)   n(d)
     1Zn    0.61753  0.94278   0.811  0.572  0.000
     2C    -0.06813 -0.10927   1.063  3.005  0.000
     3C     0.14619  0.20792   1.047  2.807  0.000
     4C    -0.06085 -0.10690   1.063  2.998  0.000
     5C    -0.06208 -0.10770   1.064  2.998  0.000
     6C     0.14156  0.20710   1.048  2.810  0.000
     7N    -0.34334 -0.58709   1.530  3.813  0.000
     8C    -0.03373 -0.02819   1.087  2.947  0.000
     9C     0.03244  0.02587   1.087  2.881  0.000
    10C    -0.05977 -0.10746   1.065  2.995  0.000
[...]
   111C    -0.01920 -0.01992   1.074  2.946  0.000
   112C    -0.03028 -0.03185   1.104  2.926  0.000
   113C    -0.01919 -0.01992   1.074  2.946  0.000
   114C    -0.03027 -0.03184   1.104  2.926  0.000

Wiberg/Mayer (AO) data.
largest (>0.10) Wiberg bond orders for each atom

 ---------------------------------------------------------------------------
     #   Z sym  total        # sym  WBO       # sym  WBO       # sym  WBO
 ---------------------------------------------------------------------------
     1  30 Zn   1.995 --    37 N    0.460     7 N    0.459    18 N    0.456
                            25 N    0.455
     2   6 C    3.928 --     3 C    1.358    36 C    1.357    38 H    0.971
     3   6 C    3.921 --     2 C    1.358     7 N    1.233     4 C    1.170
     4   6 C    3.960 --     5 C    1.660     3 C    1.170    39 H    0.976
     5   6 C    3.963 --     4 C    1.660     6 C    1.171    40 H    0.973
     6   6 C    3.919 --     8 C    1.313     7 N    1.245     5 C    1.171
     7   7 N    3.293 --     6 C    1.245     3 C    1.233     1 Zn   0.459
     8   6 C    3.933 --    15 C    1.323     6 C    1.313     9 C    1.029
     9   6 C    3.985 --    14 C    1.392    10 C    1.392     8 C    1.029
                            12 N    0.107
    10   6 C    3.987 --    11 C    1.443     9 C    1.392    41 H    0.973
                            13 C    0.108
    11   6 C    3.972 --    10 C    1.443    12 N    1.415    42 H    0.972
                            14 C    0.108
    12   7 N    3.029 --    13 C    1.415    11 C    1.415     9 C    0.107
    13   6 C    3.972 --    14 C    1.442    12 N    1.415    43 H    0.972
                            10 C    0.108
    14   6 C    3.987 --    13 C    1.442     9 C    1.392    44 H    0.973
                            11 C    0.108
    15   6 C    3.913 --     8 C    1.323    18 N    1.226    16 C    1.178
    16   6 C    3.959 --    17 C    1.647    15 C    1.178    45 H    0.973
    17   6 C    3.962 --    16 C    1.647    19 C    1.186    46 H    0.974
    18   7 N    3.297 --    19 C    1.263    15 C    1.226     1 Zn   0.456
    19   6 C    3.901 --    18 N    1.263    20 C    1.254    17 C    1.186
    20   6 C    3.939 --    21 C    1.254    19 C    1.254   112 C    1.192
    21   6 C    3.901 --    25 N    1.263    20 C    1.254    22 C    1.186
    22   6 C    3.962 --    23 C    1.647    21 C    1.186    47 H    0.974
    23   6 C    3.959 --    22 C    1.647    24 C    1.178    48 H    0.973
    24   6 C    3.913 --    26 C    1.322    25 N    1.226    23 C    1.178
    25   7 N    3.297 --    21 C    1.263    24 C    1.226     1 Zn   0.455
    26   6 C    3.933 --    24 C    1.322    33 C    1.313    27 C    1.030
    27   6 C    3.985 --    32 C    1.392    28 C    1.392    26 C    1.030
                            30 N    0.107
    28   6 C    3.987 --    29 C    1.443    27 C    1.392    49 H    0.973
                            31 C    0.108
    29   6 C    3.972 --    28 C    1.443    30 N    1.415    50 H    0.972
                            32 C    0.108
    30   7 N    3.029 --    31 C    1.415    29 C    1.415    27 C    0.107
    31   6 C    3.972 --    32 C    1.443    30 N    1.415    51 H    0.972
                            28 C    0.108
    32   6 C    3.987 --    31 C    1.443    27 C    1.392    52 H    0.973
                            29 C    0.108
    33   6 C    3.919 --    26 C    1.313    37 N    1.245    34 C    1.172
    34   6 C    3.963 --    35 C    1.659    33 C    1.172    53 H    0.973
    35   6 C    3.960 --    34 C    1.659    36 C    1.170    54 H    0.976
    36   6 C    3.921 --     2 C    1.357    37 N    1.233    35 C    1.170
    37   7 N    3.294 --    33 C    1.245    36 C    1.233     1 Zn   0.460
    38   1 H    1.001 --     2 C    0.971
    39   1 H    0.998 --     4 C    0.976
    40   1 H    1.005 --     5 C    0.973
    41   1 H    1.004 --    10 C    0.973
    42   1 H    1.013 --    11 C    0.972
    43   1 H    1.013 --    13 C    0.972
    44   1 H    1.004 --    14 C    0.973
    45   1 H    1.004 --    16 C    0.973
    46   1 H    1.002 --    17 C    0.974
    47   1 H    1.002 --    22 C    0.974
    48   1 H    1.004 --    23 C    0.973
    49   1 H    1.004 --    28 C    0.973
    50   1 H    1.013 --    29 C    0.972
    51   1 H    1.013 --    31 C    0.972
    52   1 H    1.004 --    32 C    0.973
    53   1 H    1.005 --    34 C    0.973
    54   1 H    0.998 --    35 C    0.976
    55  30 Zn   1.995 --    91 N    0.460    61 N    0.459    72 N    0.456
                            79 N    0.456
    56   6 C    3.928 --    57 C    1.358    90 C    1.358    92 H    0.971
    57   6 C    3.921 --    56 C    1.358    61 N    1.233    58 C    1.170
    58   6 C    3.960 --    59 C    1.660    57 C    1.170    93 H    0.976
    59   6 C    3.963 --    58 C    1.660    60 C    1.171    94 H    0.973
    60   6 C    3.919 --    62 C    1.313    61 N    1.245    59 C    1.171
    61   7 N    3.293 --    60 C    1.245    57 C    1.233    55 Zn   0.459
    62   6 C    3.933 --    69 C    1.323    60 C    1.313    63 C    1.029
    63   6 C    3.985 --    68 C    1.392    64 C    1.392    62 C    1.029
                            66 N    0.107
    64   6 C    3.987 --    65 C    1.443    63 C    1.392    95 H    0.973
                            67 C    0.108
    65   6 C    3.972 --    64 C    1.443    66 N    1.415    96 H    0.972
                            68 C    0.108
    66   7 N    3.029 --    67 C    1.415    65 C    1.415    63 C    0.107
    67   6 C    3.972 --    68 C    1.442    66 N    1.415    97 H    0.972
                            64 C    0.108
    68   6 C    3.987 --    67 C    1.442    63 C    1.392    98 H    0.973
                            65 C    0.108
    69   6 C    3.913 --    62 C    1.323    72 N    1.226    70 C    1.178
    70   6 C    3.959 --    71 C    1.647    69 C    1.178    99 H    0.973
    71   6 C    3.962 --    70 C    1.647    73 C    1.186   100 H    0.974
    72   7 N    3.297 --    73 C    1.263    69 C    1.226    55 Zn   0.456
    73   6 C    3.901 --    72 N    1.263    74 C    1.254    71 C    1.186
    74   6 C    3.939 --    75 C    1.254    73 C    1.254   114 C    1.192
    75   6 C    3.901 --    79 N    1.263    74 C    1.254    76 C    1.186
    76   6 C    3.962 --    77 C    1.647    75 C    1.186   101 H    0.974
    77   6 C    3.959 --    76 C    1.647    78 C    1.178   102 H    0.973
    78   6 C    3.913 --    80 C    1.322    79 N    1.226    77 C    1.178
    79   7 N    3.297 --    75 C    1.263    78 C    1.226    55 Zn   0.456
    80   6 C    3.933 --    78 C    1.322    87 C    1.313    81 C    1.030
    81   6 C    3.985 --    86 C    1.392    82 C    1.391    80 C    1.030
                            84 N    0.106
    82   6 C    3.987 --    83 C    1.443    81 C    1.391   103 H    0.973
                            85 C    0.108
    83   6 C    3.972 --    82 C    1.443    84 N    1.415   104 H    0.972
                            86 C    0.108
    84   7 N    3.029 --    85 C    1.415    83 C    1.415    81 C    0.106
    85   6 C    3.972 --    86 C    1.443    84 N    1.415   105 H    0.972
                            82 C    0.108
    86   6 C    3.987 --    85 C    1.443    81 C    1.392   106 H    0.973
                            83 C    0.108
    87   6 C    3.919 --    80 C    1.313    91 N    1.245    88 C    1.172
    88   6 C    3.963 --    89 C    1.659    87 C    1.172   107 H    0.973
    89   6 C    3.960 --    88 C    1.659    90 C    1.170   108 H    0.976
    90   6 C    3.921 --    56 C    1.358    91 N    1.232    89 C    1.170
    91   7 N    3.294 --    87 C    1.245    90 C    1.232    55 Zn   0.460
    92   1 H    1.001 --    56 C    0.971
    93   1 H    0.998 --    58 C    0.976
    94   1 H    1.005 --    59 C    0.973
    95   1 H    1.004 --    64 C    0.973
    96   1 H    1.013 --    65 C    0.972
    97   1 H    1.013 --    67 C    0.972
    98   1 H    1.004 --    68 C    0.973
    99   1 H    1.004 --    70 C    0.973
   100   1 H    1.002 --    71 C    0.974
   101   1 H    1.002 --    76 C    0.974
   102   1 H    1.004 --    77 C    0.973
   103   1 H    1.004 --    82 C    0.973
   104   1 H    1.013 --    83 C    0.972
   105   1 H    1.013 --    85 C    0.972
   106   1 H    1.004 --    86 C    0.973
   107   1 H    1.005 --    88 C    0.973
   108   1 H    0.998 --    89 C    0.976
   109   6 C    3.926 --   110 C    2.369   113 C    1.335   112 C    0.190
   110   6 C    3.926 --   109 C    2.369   111 C    1.335   114 C    0.190
   111   6 C    3.934 --   112 C    2.449   110 C    1.335
   112   6 C    3.891 --   111 C    2.449    20 C    1.192   109 C    0.190
   113   6 C    3.934 --   114 C    2.449   109 C    1.335
   114   6 C    3.891 --   113 C    2.449    74 C    1.192   110 C    0.190
 ---------------------------------------------------------------------------

Topologies differ in total number of bonds
Writing topology from bond orders to xtbtopo.mol

 dipole moment from electron density (au)
     X       Y       Z   
  -0.0003   0.0007  -0.0009  total (Debye):    0.003

           -------------------------------------------------
          |                Geometry Summary                 |
           -------------------------------------------------

      molecular mass/u    :     1125.8145585
   center of mass at/Å    :       19.0950300      -0.0006435      -0.0021933
  moments of inertia/u·Å² :        0.1702894E+05   0.7247810E+05   0.8891680E+05
rotational constants/cm⁻¹ :        0.9899400E-03   0.2325893E-03   0.1895888E-03

 * 117 selected distances

     #   Z          #   Z                                           value/Å
     2   6 C        3   6 C                                       1.3896195
     3   6 C        4   6 C                                       1.4363235
     4   6 C        5   6 C                                       1.3563407
     5   6 C        6   6 C                                       1.4392563 (max)
     3   6 C        7   7 N                                       1.3654499
     6   6 C        7   7 N                                       1.3640610
     6   6 C        8   6 C                                       1.4002260
     9   6 C       10   6 C                                       1.3946639
    10   6 C       11   6 C                                       1.3857565
    11   6 C       12   7 N                                       1.3293612
    12   7 N       13   6 C                                       1.3291136
     9   6 C       14   6 C                                       1.3944330
    13   6 C       14   6 C                                       1.3859994
     8   6 C       15   6 C                                       1.3991975
    15   6 C       16   6 C                                       1.4369816
    16   6 C       17   6 C                                       1.3573308
    15   6 C       18   7 N                                       1.3693523
    17   6 C       19   6 C                                       1.4335211
    18   7 N       19   6 C                                       1.3599910
    19   6 C       20   6 C                                       1.4096257
    20   6 C       21   6 C                                       1.4096221
    21   6 C       22   6 C                                       1.4333653
    22   6 C       23   6 C                                       1.3574704
    23   6 C       24   6 C                                       1.4369393
    21   6 C       25   7 N                                       1.3599750
    24   6 C       25   7 N                                       1.3694113
    24   6 C       26   6 C                                       1.3993020
    27   6 C       28   6 C                                       1.3947254
    28   6 C       29   6 C                                       1.3858336
    29   6 C       30   7 N                                       1.3292934
    30   7 N       31   6 C                                       1.3292764
    27   6 C       32   6 C                                       1.3945945
    31   6 C       32   6 C                                       1.3859003
    26   6 C       33   6 C                                       1.4003921
    33   6 C       34   6 C                                       1.4392297
    34   6 C       35   6 C                                       1.3563808
     2   6 C       36   6 C                                       1.3897020
    35   6 C       36   6 C                                       1.4362045
    33   6 C       37   7 N                                       1.3641540
    36   6 C       37   7 N                                       1.3655114
     2   6 C       38   1 H                                       1.0856517
     4   6 C       39   1 H                                       1.0787845
     5   6 C       40   1 H                                       1.0782385
    10   6 C       41   1 H                                       1.0836006
    11   6 C       42   1 H                                       1.0862152
    13   6 C       43   1 H                                       1.0863099
    14   6 C       44   1 H                                       1.0835749
    16   6 C       45   1 H                                       1.0780518
    17   6 C       46   1 H                                       1.0783682
    22   6 C       47   1 H                                       1.0783790
    23   6 C       48   1 H                                       1.0780638
    28   6 C       49   1 H                                       1.0835769
    29   6 C       50   1 H                                       1.0861912
    31   6 C       51   1 H                                       1.0861723
    32   6 C       52   1 H                                       1.0835636
    34   6 C       53   1 H                                       1.0782493
    35   6 C       54   1 H                                       1.0787782
    56   6 C       57   6 C                                       1.3896243
    57   6 C       58   6 C                                       1.4363214
    58   6 C       59   6 C                                       1.3563468
    59   6 C       60   6 C                                       1.4392389
    57   6 C       61   7 N                                       1.3654316
    60   6 C       61   7 N                                       1.3640637
    60   6 C       62   6 C                                       1.4001992
    63   6 C       64   6 C                                       1.3946652
    64   6 C       65   6 C                                       1.3857695
    65   6 C       66   7 N                                       1.3293901
    66   7 N       67   6 C                                       1.3291431
    63   6 C       68   6 C                                       1.3944580
    67   6 C       68   6 C                                       1.3859953
    62   6 C       69   6 C                                       1.3991680
    69   6 C       70   6 C                                       1.4369573
    70   6 C       71   6 C                                       1.3573452
    69   6 C       72   7 N                                       1.3693659
    71   6 C       73   6 C                                       1.4335001
    72   7 N       73   6 C                                       1.3599588
    73   6 C       74   6 C                                       1.4096319
    74   6 C       75   6 C                                       1.4096143
    75   6 C       76   6 C                                       1.4333605
    76   6 C       77   6 C                                       1.3574746
    77   6 C       78   6 C                                       1.4369356
    75   6 C       79   7 N                                       1.3599942
    78   6 C       79   7 N                                       1.3694133
    78   6 C       80   6 C                                       1.3993501
    81   6 C       82   6 C                                       1.3947726
    82   6 C       83   6 C                                       1.3858280
    83   6 C       84   7 N                                       1.3293129
    84   7 N       85   6 C                                       1.3292971
    81   6 C       86   6 C                                       1.3946259
    85   6 C       86   6 C                                       1.3858993
    80   6 C       87   6 C                                       1.4004343
    87   6 C       88   6 C                                       1.4392469
    88   6 C       89   6 C                                       1.3563722
    56   6 C       90   6 C                                       1.3896867
    89   6 C       90   6 C                                       1.4361900
    87   6 C       91   7 N                                       1.3641556
    90   6 C       91   7 N                                       1.3655269
    56   6 C       92   1 H                                       1.0856512
    58   6 C       93   1 H                                       1.0787826
    59   6 C       94   1 H                                       1.0782411
    64   6 C       95   1 H                                       1.0836247
    65   6 C       96   1 H                                       1.0862475
    67   6 C       97   1 H                                       1.0863463
    68   6 C       98   1 H                                       1.0835973
    70   6 C       99   1 H                                       1.0780650
    71   6 C      100   1 H                                       1.0783626
    76   6 C      101   1 H                                       1.0783731
    77   6 C      102   1 H                                       1.0780446 (min)
    82   6 C      103   1 H                                       1.0835909
    83   6 C      104   1 H                                       1.0862203
    85   6 C      105   1 H                                       1.0861918
    86   6 C      106   1 H                                       1.0835807
    88   6 C      107   1 H                                       1.0782396
    89   6 C      108   1 H                                       1.0787769
   109   6 C      110   6 C                                       1.2284328
   111   6 C      112   6 C                                       1.2241037
   113   6 C      114   6 C                                       1.2240335

 * 3 distinct bonds (by element types)

   Z      Z             #   av. dist./Å        max./Å        min./Å
   1 H    6 C          34     1.0818737     1.0863463     1.0780446
   6 C    6 C          59     1.3924495     1.4392563     1.2240335
   6 C    7 N          24     1.3529168     1.3694133     1.3291136


optimized geometry written to: xtbopt.xyz


           -------------------------------------------------
          | TOTAL ENERGY             -197.516585307019 Eh   |
          | GRADIENT NORM               0.000512527583 Eh/α |
          | HOMO-LUMO GAP               1.114522906081 eV   |
           -------------------------------------------------

------------------------------------------------------------------------
 * finished run on 2022/07/30 at 07:21:53.193     
------------------------------------------------------------------------
 total:
 * wall-time:     0 d,  0 h,  0 min, 37.508 sec
 *  cpu-time:     0 d,  0 h,  0 min, 36.940 sec
 * ratio c/w:     0.985 speedup
 SCF:
 * wall-time:     0 d,  0 h,  0 min,  1.251 sec
 *  cpu-time:     0 d,  0 h,  0 min,  1.240 sec
 * ratio c/w:     0.992 speedup
 ANC optimizer:
 * wall-time:     0 d,  0 h,  0 min, 36.081 sec
 *  cpu-time:     0 d,  0 h,  0 min, 35.529 sec
 * ratio c/w:     0.985 speedup

