114
 energy: -197.067365263579 gnorm: 1.316077477206 xtb: 6.5.1 (b24c23e)
Zn          11.25491200000000        0.00863300000000        0.00087600000000
C            7.88887800000000       -0.10551900000000       -0.03106100000000
C            8.55181600000000       -1.26394500000000        0.02649200000000
C            7.90018100000000       -2.56687500000000        0.08530300000000
C            8.84003900000000       -3.48724700000000        0.19223000000000
C           10.14620100000000       -2.81447200000000        0.20618200000000
N            9.97004100000000       -1.40155800000000        0.09624700000000
C           11.33509600000000       -3.43240400000000        0.35972300000000
C           11.37087100000000       -4.90359600000000        0.51006800000000
C           11.57614400000000       -5.48005600000000        1.77060600000000
C           11.60481400000000       -6.87135900000000        1.89160500000000
N           11.43215200000000       -7.65518700000000        0.79388000000000
C           11.23021200000000       -7.12023600000000       -0.43987600000000
C           11.19687300000000       -5.73356600000000       -0.60564400000000
C           12.62933800000000       -2.70165400000000        0.39961300000000
C           13.91935400000000       -3.33934600000000        0.68907800000000
C           14.85398300000000       -2.41510500000000        0.60529900000000
N           12.77119500000000       -1.43749200000000        0.14046500000000
C           14.17035700000000       -1.17737500000000        0.25232300000000
C           14.76674300000000       -0.00020600000000        0.00005700000000
C           14.00888000000000        1.21566000000000       -0.37324300000000
C           14.55217400000000        2.28911300000000       -0.93310600000000
C           13.50950200000000        3.28868600000000       -1.05120100000000
C           12.39784700000000        2.76191400000000       -0.55217200000000
N           12.62259700000000        1.42485900000000       -0.10170700000000
C           11.11274000000000        3.49516800000000       -0.41526300000000
C           11.13558800000000        4.97780900000000       -0.46245800000000
C           10.47387500000000        5.67174200000000       -1.48600400000000
C           10.51808500000000        7.06764900000000       -1.50879300000000
N           11.20472000000000        7.74483400000000       -0.55004100000000
C           11.86392200000000        7.09695100000000        0.44649300000000
C           11.84502100000000        5.70161700000000        0.50695000000000
C            9.94584900000000        2.84638900000000       -0.23794300000000
C            8.63364200000000        3.46268500000000       -0.04807900000000
C            7.77140200000000        2.46915400000000        0.04572800000000
C            8.52379300000000        1.22120800000000       -0.06964900000000
N            9.79215600000000        1.42837600000000       -0.23513400000000
H            6.80572800000000       -0.13350100000000       -0.03125600000000
H            6.83579500000000       -2.76141100000000        0.06015500000000
H            8.65150300000000       -4.55022800000000        0.26982400000000
H           11.71254600000000       -4.85864500000000        2.64705000000000
H           11.76362800000000       -7.32850300000000        2.85906500000000
H           11.09503900000000       -7.77179700000000       -1.29280300000000
H           11.03543800000000       -5.31057500000000       -1.58937500000000
H           14.09744900000000       -4.38006800000000        0.92381500000000
H           15.91174000000000       -2.57823000000000        0.75933700000000
H           15.58535300000000        2.41421800000000       -1.22676300000000
H           13.62748600000000        4.28779900000000       -1.44897700000000
H            9.93323100000000        5.13706900000000       -2.25627500000000
H           10.00742600000000        7.61311400000000       -2.29111600000000
H           12.40217900000000        7.66520200000000        1.19363300000000
H           12.37051500000000        5.19051600000000        1.30418500000000
H            8.38911800000000        4.51502500000000        0.01274800000000
H            6.70428200000000        2.57366400000000        0.19197300000000
Zn          26.93523200000000       -0.00842400000000        0.00341000000000
C           30.30126600000000        0.09151100000000       -0.06033500000000
C           29.63832800000000        1.21663000000000       -0.34206300000000
C           30.28996400000000        2.48037700000000       -0.66460000000000
C           29.35010600000000        3.39207900000000       -0.82987700000000
C           28.04394300000000        2.75242300000000       -0.62092800000000
N           28.22010300000000        1.36858000000000       -0.31533100000000
C           26.85504800000000        3.38830200000000       -0.65367400000000
C           26.81927300000000        4.83965400000000       -0.93755100000000
C           26.61400000000000        5.75769600000000        0.10093900000000
C           26.58533000000000        7.12407800000000       -0.18779000000000
N           26.75799200000000        7.55490000000000       -1.46598300000000
C           26.95993300000000        6.68436000000000       -2.49091600000000
C           26.99327200000000        5.30939500000000       -2.24636900000000
C           25.56080700000000        2.70071500000000       -0.40305200000000
C           24.27079000000000        3.39501900000000       -0.31149200000000
C           23.33616200000000        2.48634400000000       -0.12294200000000
N           25.41895000000000        1.41581700000000       -0.28347000000000
C           24.01978700000000        1.19945700000000       -0.10081900000000
C           23.42340100000000       -0.00020600000000        0.00005700000000
C           24.18126500000000       -1.27208100000000       -0.00362300000000
C           23.63797100000000       -2.46193700000000       -0.22721100000000
C           24.68064300000000       -3.45266600000000       -0.04959400000000
C           25.79229800000000       -2.80356400000000        0.27472800000000
N           25.56754700000000       -1.39329800000000        0.31700500000000
C           27.07740400000000       -3.46534000000000        0.61890500000000
C           27.05455700000000       -4.89765700000000        1.00480500000000
C           27.71626900000000       -5.85919500000000        0.22722300000000
C           27.67205900000000       -7.20143000000000        0.61125800000000
N           26.98542500000000       -7.57062000000000        1.72547700000000
C           26.32622300000000       -6.66099500000000        2.49060200000000
C           26.34512400000000       -5.30835800000000        2.14277400000000
C           28.24429500000000       -2.79303200000000        0.59994300000000
C           29.55650199999999       -3.32750600000000        0.96078500000000
C           30.41874300000000       -2.34962000000000        0.76168500000000
C           29.66635100000000       -1.18912400000000        0.28847000000000
N           28.39798800000000       -1.43545600000000        0.19036400000000
H           31.38441600000000        0.11822800000000       -0.06865700000000
H           31.35434900000000        2.65919900000000       -0.74522100000000
H           29.53864200000000        4.43170300000000       -1.06468000000000
H           26.47759800000000        5.41794100000000        1.12019000000000
H           26.42651600000000        7.84275000000000        0.60497200000000
H           27.09510500000000        7.05980100000000       -3.49643200000000
H           27.15470699999999        4.61867100000000       -3.06462900000000
H           24.09269600000000        4.45903200000000       -0.38946800000000
H           22.27840399999999        2.68720700000000       -0.02298400000000
H           22.60479200000000       -2.66701400000000       -0.47181100000000
H           24.56265800000000       -4.52426800000000       -0.13971000000000
H           28.25691300000000       -5.57156300000000       -0.66522300000000
H           28.18271900000000       -7.95078100000000        0.02131400000000
H           25.78796600000000       -6.98748000000000        3.37067900000000
H           25.81963000000000       -4.58755100000000        2.75697700000000
H           29.80102600000000       -4.31670500000000        1.32493600000000
H           31.48586200000000       -2.40709700000000        0.93199700000000
C           19.69891600000000        0.00089700000000        0.00854700000000
C           18.48997700000000       -0.01255800000000        0.00009900000000
C           17.06844800000000       -0.00373900000000       -0.01188400000000
C           15.85677800000000        0.00370000000000       -0.00102100000000
C           21.11552000000000       -0.00577800000000        0.00908000000000
C           22.33621600000000        0.00370000000000       -0.00102100000000
114
 energy: -197.390559772908 gnorm: 0.340748669105 xtb: 6.5.1 (b24c23e)
Zn          11.25550208373036        0.00824750805459       -0.00000763462090
C            7.88946652899981       -0.09060518268966       -0.03149393576424
C            8.55714593737515       -1.26594509416895        0.02694523026172
C            7.89910417389861       -2.56141902022175        0.08492908244065
C            8.84796145302210       -3.48961935134605        0.19281167146080
C           10.14366030819727       -2.80933440096324        0.20523143987114
N            9.95203807101096       -1.41954244540993        0.09614195143156
C           11.34782215755108       -3.42978695662403        0.36045840337857
C           11.37346107009572       -4.90425862718158        0.51042097526006
C           11.57662549360809       -5.48254799888321        1.76687495473170
C           11.60258519014274       -6.86949564572742        1.87803718228599
N           11.43212940775117       -7.65433869085366        0.79377677651872
C           11.23207865059207       -7.11533444388988       -0.42690118019388
C           11.19692012089621       -5.73479047381848       -0.60109947746649
C           12.62051767732097       -2.72338444714445        0.40231084356891
C           13.90679484287471       -3.35152528096559        0.68950471746583
C           14.84908182616507       -2.40835878224508        0.60305566853128
N           12.77020982133068       -1.44398520204846        0.14509213697854
C           14.13372169724538       -1.19615692340548        0.25792452223474
C           14.67199572052327        0.00974413327105       -0.00261449882876
C           13.97448789295506        1.21791121691455       -0.36924249593786
C           14.55048396448318        2.30845044432058       -0.93839029395716
C           13.52786919931025        3.29239217992905       -1.05425916138241
C           12.38672383860042        2.75673112857460       -0.54335286671575
N           12.61975459396899        1.43530982872549       -0.10804361970412
C           11.12342839703556        3.48868848540658       -0.41482273223352
C           11.14060422920902        4.97479709957797       -0.46458489263566
C           10.47571273689828        5.67240468434270       -1.48151663730730
C           10.52563349840259        7.06380374379351       -1.49734181257086
N           11.20463075420645        7.74383996699556       -0.55019556012340
C           11.85581523371145        7.09280493109363        0.43562882425783
C           11.84357572249813        5.70245578028421        0.50306767926167
C            9.94359149827220        2.84573510990444       -0.23735828609277
C            8.63953822453148        3.46301989728718       -0.04930532050427
C            7.76296738473624        2.45992418027808        0.04621563485675
C            8.50718604994929        1.21412458468150       -0.06926913470173
N            9.79056226465703        1.43939842849436       -0.23236592576339
H            6.80600955018197       -0.12953791672124       -0.03106444916988
H            6.83573511527124       -2.75565528825608        0.05955226801807
H            8.65859932454788       -4.55094821958675        0.26998560607313
H           11.71226513005897       -4.85936346816952        2.64537677209917
H           11.76236517274244       -7.33066234903259        2.85181563758745
H           11.09634541491628       -7.77226046221806       -1.28523872542912
H           11.03592764004986       -5.31077573310746       -1.58748107705061
H           14.09225076786172       -4.38472490561995        0.92422566707184
H           15.90935490450481       -2.56957035689641        0.75753634136977
H           15.58486517994160        2.41611204850694       -1.22810316027190
H           13.63184568494713        4.28852690831555       -1.45092014794208
H            9.93426727240740        5.13730731467149       -2.25492934955534
H           10.01185453976387        7.61425730183846       -2.28485764043872
H           12.39782505122998        7.66612998105951        1.18722248149459
H           12.36968712705083        5.19077135552644        1.30270219537225
H            8.39567505220896        4.51467675500400        0.01186324000427
H            6.70119661408936        2.56886687155061        0.19216206080196
Zn          26.93463671430973       -0.00830992026645        0.00245250863356
C           30.30067921142135        0.07711234076660       -0.05641254993614
C           29.63299716061136        1.21867955597433       -0.34221153886228
C           30.29104124067425        2.47504512042662       -0.66337124847008
C           29.34217987463346        3.39451891175694       -0.83001009185685
C           28.04649025500342        2.74723839689197       -0.62034634806149
N           28.23811048278110        1.38575374921190       -0.32065984415285
C           26.84232620093852        3.38602531177789       -0.65220827286682
C           26.81668625264572        4.84039354487957       -0.93740602054868
C           26.61351904285603        5.75899582519935        0.09664506187569
C           26.58755892794899        7.11835057549363       -0.20022988000858
N           26.75801495630737        7.55405811599899       -1.46583525653856
C           26.95806571011078        6.68344271325109       -2.47707676307907
C           26.99322496025636        5.31188798792387       -2.24237769398832
C           25.56964103460222        2.72236411374617       -0.40678728178101
C           24.28342030036367        3.40683168709758       -0.31462900396750
C           23.34114219248622        2.47920952063193       -0.12312184038875
N           25.41997677149960        1.42338590677523       -0.28095932621033
C           24.05662140831486        1.21919294024318       -0.10104834789998
C           23.51774839265362       -0.01077850036172       -0.00012713271010
C           24.21551498852605       -1.27324861483714        0.00075517358914
C           23.63961152798940       -2.48201223698903       -0.22665559997072
C           24.66229236047618       -3.45711186870485       -0.05143428376797
C           25.80339491451610       -2.79603352590612        0.28165875880157
N           25.57028706164474       -1.40509691743967        0.31397792689531
C           27.06672112603621       -3.45900716122380        0.61744313499145
C           27.04953994361285       -4.89539140081042        1.00189396559457
C           27.71443142774582       -5.85852381630672        0.23170926812920
C           27.66451064867588       -7.19442126439284        0.62109666971508
N           26.98551417086540       -7.56971328810322        1.72503989680035
C           26.33432986716987       -6.66018660965309        2.47900179369451
C           26.34656868441092       -5.31028889100638        2.13930337806719
C           28.24655007201451       -2.79223973789129        0.60031125205553
C           29.55060694720656       -3.32818348620260        0.95970955044318
C           30.42717627721175       -2.34064872595421        0.75946879927374
C           29.68295596618834       -1.18223557251910        0.28677438028259
N           28.39957955648725       -1.44519374210705        0.19621439981750
H           31.38413491613033        0.11449101100759       -0.06732136022221
H           31.35440908055345        2.65351570224684       -0.74412399092273
H           29.53154506703564        4.43243896951626       -1.06473472768458
H           26.47787876114002        5.41814182241078        1.11838006945274
H           26.42777872649192        7.84270815403850        0.59740781510639
H           27.09379864349673        7.06244340995539       -3.48932896525893
H           27.15421735965766        4.61941363237252       -3.06287537162569
H           24.09790017856514        4.46361667318913       -0.39042797527278
H           22.28082269563446        2.67837550457467       -0.02219330919020
H           22.60525122075680       -2.66921786950646       -0.47254610681724
H           24.55830392293946       -4.52553244765582       -0.14135443506446
H           28.25587672872567       -5.57139973702967       -0.66386636325331
H           28.17829031500057       -7.95005514927771        0.02763448862281
H           25.79232008056174       -6.99023150971304        3.36481505555684
H           25.82045768843961       -4.58822635877083        2.75563266604304
H           29.79446930595377       -4.31662905990188        1.32398839232223
H           31.48894707641105       -2.40245230444717        0.93078322821162
C           19.70288443742002        0.00080669083902        0.00798057373375
C           18.48635832744523       -0.01209928067357        0.00041343249885
C           17.14161582035415       -0.00098726240835       -0.01130964559865
C           15.95277618758871        0.01740118041988       -0.00482207605311
C           21.04615173273740       -0.00958147212187        0.01180080993283
C           22.23634183823259       -0.00928453764306       -0.00066574643811
114
 energy: -197.463128882232 gnorm: 0.164397477053 xtb: 6.5.1 (b24c23e)
Zn          11.25082892034864        0.00442304119776       -0.00294901119793
C            7.88813127073202       -0.07292913870868       -0.03179451164857
C            8.55636811681623       -1.26716398978517        0.02681684469093
C            7.89900726994362       -2.55520756753505        0.08482010620060
C            8.85720001522701       -3.49126448980260        0.19312969685801
C           10.13892622216699       -2.80799091231179        0.20329000775335
N            9.92497924873754       -1.44439754196241        0.09481991782007
C           11.35788828546227       -3.42977013710829        0.36133064056414
C           11.37724170514220       -4.90378268059216        0.51108576378578
C           11.57902265758309       -5.48593029026604        1.76034396923280
C           11.59979589353902       -6.86927324828517        1.85915623933867
N           11.43218442779269       -7.65802370146185        0.79420495493467
C           11.23413127744663       -7.11004007601175       -0.40786671455324
C           11.19694798639186       -5.73549952390623       -0.59276024710941
C           12.60596866154598       -2.75694516760676        0.40914424944785
C           13.88760786968195       -3.37196211590750        0.68877307110380
C           14.82825996844788       -2.40618184892676        0.60058275798533
N           12.76431413963666       -1.45826928901552        0.16423343451407
C           14.10553759689587       -1.20422205816833        0.26399004277264
C           14.62950277088473        0.03121888528585       -0.01033462007585
C           13.94592933462513        1.22637211093607       -0.36373887172727
C           14.54553991663515        2.33888893036304       -0.93917451907348
C           13.55136941659870        3.30425056670476       -1.04968265911760
C           12.38052058828927        2.76016394695811       -0.53339463552082
N           12.61172412105261        1.45165054551559       -0.12880383999444
C           11.13900823847002        3.47588776901385       -0.41285066223185
C           11.15541458056913        4.96260864533338       -0.47193359644770
C           10.48145350042343        5.66762272015578       -1.47358996050187
C           10.53593616136998        7.05557974501145       -1.47961925894451
N           11.20459606169174        7.74364936146276       -0.55042488343602
C           11.84399136988260        7.08531878861811        0.41990181655818
C           11.84480052076563        5.69892678405361        0.49358361890620
C            9.93957988066844        2.84084178730779       -0.23310548035757
C            8.64315213239712        3.45613526456235       -0.05164912996854
C            7.74887099994556        2.45021816670328        0.04433985039448
C            8.48219116975775        1.20902576717810       -0.06835605598106
N            9.78204516521889        1.45244717910300       -0.22088132009248
H            6.80511445084139       -0.11746566664306       -0.02879688516900
H            6.83537566536857       -2.73950858808075        0.05777376164294
H            8.68012709924985       -4.55333902316658        0.27026316830495
H           11.71214769586703       -4.86362881532369        2.64008362947466
H           11.75833502913957       -7.33800619231663        2.83022628904213
H           11.10009789631379       -7.77360782547748       -1.26230545292772
H           11.03748547774349       -5.31269308395627       -1.58027505868639
H           14.07640748848668       -4.40317406888522        0.92459050463951
H           15.89173210106166       -2.54733904973200        0.75199006318813
H           15.58028866018859        2.42558644348574       -1.23237877245406
H           13.64517894087366        4.29575376445439       -1.45619131244671
H            9.93831134459618        5.13711700485606       -2.24947113160122
H           10.02505398194928        7.61445659050872       -2.26483339584902
H           12.38374459962249        7.66709142201858        1.16800243540742
H           12.36859412364649        5.19152809379385        1.29740243665611
H            8.41445215693634        4.51040264613793        0.00890767557120
H            6.68852604920266        2.55721726650532        0.19171496350288
Zn          26.93928339819846       -0.00554928724533       -0.00146221631859
C           30.30201174774369        0.06010575605138       -0.05155499371675
C           29.63377712048976        1.21980385761513       -0.34268422520284
C           30.29115317490420        2.46906167437896       -0.66166566013845
C           29.33296944108211        3.39618346713120       -0.83018312053209
C           28.05126882113442        2.74539307814166       -0.62180877641767
N           28.26517063117625        1.40914447903447       -0.32914250409720
C           26.83234786459797        3.38632435383263       -0.65136016997361
C           26.81294989936764        4.84016909025739       -0.93663290411783
C           26.61113174287998        5.76035081139146        0.08941562309901
C           26.59034600269644        7.11266142332733       -0.21822911972232
N           26.75795979105782        7.55771806559844       -1.46649713613254
C           26.95601117790374        6.68392394724463       -2.45732923506594
C           26.99320643998157        5.31500780900698       -2.23461103714105
C           25.58436530709120        2.75653567146624       -0.40996597958846
C           24.30272435677058        3.42619729862331       -0.32126198677526
C           23.36219258073360        2.47636393421755       -0.12503101024293
N           25.42623109106631        1.44270969846119       -0.26677008857532
C           24.08524105808420        1.22856597934611       -0.09782388431718
C           23.56018278637133       -0.03317937294406       -0.00209721892721
C           24.24339108499309       -1.27952368164910        0.00820606903142
C           23.64419862840174       -2.51141091762197       -0.21862638093498
C           24.63861691024654       -3.46705249364946       -0.04360532426044
C           25.80936959615580       -2.79622367821672        0.29220239222058
N           25.57780812115061       -1.42653862605487        0.29876334909895
C           27.05100869621835       -3.44607700863522        0.61560577676434
C           27.03467264680761       -4.88581160166448        0.99129551833049
C           27.70867100342465       -5.85160847485318        0.23790524025335
C           27.65420631829097       -7.18137353583166        0.63566577921632
N           26.98554912030054       -7.56958260950199        1.72476426153665
C           26.34615509003608       -6.65758263612969        2.46177667463751
C           26.34533232350460       -5.30965190225983        2.12919939479304
C           28.25049881544547       -2.78629016962686        0.60295431793494
C           29.54695137894556       -3.32227337930222        0.95545769682034
C           30.44124828806943       -2.33191360190146        0.75485134007270
C           29.70794010374382       -1.17708848136711        0.28616601338128
N           28.40808082813117       -1.45432522782450        0.21099989240900
H           31.38502834052352        0.10359384812296       -0.06163495017974
H           31.35478120772203        2.63754142810283       -0.74112601830656
H           29.51003510072293        4.43480666750351       -1.06516158225751
H           26.47799991039241        5.42068996775626        1.11207489466351
H           26.43180584206690        7.84346663583680        0.57461863495390
H           27.09004554526873        7.07040886599080       -3.46778093328791
H           27.15266344336509        4.62334984631432       -3.05653724208307
H           24.11376583201581        4.48139372891088       -0.39541834272365
H           22.29865851666638        2.65543389946231       -0.02112461910261
H           22.60955578761263       -2.67970071656824       -0.47396660954391
H           24.54495802678620       -4.53394165636745       -0.14428056142750
H           28.25182564927194       -5.56961385517533       -0.65869565362377
H           28.16508974962654       -7.94440336583309        0.04685600962779
H           25.80640352715600       -6.99673248856468        3.34670401168233
H           25.82154133697115       -4.59048572347957        2.75079005696253
H           29.77566303360360       -4.31339326265612        1.31991605911611
H           31.50159733204716       -2.39144504583118        0.92697272080301
C           19.70156458437527       -0.00096843708666        0.00899886706361
C           18.48681230433893       -0.01001327700831        0.00365134162022
C           17.17408211995753        0.00748848264674       -0.01259599957258
C           15.95898812631103        0.04536018157703       -0.01852122209777
C           21.01507820124645       -0.01970176436985        0.01902679677362
C           22.23054687088251       -0.03904381441185       -0.00706794963850
114
 energy: -197.490361748027 gnorm: 0.050971336941 xtb: 6.5.1 (b24c23e)
Zn          11.24374280884932        0.00309677579953       -0.00459901832152
C            7.88294252780987       -0.06113150022263       -0.03014218061085
C            8.54846832257689       -1.27500139000403        0.02536645272570
C            7.89167929392376       -2.55415810712749        0.08407606068201
C            8.85736906680946       -3.49590125525981        0.19157820026778
C           10.12343400051864       -2.80994985858364        0.19981557742633
N            9.89639035857287       -1.46702108474355        0.09300085322828
C           11.35694711100131       -3.43254912815280        0.36446171893200
C           11.37160610801002       -4.90571593186317        0.51373220013652
C           11.57929244518307       -5.49170888428732        1.75764130196549
C           11.59854771203554       -6.87361013470115        1.84701231932497
N           11.43226601723774       -7.66667849252981        0.79514707492422
C           11.23572313207438       -7.11001053344267       -0.39437650102105
C           11.19458438912783       -5.73869922086752       -0.58632606843788
C           12.58691173201967       -2.78724285448031        0.42024269133057
C           13.86711605025889       -3.38838759285214        0.68557089857028
C           14.79866352185506       -2.40122984762497        0.59829000951490
N           12.74905853404917       -1.46589498876474        0.18886990029443
C           14.07175008574467       -1.20679375630905        0.27276411204393
C           14.59179129206502        0.05163628921942       -0.02257563728584
C           13.91635958733669        1.23611751279449       -0.36465075629956
C           14.53992214235250        2.37430547561587       -0.93419118660628
C           13.57413799592568        3.32866452877401       -1.03779320403672
C           12.37101609336898        2.77325718755714       -0.52950242218840
N           12.59880959387786        1.47452339463280       -0.15767114033547
C           11.14937582995148        3.46403019586775       -0.41278419179850
C           11.16609606804431        4.94912450914067       -0.47932814428909
C           10.48716418636246        5.66009552109637       -1.47008982045614
C           10.54345002357308        7.04604465364569       -1.46781409983160
N           11.20435633636220        7.74259302712129       -0.55077513989598
C           11.83806777342331        7.07672656147473        0.40711099048986
C           11.84996033623791        5.69233188862153        0.48320359971760
C            9.93098023448583        2.83169854671413       -0.22411625167635
C            8.64295534943906        3.44832397609619       -0.05333226679256
C            7.73339417317301        2.44506074766156        0.03879769824580
C            8.45584943314073        1.20572702955893       -0.06430171654351
N            9.77394329836586        1.46425025036604       -0.20361172029435
H            6.79983792849077       -0.10903047001055       -0.02147645686540