      -----------------------------------------------------------      
     |                   =====================                   |     
     |                           x T B                           |     
     |                   =====================                   |     
     |                         S. Grimme                         |     
     |          Mulliken Center for Theoretical Chemistry        |     
     |                    University of Bonn                     |     
      -----------------------------------------------------------      

   * xtb version 6.5.1 (b24c23e) compiled by 'conda@728c89f4b128' on 2022-07-12

   xtb is free software: you can redistribute it and/or modify it under
   the terms of the GNU Lesser General Public License as published by
   the Free Software Foundation, either version 3 of the License, or
   (at your option) any later version.
   
   xtb is distributed in the hope that it will be useful,
   but WITHOUT ANY WARRANTY; without even the implied warranty of
   MERCHANTABILITY or FITNESS FOR A PARTICULAR PURPOSE.  See the
   GNU Lesser General Public License for more details.
   
   Cite this work as:
   * C. Bannwarth, E. Caldeweyher, S. Ehlert, A. Hansen, P. Pracht,
     J. Seibert, S. Spicher, S. Grimme, WIREs Comput. Mol. Sci., 2020, 11,
     e01493. DOI: 10.1002/wcms.1493
   
   for GFN2-xTB:
   * C. Bannwarth, S. Ehlert and S. Grimme., J. Chem. Theory Comput., 2019,
     15, 1652-1671. DOI: 10.1021/acs.jctc.8b01176
   for GFN1-xTB:
   * S. Grimme, C. Bannwarth, P. Shushkov, J. Chem. Theory Comput., 2017,
     13, 1989-2009. DOI: 10.1021/acs.jctc.7b00118
   for GFN0-xTB:
   * P. Pracht, E. Caldeweyher, S. Ehlert, S. Grimme, ChemRxiv, 2019, preprint.
     DOI: 10.26434/chemrxiv.8326202.v1
   for GFN-FF:
   * S. Spicher and S. Grimme, Angew. Chem. Int. Ed., 2020, 59, 15665-15673.
     DOI: 10.1002/anie.202004239
   
   for ALPB and GBSA implicit solvation:
   * S. Ehlert, M. Stahn, S. Spicher, S. Grimme, J. Chem. Theory Comput.,
     2021, 17, 4250-4261. DOI: 10.1021/acs.jctc.1c00471
   
   for DFT-D4:
   * E. Caldeweyher, C. Bannwarth and S. Grimme, J. Chem. Phys., 2017,
     147, 034112. DOI: 10.1063/1.4993215
   * E. Caldeweyher, S. Ehlert, A. Hansen, H. Neugebauer, S. Spicher,
     C. Bannwarth and S. Grimme, J. Chem. Phys., 2019, 150, 154122.
     DOI: 10.1063/1.5090222
   * E. Caldeweyher, J.-M. Mewes, S. Ehlert and S. Grimme, Phys. Chem. Chem. Phys.
     2020, 22, 8499-8512. DOI: 10.1039/D0CP00502A
   
   for sTDA-xTB:
   * S. Grimme and C. Bannwarth, J. Chem. Phys., 2016, 145, 054103.
     DOI: 10.1063/1.4959605
   
   in the mass-spec context:
   * V. Asgeirsson, C. Bauer and S. Grimme, Chem. Sci., 2017, 8, 4879.
     DOI: 10.1039/c7sc00601b
   * J. Koopman and S. Grimme, ACS Omega 2019, 4, 12, 15120-15133.
     DOI: 10.1021/acsomega.9b02011
   
   for metadynamics refer to:
   * S. Grimme, J. Chem. Theory Comput., 2019, 155, 2847-2862
     DOI: 10.1021/acs.jctc.9b00143
   
   for SPH calculations refer to:
   * S. Spicher and S. Grimme, J. Chem. Theory Comput., 2021, 17, 1701-1714
     DOI: 10.1021/acs.jctc.0c01306
   
   with help from (in alphabetical order)
   P. Atkinson, C. Bannwarth, F. Bohle, G. Brandenburg, E. Caldeweyher
   M. Checinski, S. Dohm, S. Ehlert, S. Ehrlich, I. Gerasimov, C. Hölzer
   A. Katbashev, J. Koopman, C. Lavigne, S. Lehtola, F. März, M. Müller,
   F. Musil, H. Neugebauer, J. Pisarek, C. Plett, P. Pracht, F. Pultar,
   J. Seibert, P. Shushkov, S. Spicher, M. Stahn, M. Steiner, T. Strunk,
   J. Stückrath, T. Rose, and J. Unsleber
   
 * started run on 2022/07/29 at 22:54:42.126     

           -------------------------------------------------
          |                Calculation Setup                |
           -------------------------------------------------

          program call               : xtb xtbopt.xyz --gfn 1 --vipea
          hostname                   : cx3-15-15.cx3.hpc.ic.ac.uk
          coordinate file            : xtbopt.xyz
          omp threads                :                     1

   ID    Z sym.   atoms
    1   27 Co     1, 61, 139, 198
    2    6 C      2-6, 8-13, 15-19, 21-26, 28-33, 35-40, 62-66, 68-73, 75-79,
                  81-86, 88-93, 95-100, 121-138, 140-144, 146-151, 153-157,
                  159-164, 166-171, 173-178, 199-203, 205-210, 212-216,
                  218-223, 225-230, 232-237
    3    7 N      7, 20, 27, 41, 67, 80, 87, 101, 145, 158, 165, 179, 204,
                  217, 224, 238
    4    8 O      14, 34, 74, 94, 152, 172, 211, 231
    5    1 H      42-60, 102-120, 180-197, 239-256

           -------------------------------------------------
          |                 I P E A - x T B                 |
           -------------------------------------------------

        Reference                      10.1039/c7sc00601b
      * Hamiltonian:
        H0-scaling (s, p, d)           2.150000    2.300000    2.000000
        zeta-weighting                 0.000000
      * Dispersion:
        s8                             2.400000
        a1                             0.630000
        a2                             5.000000
        s9                             0.000000
      * Repulsion:
        kExp                           1.500000
        rExp                           1.000000
      * Coulomb:
        alpha                          1.000000
        third order                    atomic
        anisotropic                    false
      * Halogen bond correction:
        rad-scale                      1.300000
        damping                        0.440000


          ...................................................
          :                      SETUP                      :
          :.................................................:
          :  # basis functions                1078          :
          :  # atomic orbitals                1074          :
          :  # shells                          694          :
          :  # electrons                       854          :
          :  # halogen bonds                     0          :
          :  max. iterations                   250          :
          :  Hamiltonian                  GFN1-xTB          :
          :  restarted?                      false          :
          :  GBSA solvation                  false          :
          :  PC potential                    false          :
          :  electronic temp.          300.0000000     K    :
          :  accuracy                    1.0000000          :
          :  -> integral cutoff          0.2500000E+02      :
          :  -> integral neglect         0.1000000E-07      :
          :  -> SCF convergence          0.1000000E-05 Eh   :
          :  -> wf. convergence          0.2000000E-04 e    :
          :  Broyden damping             0.4000000          :
          ...................................................

 iter      E             dE          RMSdq      gap      omega  full diag
   1   -531.7479106 -0.531748E+03  0.106E+01    0.18       0.0  T
   2   -512.3827933  0.193651E+02  0.953E+00    0.00       1.0  T
   3   -512.0855061  0.297287E+00  0.707E+00    0.25       1.0  T
   4   -293.5830538  0.218502E+03  0.824E+00    0.04       1.0  T
   5    506.1323059  0.799715E+03  0.138E+01    0.08       1.0  T
   6   -461.6652368 -0.967798E+03  0.690E+00    0.07       1.0  T
   7   -528.6245829 -0.669593E+02  0.388E+00    0.13       1.0  T
   8   -532.5910767 -0.396649E+01  0.286E+00    0.04       1.0  T
   9   -533.1160912 -0.525015E+00  0.244E+00    0.12       1.0  T
  10   -533.1412621 -0.251709E-01  0.224E+00    0.01       1.0  T
  11   -533.4173116 -0.276050E+00  0.180E+00    0.13       1.0  T
  12   -532.4784957  0.938816E+00  0.235E+00    0.00       1.0  T
  13   -531.7488880  0.729608E+00  0.249E+00    0.00       1.0  T
  14   -532.8424711 -0.109358E+01  0.196E+00    0.00       1.0  T
  15   -526.2405565  0.660191E+01  0.385E+00    0.00       1.0  T
  16   -529.8433738 -0.360282E+01  0.302E+00    0.01       1.0  T
  17   -523.8701362  0.597324E+01  0.431E+00    0.16       1.0  T
  18   -527.8349197 -0.396478E+01  0.339E+00    0.01       1.0  T
  19   -533.0211472 -0.518623E+01  0.193E+00    0.03       1.0  T
  20   -534.0935221 -0.107237E+01  0.114E+00    0.13       1.0  T
  21   -534.4576901 -0.364168E+00  0.649E-01    0.01       1.0  T
  22   -534.1350081  0.322682E+00  0.108E+00    0.02       1.0  T
  23   -533.8706164  0.264392E+00  0.138E+00    0.06       1.0  T
  24   -534.0623334 -0.191717E+00  0.112E+00    0.14       1.0  T
  25   -533.8407024  0.221631E+00  0.139E+00    0.05       1.0  T
  26   -534.0667293 -0.226027E+00  0.112E+00    0.16       1.0  T
  27   -534.3199243 -0.253195E+00  0.892E-01    0.01       1.0  T
  28   -534.3611232 -0.411988E-01  0.817E-01    0.03       1.0  T
  29   -534.2501376  0.110986E+00  0.978E-01    0.07       1.0  T
  30   -534.4976773 -0.247540E+00  0.503E-01    0.01       1.0  T
  31   -534.4677586  0.299187E-01  0.602E-01    0.00       1.0  T
  32   -534.5587823 -0.910237E-01  0.360E-01    0.00       1.0  T
  33   -534.4956932  0.630890E-01  0.535E-01    0.00       1.0  T
  34   -534.5874439 -0.917506E-01  0.203E-01    0.00       1.0  T
  35   -534.5828400  0.460391E-02  0.223E-01    0.00       1.0  T
  36   -534.5944602 -0.116202E-01  0.122E-01    0.01       1.0  T
  37   -534.5972485 -0.278838E-02  0.694E-02    0.00       1.0  T
  38   -534.5964930  0.755545E-03  0.853E-02    0.00       1.0  T
  39   -534.5985943 -0.210134E-02  0.511E-02    0.00       1.0  T
  40   -534.5980280  0.566317E-03  0.638E-02    0.00       1.0  T
  41   -534.5992142 -0.118623E-02  0.314E-02    0.00       1.0  T
  42   -534.5987874  0.426863E-03  0.451E-02    0.00       1.0  T
  43   -534.5992892 -0.501861E-03  0.270E-02    0.00       1.0  T
  44   -534.5994825 -0.193227E-03  0.146E-02    0.00       1.0  T
  45   -534.5994568  0.256558E-04  0.164E-02    0.00       1.0  T
  46   -534.5995273 -0.704717E-04  0.860E-03    0.00       1.0  T
  47   -534.5995504 -0.231243E-04  0.205E-03    0.00       3.0  T
  48   -534.5995505 -0.758455E-07  0.231E-03    0.00       2.7  T
  49   -534.5995512 -0.747071E-06  0.154E-03    0.00       4.1  T
  50   -534.5995501  0.118636E-05  0.234E-03    0.00       2.7  T
  51   -534.5995515 -0.148905E-05  0.135E-03    0.00       4.6  T
  52   -534.5995521 -0.526411E-06  0.751E-04    0.00       8.3  T
  53   -534.5995521 -0.456043E-08  0.714E-04    0.00       8.8  T
  54   -534.5995522 -0.139342E-06  0.366E-04    0.00      17.1  T
  55   -534.5995523 -0.435198E-07  0.139E-04    0.00      44.9  T
  56   -534.5995523 -0.621264E-08  0.686E-05    0.00      91.1  T

   *** convergence criteria satisfied after 56 iterations ***

         #    Occupation            Energy/Eh            Energy/eV
      -------------------------------------------------------------
         1        2.0000           -1.0343336             -28.1457
       ...           ...                  ...                  ...
       421        1.9998           -0.3709202             -10.0933
       422        1.9998           -0.3709045             -10.0928
       423        1.9998           -0.3708998             -10.0927
       424        1.9998           -0.3707810             -10.0895
       425        1.9998           -0.3706974             -10.0872
       426        1.0395           -0.3621084              -9.8535
       427        1.0092           -0.3620508              -9.8519 (HOMO)
       428        0.9826           -0.3620002              -9.8505 (LUMO)
       429        0.9703           -0.3619768              -9.8499
       430                         -0.3272083              -8.9038
       431                         -0.3202513              -8.7145
       432                         -0.3124234              -8.5015
       ...                                ...                  ...
      1074                        528.1710187           14372.2650
      -------------------------------------------------------------
                  HL-Gap            0.0000506 Eh            0.0014 eV
             Fermi-level           -0.3620333 Eh           -9.8514 eV

 SCC (total)                   0 d,  0 h,  0 min, 30.080 sec
 SCC setup                      ...        0 min,  0.010 sec (  0.032%)
 Dispersion                     ...        0 min,  0.013 sec (  0.043%)
 classical contributions        ...        0 min,  0.004 sec (  0.013%)
 integral evaluation            ...        0 min,  0.842 sec (  2.798%)
 iterations                     ...        0 min, 27.410 sec ( 91.124%)
 molecular gradient             ...        0 min,  1.686 sec (  5.604%)
 printout                       ...        0 min,  0.116 sec (  0.387%)

         :::::::::::::::::::::::::::::::::::::::::::::::::::::
         ::                     SUMMARY                     ::
         :::::::::::::::::::::::::::::::::::::::::::::::::::::
         :: total energy            -524.138907658547 Eh    ::
         :: gradient norm              0.094009923949 Eh/a0 ::
         :: HOMO-LUMO gap              0.001376146944 eV    ::
         ::.................................................::
         :: SCC energy              -534.599552260702 Eh    ::
         :: -> electrostatic           0.360380101476 Eh    ::
         :: repulsion energy          10.690817151574 Eh    ::
         :: dispersion energy         -0.230172549420 Eh    ::
         :: halogen bond corr.         0.000000000000 Eh    ::
         :: add. restraining           0.000000000000 Eh    ::
         :: total charge              -0.000000000000 e     ::
         :::::::::::::::::::::::::::::::::::::::::::::::::::::

           ------------------------------------------------- 
          |        vertical delta SCC IP calculation        |
           ------------------------------------------------- 
   1   -534.1919370 -0.534192E+03  0.276E-01    0.00       0.0  T
   2   -534.0315988  0.160338E+00  0.734E-01    0.00       1.0  T
   3   -533.2039370  0.827662E+00  0.155E+00    0.19       1.0  T
   4   -533.9579623 -0.754025E+00  0.777E-01    0.02       1.0  T
   5   -533.9776270 -0.196646E-01  0.730E-01    0.05       1.0  T
   6   -533.9637860  0.138410E-01  0.749E-01    0.03       1.0  T
   7   -534.0712816 -0.107496E+00  0.570E-01    0.04       1.0  T
   8   -534.1557416 -0.844600E-01  0.346E-01    0.03       1.0  T
   9   -534.2058263 -0.500847E-01  0.965E-02    0.00       1.0  T
  10   -534.2050327  0.793596E-03  0.107E-01    0.01       1.0  T
  11   -534.1930902  0.119425E-01  0.193E-01    0.02       1.0  T
  12   -534.2017564 -0.866622E-02  0.134E-01    0.01       1.0  T
  13   -534.2061245 -0.436814E-02  0.893E-02    0.01       1.0  T
  14   -534.2095679 -0.344337E-02  0.178E-02    0.00       1.0  T
  15   -534.2096853 -0.117352E-03  0.658E-03    0.00       1.0  T
  16   -534.2096806  0.465466E-05  0.730E-03    0.00       1.0  T
  17   -534.2096993 -0.186677E-04  0.341E-03    0.00       1.8  T
  18   -534.2097026 -0.332800E-05  0.208E-03    0.00       3.0  T
  19   -534.2097039 -0.131434E-05  0.122E-03    0.00       5.1  T
  20   -534.2097044 -0.520128E-06  0.562E-04    0.00      11.1  T
  21   -534.2097045 -0.664055E-07  0.406E-04    0.00      15.4  T
  22   -534.2097046 -0.645906E-07  0.139E-04    0.00      45.1  T
  23   -534.2097046 -0.824809E-08  0.248E-05    0.00     252.2  T
     SCC iter.                  ...        0 min, 11.233 sec
     gradient                   ...        0 min,  1.687 sec
------------------------------------------------------------------------
empirical IP shift (eV):    4.8455
delta SCC IP (eV):    5.7628
------------------------------------------------------------------------
           ------------------------------------------------- 
          |        vertical delta SCC EA calculation        |
           ------------------------------------------------- 
   1   -534.8706266 -0.534871E+03  0.536E-01    0.00       0.0  T
   2   -534.6863029  0.184324E+00  0.781E-01    0.01       1.0  T
   3   -533.8608948  0.825408E+00  0.161E+00    0.10       1.0  T
   4   -534.7464829 -0.885588E+00  0.684E-01    0.05       1.0  T
   5   -534.7072661  0.392168E-01  0.731E-01    0.10       1.0  T
   6   -534.7076950 -0.428908E-03  0.759E-01    0.06       1.0  T
   7   -534.7367610 -0.290660E-01  0.690E-01    0.03       1.0  T
   8   -534.6990627  0.376983E-01  0.757E-01    0.00       1.0  T
   9   -534.9308282 -0.231765E+00  0.937E-02    0.00       1.0  T
  10   -534.9307798  0.484482E-04  0.919E-02    0.00       1.0  T
  11   -534.9162910  0.144887E-01  0.207E-01    0.00       1.0  T
  12   -534.9119037  0.438736E-02  0.231E-01    0.00       1.0  T
  13   -534.9322554 -0.203518E-01  0.709E-02    0.00       1.0  T
  14   -534.9334561 -0.120070E-02  0.466E-02    0.00       1.0  T
  15   -534.9342986 -0.842517E-03  0.130E-02    0.00       1.0  T
  16   -534.9343627 -0.640383E-04  0.385E-03    0.00       1.6  T
  17   -534.9343449  0.178088E-04  0.758E-03    0.00       1.0  T
  18   -534.9343633 -0.183995E-04  0.368E-03    0.00       1.7  T
  19   -534.9343688 -0.555051E-05  0.512E-04    0.00      12.2  T
  20   -534.9343687  0.108864E-06  0.725E-04    0.00       8.6  T
  21   -534.9343689 -0.219287E-06  0.248E-05    0.00     252.4  T
  22   -534.9343689  0.555281E-08  0.118E-04    0.00      53.1  T
     SCC iter.                  ...        0 min, 10.694 sec
     gradient                   ...        0 min,  1.685 sec
------------------------------------------------------------------------
empirical EA shift (eV):    4.8455
delta SCC EA (eV):    4.2653
------------------------------------------------------------------------
           -------------------------------------------------
          |                Property Printout                |
           -------------------------------------------------

    * Orbital Energies and Occupations

         #    Occupation            Energy/Eh            Energy/eV
      -------------------------------------------------------------
         1        2.0000           -0.9899967             -26.9392
       ...           ...                  ...                  ...
       416        2.0000           -0.3189077              -8.6779
       417        2.0000           -0.3189039              -8.6778
       418        1.9999           -0.3186930              -8.6721
       419        1.9999           -0.3186921              -8.6721
       420        1.9999           -0.3186428              -8.6707
       421        1.9999           -0.3184342              -8.6650
       422        1.9999           -0.3183643              -8.6631
       423        1.9999           -0.3183349              -8.6623
       424        1.9999           -0.3183224              -8.6620
       425        1.9999           -0.3183011              -8.6614
       426        1.2741           -0.3090805              -8.4105
       427        1.2615           -0.3090528              -8.4098
       428        1.2423           -0.3090111              -8.4086 (HOMO)
       429        1.2228           -0.3089690              -8.4075 (LUMO)
       430                         -0.2839654              -7.7271
       431                         -0.2775695              -7.5531
       432                         -0.2710568              -7.3758
       433                         -0.2709767              -7.3737
       434                         -0.2702556              -7.3540
       435                         -0.2702420              -7.3537
       436                         -0.2701046              -7.3499
       437                         -0.2647449              -7.2041
       438                         -0.2573759              -7.0036
       439                         -0.2572671              -7.0006
       ...                                ...                  ...
      1074                        528.2125614           14373.3954
      -------------------------------------------------------------
                  HL-Gap            0.0000420 Eh            0.0011 eV
             Fermi-level           -0.3085059 Eh           -8.3949 eV

  Mulliken/CM5 charges         n(s)   n(p)   n(d)
     1Co    0.31808  0.72167   0.325  0.982  7.375
     2C    -0.02009 -0.06139   1.086  2.934  0.000
     3C     0.05573  0.11614   1.111  2.834  0.000
     4C    -0.03916 -0.08566   1.086  2.953  0.000
     5C    -0.03820 -0.08420   1.078  2.961  0.000
     6C     0.05793  0.12202   1.105  2.837  0.000
     7N    -0.21503 -0.47494   1.317  3.898  0.000
     8C     0.00909  0.01450   1.084  2.907  0.000
     9C     0.01757  0.00876   1.096  2.887  0.000
    10C    -0.01783 -0.07108   1.081  2.937  0.000
    11C    -0.01085 -0.06264   1.092  2.918  0.000
    12C    -0.00899 -0.01745   1.098  2.911  0.000
    13C     0.14465  0.13450   1.202  2.654  0.000
    14O    -0.30026 -0.35572   1.651  4.649  0.000
    15C    -0.01659 -0.06971   1.086  2.931  0.000
    16C    -0.01900 -0.07233   1.078  2.941  0.000
    17C     0.05730  0.12048   1.103  2.839  0.000
    18C    -0.03666 -0.08267   1.077  2.959  0.000
    19C    -0.03697 -0.08255   1.084  2.953  0.000
    20N    -0.21316 -0.47259   1.318  3.895  0.000
    21C     0.06160  0.12688   1.116  2.823  0.000
    22C     0.01881  0.02580   1.080  2.902  0.000
    23C     0.06152  0.12666   1.116  2.823  0.000
    24C    -0.03662 -0.08222   1.083  2.954  0.000
    25C    -0.03633 -0.08248   1.077  2.959  0.000
    26C     0.05749  0.12077   1.104  2.839  0.000
    27N    -0.21308 -0.47275   1.318  3.895  0.000
    28C     0.00808  0.01346   1.083  2.909  0.000
    29C     0.01702  0.00827   1.095  2.888  0.000
    30C    -0.01881 -0.07211   1.078  2.941  0.000
    31C    -0.01685 -0.06996   1.086  2.931  0.000
    32C    -0.00867 -0.01713   1.099  2.910  0.000
    33C     0.14467  0.13452   1.202  2.654  0.000
    34O    -0.29981 -0.35527   1.651  4.648  0.000
    35C    -0.01066 -0.06245   1.092  2.918  0.000
    36C    -0.01715 -0.07033   1.081  2.936  0.000
    37C     0.05810  0.12213   1.106  2.836  0.000
    38C    -0.03786 -0.08403   1.078  2.960  0.000
    39C    -0.03899 -0.08550   1.085  2.954  0.000
    40C     0.05581  0.11625   1.110  2.834  0.000
    41N    -0.21500 -0.47491   1.317  3.898  0.000
    42H     0.02696  0.08591   0.973  0.000  0.000
    43H     0.02911  0.08575   0.971  0.000  0.000
    44H     0.02164  0.08052   0.978  0.000  0.000
    45H     0.02731  0.08500   0.973  0.000  0.000
    46H     0.03908  0.09929   0.961  0.000  0.000
    47H     0.03844  0.10016   0.962  0.000  0.000
    48H     0.04110  0.09777   0.959  0.000  0.000
    49H     0.02599  0.08369   0.974  0.000  0.000
    50H     0.02358  0.08254   0.976  0.000  0.000
    51H     0.02637  0.08449   0.974  0.000  0.000
    52H     0.02661  0.08469   0.973  0.000  0.000
    53H     0.02287  0.08173   0.977  0.000  0.000
    54H     0.02608  0.08408   0.974  0.000  0.000
    55H     0.04084  0.09751   0.959  0.000  0.000
    56H     0.03825  0.09997   0.962  0.000  0.000
    57H     0.03965  0.09986   0.960  0.000  0.000
    58H     0.02786  0.08586   0.972  0.000  0.000
    59H     0.02091  0.07971   0.979  0.000  0.000
    60H     0.02922  0.08585   0.971  0.000  0.000
    61Co    0.31734  0.71883   0.325  0.981  7.376
    62C    -0.02006 -0.06138   1.086  2.934  0.000
    63C     0.05583  0.11623   1.111  2.833  0.000
    64C    -0.03911 -0.08563   1.086  2.953  0.000
    65C    -0.03819 -0.08421   1.078  2.961  0.000
    66C     0.05804  0.12211   1.105  2.837  0.000
    67N    -0.21519 -0.47440   1.317  3.898  0.000
    68C     0.00901  0.01440   1.083  2.908  0.000
    69C     0.01757  0.00874   1.096  2.886  0.000
    70C    -0.01782 -0.07107   1.081  2.937  0.000
    71C    -0.01085 -0.06264   1.092  2.918  0.000
    72C    -0.00900 -0.01746   1.098  2.911  0.000
    73C     0.14461  0.13445   1.202  2.654  0.000
    74O    -0.30034 -0.35579   1.651  4.649  0.000
    75C    -0.01660 -0.06973   1.086  2.931  0.000
    76C    -0.01897 -0.07233   1.078  2.941  0.000
    77C     0.05745  0.12065   1.103  2.839  0.000
    78C    -0.03669 -0.08270   1.077  2.960  0.000
    79C    -0.03693 -0.08252   1.084  2.953  0.000
    80N    -0.21328 -0.47219   1.318  3.895  0.000
    81C     0.06157  0.12676   1.116  2.823  0.000
    82C     0.01892  0.02587   1.080  2.902  0.000
    83C     0.06150  0.12653   1.116  2.823  0.000
    84C    -0.03658 -0.08219   1.083  2.954  0.000
    85C    -0.03635 -0.08248   1.077  2.959  0.000
    86C     0.05765  0.12098   1.104  2.839  0.000
    87N    -0.21321 -0.47224   1.318  3.895  0.000
    88C     0.00813  0.01349   1.083  2.909  0.000
    89C     0.01704  0.00826   1.095  2.888  0.000
    90C    -0.01882 -0.07213   1.078  2.941  0.000
    91C    -0.01685 -0.06997   1.086  2.931  0.000
    92C    -0.00866 -0.01711   1.099  2.910  0.000
    93C     0.14469  0.13454   1.202  2.654  0.000
    94O    -0.29969 -0.35514   1.651  4.648  0.000
    95C    -0.01061 -0.06239   1.092  2.918  0.000
    96C    -0.01715 -0.07034   1.081  2.936  0.000
    97C     0.05818  0.12215   1.106  2.836  0.000
    98C    -0.03780 -0.08398   1.078  2.960  0.000
    99C    -0.03895 -0.08547   1.085  2.954  0.000
   100C     0.05594  0.11640   1.110  2.834  0.000
   101N    -0.21512 -0.47445   1.317  3.898  0.000
   102H     0.02693  0.08590   0.973  0.000  0.000
   103H     0.02915  0.08579   0.971  0.000  0.000
   104H     0.02164  0.08054   0.978  0.000  0.000
   105H     0.02735  0.08504   0.973  0.000  0.000
   106H     0.03908  0.09928   0.961  0.000  0.000
   107H     0.03838  0.10010   0.962  0.000  0.000
   108H     0.04109  0.09776   0.959  0.000  0.000
   109H     0.02599  0.08370   0.974  0.000  0.000
   110H     0.02354  0.08254   0.976  0.000  0.000
   111H     0.02634  0.08448   0.974  0.000  0.000
   112H     0.02655  0.08466   0.973  0.000  0.000
   113H     0.02293  0.08182   0.977  0.000  0.000
   114H     0.02605  0.08404   0.974  0.000  0.000
   115H     0.04082  0.09749   0.959  0.000  0.000
   116H     0.03822  0.09994   0.962  0.000  0.000
   117H     0.03977  0.09997   0.960  0.000  0.000
   118H     0.02794  0.08590   0.972  0.000  0.000
   119H     0.02100  0.07982   0.979  0.000  0.000
   120H     0.02928  0.08591   0.971  0.000  0.000
   121C    -0.01401 -0.01409   1.077  2.937  0.000
   122C    -0.01427 -0.01436   1.077  2.938  0.000
   123C    -0.01891 -0.01961   1.065  2.954  0.000
   124C    -0.01490 -0.01652   1.093  2.921  0.000
   125C    -0.01887 -0.01953   1.065  2.954  0.000
   126C    -0.01440 -0.01590   1.094  2.921  0.000
   127C    -0.01385 -0.01393   1.077  2.937  0.000
   128C    -0.01384 -0.01392   1.077  2.937  0.000
   129C    -0.01860 -0.01925   1.065  2.954  0.000
   130C    -0.01436 -0.01587   1.093  2.921  0.000
   131C    -0.01859 -0.01925   1.065  2.954  0.000
   132C    -0.01438 -0.01591   1.093  2.921  0.000
   133C    -0.01405 -0.01414   1.077  2.937  0.000
   134C    -0.01376 -0.01385   1.077  2.937  0.000
   135C    -0.01873 -0.01938   1.065  2.954  0.000
   136C    -0.01418 -0.01571   1.094  2.920  0.000
   137C    -0.01873 -0.01944   1.065  2.954  0.000
   138C    -0.01471 -0.01636   1.094  2.921  0.000
   139Co    0.32724  0.73546   0.323  0.979  7.371
   140C     0.01896  0.02607   1.080  2.901  0.000
   141C     0.06131  0.12656   1.116  2.823  0.000
   142C    -0.03717 -0.08273   1.083  2.954  0.000
   143C    -0.03650 -0.08265   1.078  2.959  0.000
   144C     0.05720  0.12057   1.103  2.839  0.000
   145N    -0.21245 -0.47380   1.317  3.896  0.000
   146C     0.01031  0.01573   1.084  2.905  0.000
   147C     0.01705  0.00837   1.094  2.889  0.000
   148C    -0.01703 -0.07023   1.081  2.936  0.000
   149C    -0.01069 -0.06247   1.092  2.919  0.000
   150C    -0.00834 -0.01679   1.099  2.909  0.000
   151C     0.14491  0.13477   1.202  2.653  0.000
   152O    -0.29964 -0.35513   1.651  4.648  0.000
   153C    -0.01632 -0.06943   1.086  2.931  0.000
   154C    -0.01820 -0.07145   1.078  2.940  0.000
   155C     0.05734  0.12058   1.104  2.839  0.000
   156C    -0.03595 -0.08214   1.078  2.958  0.000
   157C    -0.03676 -0.08234   1.083  2.954  0.000
   158N    -0.21242 -0.47336   1.317  3.896  0.000
   159C     0.06164  0.12698   1.116  2.822  0.000
   160C     0.01903  0.02614   1.080  2.901  0.000
   161C     0.06149  0.12678   1.116  2.823  0.000
   162C    -0.03695 -0.08252   1.083  2.954  0.000
   163C    -0.03629 -0.08244   1.078  2.959  0.000
   164C     0.05727  0.12060   1.103  2.839  0.000
   165N    -0.21238 -0.47372   1.317  3.895  0.000
   166C     0.01040  0.01582   1.085  2.905  0.000
   167C     0.01703  0.00835   1.094  2.889  0.000
   168C    -0.01813 -0.07139   1.078  2.940  0.000
   169C    -0.01619 -0.06931   1.086  2.931  0.000
   170C    -0.00824 -0.01669   1.099  2.909  0.000
   171C     0.14502  0.13488   1.202  2.653  0.000
   172O    -0.29959 -0.35508   1.651  4.648  0.000
   173C    -0.01068 -0.06245   1.092  2.919  0.000
   174C    -0.01706 -0.07025   1.080  2.937  0.000
   175C     0.05737  0.12066   1.104  2.839  0.000
   176C    -0.03590 -0.08207   1.078  2.958  0.000
   177C    -0.03679 -0.08237   1.083  2.954  0.000
   178C     0.06154  0.12683   1.116  2.822  0.000
   179N    -0.21244 -0.47340   1.317  3.896  0.000
   180H     0.02600  0.08399   0.974  0.000  0.000
   181H     0.02216  0.08090   0.978  0.000  0.000
   182H     0.02798  0.08605   0.972  0.000  0.000
   183H     0.03966  0.09988   0.960  0.000  0.000
   184H     0.03893  0.10065   0.961  0.000  0.000
   185H     0.04184  0.09851   0.958  0.000  0.000
   186H     0.02683  0.08487   0.973  0.000  0.000
   187H     0.02263  0.08143   0.977  0.000  0.000
   188H     0.02642  0.08443   0.974  0.000  0.000
   189H     0.02640  0.08439   0.974  0.000  0.000
   190H     0.02248  0.08124   0.978  0.000  0.000
   191H     0.02691  0.08495   0.973  0.000  0.000
   192H     0.04205  0.09872   0.958  0.000  0.000
   193H     0.03912  0.10085   0.961  0.000  0.000
   194H     0.03956  0.09979   0.960  0.000  0.000
   195H     0.02784  0.08591   0.972  0.000  0.000
   196H     0.02274  0.08151   0.977  0.000  0.000
   197H     0.02641  0.08441   0.974  0.000  0.000
   198Co    0.32669  0.73340   0.323  0.978  7.372
   199C     0.01904  0.02613   1.080  2.901  0.000
   200C     0.06156  0.12684   1.116  2.822  0.000
   201C    -0.03690 -0.08247   1.083  2.954  0.000
   202C    -0.03625 -0.08239   1.078  2.959  0.000
   203C     0.05737  0.12070   1.103  2.839  0.000
   204N    -0.21242 -0.47336   1.317  3.896  0.000
   205C     0.01039  0.01580   1.084  2.905  0.000
   206C     0.01705  0.00834   1.094  2.889  0.000
   207C    -0.01703 -0.07023   1.080  2.937  0.000
   208C    -0.01062 -0.06240   1.092  2.918  0.000
   209C    -0.00822 -0.01667   1.099  2.909  0.000
   210C     0.14504  0.13491   1.202  2.653  0.000
   211O    -0.29946 -0.35496   1.651  4.648  0.000
   212C    -0.01620 -0.06932   1.086  2.931  0.000
   213C    -0.01818 -0.07143   1.078  2.940  0.000
   214C     0.05748  0.12080   1.104  2.839  0.000
   215C    -0.03591 -0.08209   1.078  2.958  0.000
   216C    -0.03675 -0.08233   1.083  2.954  0.000
   217N    -0.21256 -0.47310   1.317  3.896  0.000
   218C     0.06152  0.12674   1.116  2.823  0.000
   219C     0.01901  0.02610   1.080  2.901  0.000
   220C     0.06126  0.12641   1.116  2.823  0.000
   221C    -0.03715 -0.08272   1.083  2.954  0.000
   222C    -0.03657 -0.08270   1.078  2.959  0.000
   223C     0.05732  0.12074   1.103  2.839  0.000
   224N    -0.21253 -0.47346   1.317  3.896  0.000
   225C     0.01025  0.01565   1.084  2.905  0.000
   226C     0.01709  0.00839   1.095  2.888  0.000
   227C    -0.01822 -0.07147   1.078  2.940  0.000
   228C    -0.01633 -0.06944   1.086  2.931  0.000
   229C    -0.00837 -0.01682   1.099  2.909  0.000
   230C     0.14487  0.13472   1.202  2.653  0.000
   231O    -0.29975 -0.35523   1.651  4.648  0.000
   232C    -0.01069 -0.06247   1.092  2.919  0.000
   233C    -0.01703 -0.07023   1.080  2.937  0.000
   234C     0.05738  0.12060   1.104  2.839  0.000
   235C    -0.03596 -0.08215   1.078  2.958  0.000
   236C    -0.03675 -0.08233   1.083  2.954  0.000
   237C     0.06172  0.12708   1.116  2.822  0.000
   238N    -0.21253 -0.47298   1.317  3.896  0.000
   239H     0.02643  0.08444   0.974  0.000  0.000
   240H     0.02258  0.08136   0.977  0.000  0.000
   241H     0.02792  0.08597   0.972  0.000  0.000
   242H     0.03969  0.09991   0.960  0.000  0.000
   243H     0.03911  0.10084   0.961  0.000  0.000
   244H     0.04201  0.09868   0.958  0.000  0.000
   245H     0.02688  0.08490   0.973  0.000  0.000
   246H     0.02278  0.08157   0.977  0.000  0.000
   247H     0.02641  0.08443   0.974  0.000  0.000
   248H     0.02587  0.08388   0.974  0.000  0.000
   249H     0.02211  0.08087   0.978  0.000  0.000
   250H     0.02685  0.08488   0.973  0.000  0.000
   251H     0.04183  0.09850   0.958  0.000  0.000
   252H     0.03888  0.10060   0.961  0.000  0.000
   253H     0.03963  0.09985   0.960  0.000  0.000
   254H     0.02798  0.08605   0.972  0.000  0.000
   255H     0.02266  0.08146   0.977  0.000  0.000
   256H     0.02646  0.08448   0.974  0.000  0.000

Wiberg/Mayer (AO) data.
largest (>0.10) Wiberg bond orders for each atom

 ---------------------------------------------------------------------------
     #   Z sym  total        # sym  WBO       # sym  WBO       # sym  WBO
 ---------------------------------------------------------------------------
     1  27 Co   3.654 --     7 N    0.712    41 N    0.711    20 N    0.708
                            27 N    0.707
     2   6 C    3.840 --     3 C    1.394    40 C    1.393    42 H    0.997
     3   6 C    3.955 --     2 C    1.394     7 N    1.244     4 C    1.198
     4   6 C    3.859 --     5 C    1.645     3 C    1.198    43 H    0.994
     5   6 C    3.836 --     4 C    1.645     6 C    1.204    44 H    0.999
     6   6 C    3.930 --     8 C    1.362     7 N    1.250     5 C    1.204
     7   7 N    2.992 --     6 C    1.250     3 C    1.244     1 Co   0.712
     8   6 C    3.845 --    17 C    1.372     6 C    1.362     9 C    1.047
     9   6 C    3.899 --    16 C    1.420    10 C    1.415     8 C    1.047
    10   6 C    3.875 --    11 C    1.471     9 C    1.415    45 H    0.989
    11   6 C    3.894 --    10 C    1.471    12 C    1.390    46 H    0.988
    12   6 C    3.938 --    11 C    1.390    15 C    1.384    13 C    1.082
    13   6 C    4.002 --    14 O    1.941    12 C    1.082    47 H    0.954
    14   8 O    2.066 --    13 C    1.941
    15   6 C    3.890 --    16 C    1.466    12 C    1.384    48 H    0.982
    16   6 C    3.869 --    15 C    1.466     9 C    1.420    49 H    0.989
    17   6 C    3.921 --     8 C    1.372    20 N    1.236    18 C    1.207
    18   6 C    3.831 --    19 C    1.635    17 C    1.207    50 H    0.998
    19   6 C    3.853 --    18 C    1.635    21 C    1.218    51 H    0.998
    20   7 N    3.000 --    21 C    1.270    17 C    1.236     1 Co   0.708
    21   6 C    3.932 --    22 C    1.305    20 N    1.270    19 C    1.218
    22   6 C    3.870 --    23 C    1.306    21 C    1.305   124 C    1.211
    23   6 C    3.932 --    22 C    1.306    27 N    1.267    24 C    1.218
    24   6 C    3.850 --    25 C    1.633    23 C    1.218    52 H    0.998
    25   6 C    3.831 --    24 C    1.633    26 C    1.209    53 H    0.998
    26   6 C    3.923 --    28 C    1.368    27 N    1.239    25 C    1.209
    27   7 N    2.998 --    23 C    1.267    26 C    1.239     1 Co   0.707
    28   6 C    3.846 --    26 C    1.368    37 C    1.361    29 C    1.056
    29   6 C    3.899 --    30 C    1.416    36 C    1.412    28 C    1.056
    30   6 C    3.867 --    31 C    1.468    29 C    1.416    54 H    0.989
    31   6 C    3.890 --    30 C    1.468    32 C    1.384    55 H    0.982
    32   6 C    3.937 --    35 C    1.389    31 C    1.384    33 C    1.082
    33   6 C    4.002 --    34 O    1.942    32 C    1.082    56 H    0.954
    34   8 O    2.065 --    33 C    1.942
    35   6 C    3.893 --    36 C    1.472    32 C    1.389    57 H    0.988
    36   6 C    3.873 --    35 C    1.472    29 C    1.412    58 H    0.989
    37   6 C    3.932 --    28 C    1.361    41 N    1.250    38 C    1.204
    38   6 C    3.836 --    39 C    1.644    37 C    1.204    59 H    0.999
    39   6 C    3.857 --    38 C    1.644    40 C    1.198    60 H    0.994
    40   6 C    3.955 --     2 C    1.393    41 N    1.245    39 C    1.198
    41   7 N    2.991 --    37 C    1.250    40 C    1.245     1 Co   0.711
    42   1 H    1.036 --     2 C    0.997
    43   1 H    1.026 --     4 C    0.994
    44   1 H    1.042 --     5 C    0.999
    45   1 H    1.053 --    10 C    0.989
    46   1 H    1.043 --    11 C    0.988
    47   1 H    1.011 --    13 C    0.954
    48   1 H    1.022 --    15 C    0.982
    49   1 H    1.056 --    16 C    0.989
    50   1 H    1.041 --    18 C    0.998
    51   1 H    1.037 --    19 C    0.998
    52   1 H    1.038 --    24 C    0.998
    53   1 H    1.042 --    25 C    0.998
    54   1 H    1.055 --    30 C    0.989
    55   1 H    1.022 --    31 C    0.982
    56   1 H    1.011 --    33 C    0.954
    57   1 H    1.043 --    35 C    0.988
    58   1 H    1.053 --    36 C    0.989
    59   1 H    1.042 --    38 C    0.999
    60   1 H    1.027 --    39 C    0.994
    61  27 Co   3.648 --    67 N    0.711   101 N    0.711    80 N    0.708
                            87 N    0.707
    62   6 C    3.840 --    63 C    1.395   100 C    1.393   102 H    0.997
    63   6 C    3.955 --    62 C    1.395    67 N    1.245    64 C    1.197
    64   6 C    3.859 --    65 C    1.645    63 C    1.197   103 H    0.994
    65   6 C    3.836 --    64 C    1.645    66 C    1.204   104 H    0.999
    66   6 C    3.930 --    68 C    1.362    67 N    1.251    65 C    1.204
    67   7 N    2.992 --    66 C    1.251    63 C    1.245    61 Co   0.711
    68   6 C    3.845 --    77 C    1.372    66 C    1.362    69 C    1.047
    69   6 C    3.899 --    76 C    1.420    70 C    1.415    68 C    1.047
    70   6 C    3.875 --    71 C    1.471    69 C    1.415   105 H    0.989
    71   6 C    3.894 --    70 C    1.471    72 C    1.389   106 H    0.988
    72   6 C    3.938 --    71 C    1.389    75 C    1.384    73 C    1.082
    73   6 C    4.002 --    74 O    1.941    72 C    1.082   107 H    0.954
    74   8 O    2.066 --    73 C    1.941
    75   6 C    3.890 --    76 C    1.466    72 C    1.384   108 H    0.982
    76   6 C    3.868 --    75 C    1.466    69 C    1.420   109 H    0.989
    77   6 C    3.921 --    68 C    1.372    80 N    1.237    78 C    1.207
    78   6 C    3.831 --    79 C    1.635    77 C    1.207   110 H    0.998
    79   6 C    3.853 --    78 C    1.635    81 C    1.218   111 H    0.998
    80   7 N    3.000 --    81 C    1.269    77 C    1.237    61 Co   0.708
    81   6 C    3.933 --    82 C    1.307    80 N    1.269    79 C    1.218
    82   6 C    3.871 --    83 C    1.308    81 C    1.307   138 C    1.207
    83   6 C    3.933 --    82 C    1.308    87 N    1.266    84 C    1.218
    84   6 C    3.850 --    85 C    1.633    83 C    1.218   112 H    0.998
    85   6 C    3.832 --    84 C    1.633    86 C    1.209   113 H    0.998
    86   6 C    3.923 --    88 C    1.367    87 N    1.241    85 C    1.209
    87   7 N    2.998 --    83 C    1.266    86 C    1.241    61 Co   0.707
    88   6 C    3.846 --    86 C    1.367    97 C    1.362    89 C    1.055
    89   6 C    3.899 --    90 C    1.417    96 C    1.412    88 C    1.055
    90   6 C    3.866 --    91 C    1.468    89 C    1.417   114 H    0.989
    91   6 C    3.890 --    90 C    1.468    92 C    1.384   115 H    0.982
    92   6 C    3.938 --    95 C    1.389    91 C    1.384    93 C    1.082
    93   6 C    4.002 --    94 O    1.942    92 C    1.082   116 H    0.954
    94   8 O    2.066 --    93 C    1.942
    95   6 C    3.893 --    96 C    1.472    92 C    1.389   117 H    0.988
    96   6 C    3.874 --    95 C    1.472    89 C    1.412   118 H    0.989
    97   6 C    3.932 --    88 C    1.362   101 N    1.250    98 C    1.204
    98   6 C    3.836 --    99 C    1.644    97 C    1.204   119 H    0.999
    99   6 C    3.857 --    98 C    1.644   100 C    1.198   120 H    0.994
   100   6 C    3.955 --    62 C    1.393   101 N    1.246    99 C    1.198
   101   7 N    2.991 --    97 C    1.250   100 C    1.246    61 Co   0.711
   102   1 H    1.036 --    62 C    0.997
   103   1 H    1.026 --    64 C    0.994
   104   1 H    1.042 --    65 C    0.999
   105   1 H    1.053 --    70 C    0.989
   106   1 H    1.043 --    71 C    0.988
   107   1 H    1.011 --    73 C    0.954
   108   1 H    1.022 --    75 C    0.982
   109   1 H    1.056 --    76 C    0.989
   110   1 H    1.041 --    78 C    0.998
   111   1 H    1.037 --    79 C    0.998
   112   1 H    1.038 --    84 C    0.998
   113   1 H    1.041 --    85 C    0.998
   114   1 H    1.055 --    90 C    0.989
   115   1 H    1.022 --    91 C    0.982
   116   1 H    1.011 --    93 C    0.954
   117   1 H    1.043 --    95 C    0.988
   118   1 H    1.053 --    96 C    0.989
   119   1 H    1.042 --    98 C    0.999
   120   1 H    1.027 --    99 C    0.994
   121   6 C    3.845 --   122 C    2.387   125 C    1.351   124 C    0.177
   122   6 C    3.843 --   121 C    2.387   123 C    1.350   126 C    0.177
   123   6 C    3.832 --   124 C    2.489   122 C    1.350
   124   6 C    3.772 --   123 C    2.489    22 C    1.211   121 C    0.177
   125   6 C    3.829 --   126 C    2.485   121 C    1.351
   126   6 C    3.773 --   125 C    2.485   140 C    1.215   122 C    0.177
   127   6 C    3.842 --   128 C    2.384   131 C    1.352   130 C    0.177
   128   6 C    3.843 --   127 C    2.384   129 C    1.352   132 C    0.177
   129   6 C    3.829 --   130 C    2.484   128 C    1.352
   130   6 C    3.771 --   129 C    2.484   160 C    1.215   127 C    0.177
   131   6 C    3.829 --   132 C    2.484   127 C    1.352
   132   6 C    3.771 --   131 C    2.484   199 C    1.215   128 C    0.177
   133   6 C    3.843 --   134 C    2.392   137 C    1.346   136 C    0.176
   134   6 C    3.845 --   133 C    2.392   135 C    1.347   138 C    0.176
   135   6 C    3.829 --   136 C    2.490   134 C    1.347
   136   6 C    3.773 --   135 C    2.490   219 C    1.211   133 C    0.176
   137   6 C    3.832 --   138 C    2.494   133 C    1.346
   138   6 C    3.773 --   137 C    2.494    82 C    1.207   134 C    0.176
   139  27 Co   3.635 --   179 N    0.707   158 N    0.707   165 N    0.706
                           145 N    0.706
   140   6 C    3.862 --   178 C    1.302   141 C    1.301   126 C    1.215
   141   6 C    3.931 --   140 C    1.301   145 N    1.267   142 C    1.221
   142   6 C    3.848 --   143 C    1.628   141 C    1.221   180 H    0.999
   143   6 C    3.832 --   142 C    1.628   144 C    1.213   181 H    0.998
   144   6 C    3.920 --   146 C    1.361   145 N    1.240   143 C    1.213
   145   7 N    2.990 --   141 C    1.267   144 C    1.240   139 Co   0.706
   146   6 C    3.842 --   155 C    1.365   144 C    1.361   147 C    1.058
   147   6 C    3.898 --   154 C    1.416   148 C    1.411   146 C    1.058
   148   6 C    3.872 --   149 C    1.472   147 C    1.411   182 H    0.989
   149   6 C    3.893 --   148 C    1.472   150 C    1.389   183 H    0.988
   150   6 C    3.937 --   149 C    1.389   153 C    1.384   151 C    1.081
   151   6 C    4.002 --   152 O    1.942   150 C    1.081   184 H    0.954
   152   8 O    2.066 --   151 C    1.942
   153   6 C    3.890 --   154 C    1.468   150 C    1.384   185 H    0.982
   154   6 C    3.865 --   153 C    1.468   147 C    1.416   186 H    0.989
   155   6 C    3.920 --   146 C    1.365   158 N    1.237   156 C    1.211
   156   6 C    3.832 --   157 C    1.630   155 C    1.211   187 H    0.998
   157   6 C    3.846 --   156 C    1.630   159 C    1.220   188 H    0.998
   158   7 N    2.991 --   159 C    1.269   155 C    1.237   139 Co   0.707
   159   6 C    3.932 --   160 C    1.302   158 N    1.269   157 C    1.220
   160   6 C    3.862 --   159 C    1.302   161 C    1.301   130 C    1.215
   161   6 C    3.931 --   160 C    1.301   165 N    1.268   162 C    1.221
   162   6 C    3.848 --   163 C    1.629   161 C    1.221   189 H    0.998
   163   6 C    3.832 --   162 C    1.629   164 C    1.212   190 H    0.998
   164   6 C    3.920 --   166 C    1.362   165 N    1.239   163 C    1.212
   165   7 N    2.990 --   161 C    1.268   164 C    1.239   139 Co   0.706
   166   6 C    3.842 --   175 C    1.364   164 C    1.362   167 C    1.058
   167   6 C    3.898 --   168 C    1.416   174 C    1.411   166 C    1.058
   168   6 C    3.864 --   169 C    1.468   167 C    1.416   191 H    0.989
   169   6 C    3.890 --   168 C    1.468   170 C    1.384   192 H    0.982
   170   6 C    3.937 --   173 C    1.389   169 C    1.384   171 C    1.081
   171   6 C    4.002 --   172 O    1.942   170 C    1.081   193 H    0.954
   172   8 O    2.066 --   171 C    1.942
   173   6 C    3.893 --   174 C    1.472   170 C    1.389   194 H    0.988
   174   6 C    3.872 --   173 C    1.472   167 C    1.411   195 H    0.989
   175   6 C    3.920 --   166 C    1.364   179 N    1.238   176 C    1.211
   176   6 C    3.832 --   177 C    1.630   175 C    1.211   196 H    0.998
   177   6 C    3.846 --   176 C    1.630   178 C    1.221   197 H    0.998
   178   6 C    3.932 --   140 C    1.302   179 N    1.268   177 C    1.221
   179   7 N    2.991 --   178 C    1.268   175 C    1.238   139 Co   0.707
   180   1 H    1.037 --   142 C    0.999
   181   1 H    1.042 --   143 C    0.998
   182   1 H    1.052 --   148 C    0.989
   183   1 H    1.042 --   149 C    0.988
   184   1 H    1.011 --   151 C    0.954
   185   1 H    1.022 --   153 C    0.982
   186   1 H    1.055 --   154 C    0.989
   187   1 H    1.042 --   156 C    0.998
   188   1 H    1.037 --   157 C    0.998
   189   1 H    1.037 --   162 C    0.998
   190   1 H    1.042 --   163 C    0.998
   191   1 H    1.055 --   168 C    0.989
   192   1 H    1.022 --   169 C    0.982
   193   1 H    1.011 --   171 C    0.954
   194   1 H    1.042 --   173 C    0.988
   195   1 H    1.052 --   174 C    0.989
   196   1 H    1.042 --   176 C    0.998
   197   1 H    1.037 --   177 C    0.998
   198  27 Co   3.631 --   217 N    0.707   238 N    0.707   204 N    0.706
                           224 N    0.706
   199   6 C    3.862 --   200 C    1.302   237 C    1.302   132 C    1.215
   200   6 C    3.932 --   199 C    1.302   204 N    1.268   201 C    1.220
   201   6 C    3.848 --   202 C    1.629   200 C    1.220   239 H    0.998
   202   6 C    3.832 --   201 C    1.629   203 C    1.212   240 H    0.998
   203   6 C    3.920 --   205 C    1.363   204 N    1.239   202 C    1.212
   204   7 N    2.991 --   200 C    1.268   203 C    1.239   198 Co   0.706
   205   6 C    3.843 --   214 C    1.364   203 C    1.363   206 C    1.057
   206   6 C    3.898 --   213 C    1.416   207 C    1.412   205 C    1.057
   207   6 C    3.872 --   208 C    1.472   206 C    1.412   241 H    0.989
   208   6 C    3.893 --   207 C    1.472   209 C    1.389   242 H    0.988
   209   6 C    3.938 --   208 C    1.389   212 C    1.384   210 C    1.081
   210   6 C    4.002 --   211 O    1.943   209 C    1.081   243 H    0.954
   211   8 O    2.066 --   210 C    1.943
   212   6 C    3.890 --   213 C    1.468   209 C    1.384   244 H    0.982
   213   6 C    3.865 --   212 C    1.468   206 C    1.416   245 H    0.989
   214   6 C    3.920 --   205 C    1.364   217 N    1.239   215 C    1.211
   215   6 C    3.833 --   216 C    1.630   214 C    1.211   246 H    0.998
   216   6 C    3.846 --   215 C    1.630   218 C    1.220   247 H    0.998
   217   7 N    2.991 --   218 C    1.267   214 C    1.239   198 Co   0.707
   218   6 C    3.932 --   219 C    1.304   217 N    1.267   216 C    1.220
   219   6 C    3.862 --   218 C    1.304   220 C    1.303   136 C    1.211
   220   6 C    3.932 --   219 C    1.303   224 N    1.266   221 C    1.221
   221   6 C    3.848 --   222 C    1.629   220 C    1.221   248 H    0.999
   222   6 C    3.832 --   221 C    1.629   223 C    1.212   249 H    0.998
   223   6 C    3.920 --   225 C    1.361   224 N    1.241   222 C    1.212
   224   7 N    2.990 --   220 C    1.266   223 C    1.241   198 Co   0.706
   225   6 C    3.842 --   234 C    1.366   223 C    1.361   226 C    1.058
   226   6 C    3.898 --   227 C    1.416   233 C    1.411   225 C    1.058
   227   6 C    3.865 --   228 C    1.468   226 C    1.416   250 H    0.989
   228   6 C    3.890 --   227 C    1.468   229 C    1.384   251 H    0.982
   229   6 C    3.937 --   232 C    1.389   228 C    1.384   230 C    1.081
   230   6 C    4.002 --   231 O    1.942   229 C    1.081   252 H    0.954
   231   8 O    2.065 --   230 C    1.942
   232   6 C    3.893 --   233 C    1.472   229 C    1.389   253 H    0.988
   233   6 C    3.872 --   232 C    1.472   226 C    1.411   254 H    0.989
   234   6 C    3.920 --   225 C    1.366   238 N    1.237   235 C    1.211
   235   6 C    3.832 --   236 C    1.630   234 C    1.211   255 H    0.998
   236   6 C    3.846 --   235 C    1.630   237 C    1.220   256 H    0.998
   237   6 C    3.932 --   199 C    1.302   238 N    1.269   236 C    1.220
   238   7 N    2.991 --   237 C    1.269   234 C    1.237   198 Co   0.707
   239   1 H    1.037 --   201 C    0.998
   240   1 H    1.042 --   202 C    0.998
   241   1 H    1.052 --   207 C    0.989
   242   1 H    1.042 --   208 C    0.988
   243   1 H    1.011 --   210 C    0.954
   244   1 H    1.022 --   212 C    0.982
   245   1 H    1.055 --   213 C    0.989
   246   1 H    1.042 --   215 C    0.998
   247   1 H    1.037 --   216 C    0.998
   248   1 H    1.038 --   221 C    0.999
   249   1 H    1.042 --   222 C    0.998
   250   1 H    1.055 --   227 C    0.989
   251   1 H    1.022 --   228 C    0.982
   252   1 H    1.011 --   230 C    0.954
   253   1 H    1.042 --   232 C    0.988
   254   1 H    1.052 --   233 C    0.989
   255   1 H    1.042 --   235 C    0.998
   256   1 H    1.037 --   236 C    0.998
 ---------------------------------------------------------------------------

Topologies differ in total number of bonds
Writing topology from bond orders to xtbtopo.mol

 dipole moment from electron density (au)
     X       Y       Z   
-128.8638  -0.4345  -0.8618  total (Debye):  327.548


           -------------------------------------------------
          | TOTAL ENERGY             -524.473724323363 Eh   |
          | GRADIENT NORM               0.095945363805 Eh/α |
          | HOMO-LUMO GAP               0.001144232968 eV   |
           -------------------------------------------------
########################################################################
[WARNING] Runtime exception occurred
-1- restart_readRestart: Dimension missmatch in restart file.
########################################################################

------------------------------------------------------------------------
 * finished run on 2022/07/29 at 22:55:40.178     
------------------------------------------------------------------------
 total:
 * wall-time:     0 d,  0 h,  0 min, 58.052 sec
 *  cpu-time:     0 d,  0 h,  0 min, 57.666 sec
 * ratio c/w:     0.993 speedup
 SCF:
 * wall-time:     0 d,  0 h,  0 min, 57.270 sec
 *  cpu-time:     0 d,  0 h,  0 min, 56.913 sec
 * ratio c/w:     0.994 speedup

