      -----------------------------------------------------------      
     |                   =====================                   |     
     |                           x T B                           |     
     |                   =====================                   |     
     |                         S. Grimme                         |     
     |          Mulliken Center for Theoretical Chemistry        |     
     |                    University of Bonn                     |     
      -----------------------------------------------------------      

   * xtb version 6.5.1 (b24c23e) compiled by 'conda@728c89f4b128' on 2022-07-12

   xtb is free software: you can redistribute it and/or modify it under
   the terms of the GNU Lesser General Public License as published by
   the Free Software Foundation, either version 3 of the License, or
   (at your option) any later version.
   
   xtb is distributed in the hope that it will be useful,
   but WITHOUT ANY WARRANTY; without even the implied warranty of
   MERCHANTABILITY or FITNESS FOR A PARTICULAR PURPOSE.  See the
   GNU Lesser General Public License for more details.
   
   Cite this work as:
   * C. Bannwarth, E. Caldeweyher, S. Ehlert, A. Hansen, P. Pracht,
     J. Seibert, S. Spicher, S. Grimme, WIREs Comput. Mol. Sci., 2020, 11,
     e01493. DOI: 10.1002/wcms.1493
   
   for GFN2-xTB:
   * C. Bannwarth, S. Ehlert and S. Grimme., J. Chem. Theory Comput., 2019,
     15, 1652-1671. DOI: 10.1021/acs.jctc.8b01176
   for GFN1-xTB:
   * S. Grimme, C. Bannwarth, P. Shushkov, J. Chem. Theory Comput., 2017,
     13, 1989-2009. DOI: 10.1021/acs.jctc.7b00118
   for GFN0-xTB:
   * P. Pracht, E. Caldeweyher, S. Ehlert, S. Grimme, ChemRxiv, 2019, preprint.
     DOI: 10.26434/chemrxiv.8326202.v1
   for GFN-FF:
   * S. Spicher and S. Grimme, Angew. Chem. Int. Ed., 2020, 59, 15665-15673.
     DOI: 10.1002/anie.202004239
   
   for ALPB and GBSA implicit solvation:
   * S. Ehlert, M. Stahn, S. Spicher, S. Grimme, J. Chem. Theory Comput.,
     2021, 17, 4250-4261. DOI: 10.1021/acs.jctc.1c00471
   
   for DFT-D4:
   * E. Caldeweyher, C. Bannwarth and S. Grimme, J. Chem. Phys., 2017,
     147, 034112. DOI: 10.1063/1.4993215
   * E. Caldeweyher, S. Ehlert, A. Hansen, H. Neugebauer, S. Spicher,
     C. Bannwarth and S. Grimme, J. Chem. Phys., 2019, 150, 154122.
     DOI: 10.1063/1.5090222
   * E. Caldeweyher, J.-M. Mewes, S. Ehlert and S. Grimme, Phys. Chem. Chem. Phys.
     2020, 22, 8499-8512. DOI: 10.1039/D0CP00502A
   
   for sTDA-xTB:
   * S. Grimme and C. Bannwarth, J. Chem. Phys., 2016, 145, 054103.
     DOI: 10.1063/1.4959605
   
   in the mass-spec context:
   * V. Asgeirsson, C. Bauer and S. Grimme, Chem. Sci., 2017, 8, 4879.
     DOI: 10.1039/c7sc00601b
   * J. Koopman and S. Grimme, ACS Omega 2019, 4, 12, 15120-15133.
     DOI: 10.1021/acsomega.9b02011
   
   for metadynamics refer to:
   * S. Grimme, J. Chem. Theory Comput., 2019, 155, 2847-2862
     DOI: 10.1021/acs.jctc.9b00143
   
   for SPH calculations refer to:
   * S. Spicher and S. Grimme, J. Chem. Theory Comput., 2021, 17, 1701-1714
     DOI: 10.1021/acs.jctc.0c01306
   
   with help from (in alphabetical order)
   P. Atkinson, C. Bannwarth, F. Bohle, G. Brandenburg, E. Caldeweyher
   M. Checinski, S. Dohm, S. Ehlert, S. Ehrlich, I. Gerasimov, C. Hölzer
   A. Katbashev, J. Koopman, C. Lavigne, S. Lehtola, F. März, M. Müller,
   F. Musil, H. Neugebauer, J. Pisarek, C. Plett, P. Pracht, F. Pultar,
   J. Seibert, P. Shushkov, S. Spicher, M. Stahn, M. Steiner, T. Strunk,
   J. Stückrath, T. Rose, and J. Unsleber
   
 * started run on 2022/07/31 at 17:33:13.118     

           -------------------------------------------------
          |                Calculation Setup                |
           -------------------------------------------------

          program call               : xtb xtbopt.xyz --gfn 1 --vipea
          hostname                   : cx3-15-11.cx3.hpc.ic.ac.uk
          coordinate file            : xtbopt.xyz
          omp threads                :                     1

   ID    Z sym.   atoms
    1    6 C      1-5, 7-11, 16-20, 22-27, 29-33, 38-43, 66-70, 72-76, 81-85,
                  87-92, 94-98, 103-108, 131-165, 167-171, 176-180, 182-187,
                  189-193, 198-203, 225-229, 231-235, 240-244, 246-251,
                  253-257, 262-267, 289-293, 295-299, 304-308, 310-315,
                  317-321, 326-331, 353-357, 359-363, 368-372, 374-379,
                  381-385, 390-395
    2    7 N      6, 21, 28, 44, 71, 86, 93, 109, 166, 181, 188, 204, 230,
                  245, 252, 268, 294, 309, 316, 332, 358, 373, 380, 396
    3   16 S      12, 34, 77, 99, 172, 194, 236, 258, 300, 322, 364, 386
    4    8 O      13-15, 35-37, 78-80, 100-102, 173-175, 195-197, 237-239,
                  259-261, 301-303, 323-325, 365-367, 387-389
    5    1 H      45-65, 110-130, 205-224, 269-288, 333-352, 397-416

           -------------------------------------------------
          |                 I P E A - x T B                 |
           -------------------------------------------------

        Reference                      10.1039/c7sc00601b
      * Hamiltonian:
        H0-scaling (s, p, d)           2.150000    2.300000    2.000000
        zeta-weighting                 0.000000
      * Dispersion:
        s8                             2.400000
        a1                             0.630000
        a2                             5.000000
        s9                             0.000000
      * Repulsion:
        kExp                           1.500000
        rExp                           1.000000
      * Coulomb:
        alpha                          1.000000
        third order                    atomic
        anisotropic                    false
      * Halogen bond correction:
        rad-scale                      1.300000
        damping                        0.440000


          ...................................................
          :                      SETUP                      :
          :.................................................:
          :  # basis functions                1774          :
          :  # atomic orbitals                1762          :
          :  # shells                         1126          :
          :  # electrons                      1418          :
          :  # halogen bonds                     0          :
          :  max. iterations                   250          :
          :  Hamiltonian                  GFN1-xTB          :
          :  restarted?                      false          :
          :  GBSA solvation                  false          :
          :  PC potential                    false          :
          :  electronic temp.          300.0000000     K    :
          :  accuracy                    1.0000000          :
          :  -> integral cutoff          0.2500000E+02      :
          :  -> integral neglect         0.1000000E-07      :
          :  -> SCF convergence          0.1000000E-05 Eh   :
          :  -> wf. convergence          0.2000000E-04 e    :
          :  Broyden damping             0.4000000          :
          ...................................................

 iter      E             dE          RMSdq      gap      omega  full diag
   1   -915.4271149 -0.915427E+03  0.104E+01    0.63       0.0  T
   2   -914.5828040  0.844311E+00  0.689E+00    1.16       1.0  T
   3   -913.2054559  0.137735E+01  0.495E+00    0.52       1.0  T
   4   -923.4371130 -0.102317E+02  0.131E+00    1.13       1.0  T
   5   -925.0035688 -0.156646E+01  0.446E-01    0.97       1.0  T
   6   -925.1404062 -0.136837E+00  0.222E-01    1.01       1.0  T
   7   -925.1641170 -0.237108E-01  0.101E-01    0.99       1.0  T
   8   -925.1642198 -0.102747E-03  0.767E-02    0.98       1.0  T
   9   -925.1675346 -0.331481E-02  0.297E-02    0.99       1.0  T
  10   -925.1681457 -0.611111E-03  0.136E-02    0.98       1.0  T
  11   -925.1682706 -0.124903E-03  0.647E-03    0.98       1.0  T
  12   -925.1683039 -0.332684E-04  0.247E-03    0.98       2.0  T
  13   -925.1683091 -0.519866E-05  0.457E-04    0.98      10.7  T
  14   -925.1683092 -0.132309E-06  0.167E-04    0.98      29.4  T
  15   -925.1683092 -0.354703E-09  0.159E-04    0.98      30.9  T

   *** convergence criteria satisfied after 15 iterations ***

         #    Occupation            Energy/Eh            Energy/eV
      -------------------------------------------------------------
         1        2.0000           -1.1181024             -30.4251
       ...           ...                  ...                  ...
       703        2.0000           -0.3974222             -10.8144
       704        2.0000           -0.3897906             -10.6067
       705        2.0000           -0.3837018             -10.4411
       706        2.0000           -0.3808244             -10.3628
       707        2.0000           -0.3793515             -10.3227
       708        2.0000           -0.3754174             -10.2156
       709        2.0000           -0.3706318             -10.0854 (HOMO)
       710                         -0.3344584              -9.1011 (LUMO)
       711                         -0.3287719              -8.9463
       712                         -0.3223165              -8.7707
       713                         -0.3193422              -8.6897
       714                         -0.3179398              -8.6516
       ...                                ...                  ...
      1762                        559.1023251           15213.9486
      -------------------------------------------------------------
                  HL-Gap            0.0361733 Eh            0.9843 eV
             Fermi-level           -0.3525431 Eh           -9.5932 eV

 SCC (total)                   0 d,  0 h,  0 min, 26.837 sec
 SCC setup                      ...        0 min,  0.019 sec (  0.070%)
 Dispersion                     ...        0 min,  0.022 sec (  0.081%)
 classical contributions        ...        0 min,  0.006 sec (  0.022%)
 integral evaluation            ...        0 min,  1.347 sec (  5.020%)
 iterations                     ...        0 min, 22.598 sec ( 84.204%)
 molecular gradient             ...        0 min,  2.550 sec (  9.503%)
 printout                       ...        0 min,  0.295 sec (  1.099%)

         :::::::::::::::::::::::::::::::::::::::::::::::::::::
         ::                     SUMMARY                     ::
         :::::::::::::::::::::::::::::::::::::::::::::::::::::
         :: total energy            -908.822870457339 Eh    ::
         :: gradient norm              0.140750633949 Eh/a0 ::
         :: HOMO-LUMO gap              0.984326688984 eV    ::
         ::.................................................::
         :: SCC energy              -925.168309219206 Eh    ::
         :: -> electrostatic           0.878348033904 Eh    ::
         :: repulsion energy          16.710344751984 Eh    ::
         :: dispersion energy         -0.364905990117 Eh    ::
         :: halogen bond corr.         0.000000000000 Eh    ::
         :: add. restraining           0.000000000000 Eh    ::
         :: total charge               0.000000000044 e     ::
         :::::::::::::::::::::::::::::::::::::::::::::::::::::

           ------------------------------------------------- 
          |        vertical delta SCC IP calculation        |
           ------------------------------------------------- 
   1   -924.7720286 -0.924772E+03  0.598E-02    0.98       0.0  T
   2   -924.7547084  0.173202E-01  0.103E-01    0.86       1.0  T
   3   -924.7777101 -0.230017E-01  0.380E-02    0.97       1.0  T
   4   -924.7791192 -0.140902E-02  0.237E-02    0.98       1.0  T
   5   -924.7785225  0.596690E-03  0.223E-02    0.97       1.0  T
   6   -924.7777143  0.808140E-03  0.267E-02    0.97       1.0  T
   7   -924.7796295 -0.191521E-02  0.127E-02    0.98       1.0  T
   8   -924.7798492 -0.219612E-03  0.600E-03    0.98       1.0  T
   9   -924.7799270 -0.778888E-04  0.191E-03    0.98       2.6  T
  10   -924.7799304 -0.337031E-05  0.928E-04    0.98       5.3  T
  11   -924.7799310 -0.599965E-06  0.501E-04    0.98       9.8  T
  12   -924.7799310 -0.238166E-07  0.390E-04    0.98      12.6  T
  13   -924.7799312 -0.199771E-06  0.119E-04    0.98      41.3  T
  14   -924.7799312 -0.651266E-08  0.668E-05    0.98      73.4  T
     SCC iter.                  ...        0 min, 21.046 sec
     gradient                   ...        0 min,  2.556 sec
------------------------------------------------------------------------
empirical IP shift (eV):    4.8455
delta SCC IP (eV):    5.7228
------------------------------------------------------------------------
           ------------------------------------------------- 
          |        vertical delta SCC EA calculation        |
           ------------------------------------------------- 
   1   -925.4647394 -0.925465E+03  0.988E-02    0.18       0.0  T
   2   -925.4716777 -0.693828E-02  0.897E-02    0.05       1.0  T
   3   -925.4804308 -0.875309E-02  0.498E-02    0.11       1.0  T
   4   -925.4770549  0.337587E-02  0.509E-02    0.08       1.0  T
   5   -925.4793328 -0.227782E-02  0.379E-02    0.08       1.0  T
   6   -925.4819301 -0.259738E-02  0.254E-02    0.10       1.0  T
   7   -925.4829844 -0.105423E-02  0.164E-02    0.07       1.0  T
   8   -925.4834101 -0.425738E-03  0.833E-03    0.08       1.0  T
   9   -925.4835361 -0.125987E-03  0.315E-03    0.08       1.6  T
  10   -925.4835437 -0.760061E-05  0.168E-03    0.08       2.9  T
  11   -925.4835453 -0.163798E-05  0.941E-04    0.08       5.2  T
  12   -925.4835460 -0.702053E-06  0.458E-04    0.08      10.7  T
  13   -925.4835461 -0.976760E-07  0.205E-04    0.08      23.9  T
  14   -925.4835462 -0.566296E-07  0.763E-05    0.08      64.3  T
  15   -925.4835462 -0.363229E-09  0.563E-05    0.08      87.1  T
     SCC iter.                  ...        0 min, 22.554 sec
     gradient                   ...        0 min,  2.560 sec
------------------------------------------------------------------------
empirical EA shift (eV):    4.8455
delta SCC EA (eV):    3.7325
------------------------------------------------------------------------
           -------------------------------------------------
          |                Property Printout                |
           -------------------------------------------------

    * Orbital Energies and Occupations

         #    Occupation            Energy/Eh            Energy/eV
      -------------------------------------------------------------
         1        2.0000           -1.0975963             -29.8671
       ...           ...                  ...                  ...
       698        2.0000           -0.3729711             -10.1491
       699        2.0000           -0.3725213             -10.1368
       700        2.0000           -0.3657560              -9.9527
       701        2.0000           -0.3653845              -9.9426
       702        2.0000           -0.3624793              -9.8636
       703        2.0000           -0.3624394              -9.8625
       704        2.0000           -0.3545944              -9.6490
       705        2.0000           -0.3540290              -9.6336
       706        2.0000           -0.3519181              -9.5762
       707        2.0000           -0.3468422              -9.4381
       708        2.0000           -0.3399512              -9.2505
       709        2.0000           -0.3333673              -9.0714
       710        0.8040           -0.2972744              -8.0892 (HOMO)
       711        0.1582           -0.2943449              -8.0095 (LUMO)
       712        0.0315           -0.2926772              -7.9642
       713        0.0056           -0.2910126              -7.9189
       714        0.0005           -0.2886352              -7.8542
       715        0.0003           -0.2881558              -7.8411
       716        0.0000           -0.2849306              -7.7534
       717        0.0000           -0.2816829              -7.6650
       718        0.0000           -0.2810850              -7.6487
       719                         -0.2792857              -7.5997
       720                         -0.2783148              -7.5733
       721                         -0.2759035              -7.5077
       ...                                ...                  ...
      1762                        559.1389016           15214.9439
      -------------------------------------------------------------
                  HL-Gap            0.0029295 Eh            0.0797 eV
             Fermi-level           -0.3056396 Eh           -8.3169 eV

  Mulliken/CM5 charges         n(s)   n(p)   n(d)
     1C    -0.02048 -0.06132   1.089  2.932  0.000
     2C     0.06303  0.12341   1.105  2.832  0.000
     3C    -0.03334 -0.07868   1.082  2.952  0.000
     4C    -0.03212 -0.07709   1.075  2.957  0.000
     5C     0.06370  0.12773   1.101  2.836  0.000
     6N    -0.15777 -0.51080   1.312  3.846  0.000
     7C     0.00887  0.01464   1.090  2.901  0.000
     8C     0.01475  0.00616   1.092  2.893  0.000
     9C    -0.01779 -0.07088   1.079  2.939  0.000
    10C    -0.01111 -0.06175   1.096  2.915  0.000
    11C     0.03166  0.04062   1.152  2.816  0.000
    12S     0.45200  0.53901   1.582  2.656  1.310
    13O    -0.28119 -0.33181   1.699  4.582  0.000
    14O    -0.29251 -0.48724   1.691  4.602  0.000
    15O    -0.27772 -0.32793   1.701  4.576  0.000
    16C    -0.01005 -0.06070   1.096  2.914  0.000
    17C    -0.01603 -0.06924   1.080  2.936  0.000
    18C     0.06061  0.12883   1.118  2.821  0.000
    19C    -0.03652 -0.08255   1.084  2.952  0.000
    20C    -0.03615 -0.08162   1.091  2.945  0.000
    21N    -0.28413 -0.47079   1.292  3.992  0.000
    22C     0.06556  0.13628   1.130  2.804  0.000
    23C     0.01882  0.02602   1.085  2.896  0.000
    24C     0.06736  0.13221   1.109  2.823  0.000
    25C    -0.03174 -0.07619   1.080  2.952  0.000
    26C    -0.03201 -0.07698   1.074  2.958  0.000
    27C     0.06301  0.12646   1.099  2.838  0.000
    28N    -0.15583 -0.50808   1.313  3.842  0.000
    29C     0.00826  0.01408   1.090  2.902  0.000
    30C     0.01467  0.00610   1.092  2.893  0.000
    31C    -0.01738 -0.07048   1.079  2.939  0.000
    32C    -0.01079 -0.06143   1.096  2.915  0.000
    33C     0.03155  0.04051   1.152  2.816  0.000
    34S     0.45176  0.53876   1.582  2.656  1.310
    35O    -0.28089 -0.33145   1.699  4.582  0.000
    36O    -0.29171 -0.48644   1.691  4.601  0.000
    37O    -0.27960 -0.32983   1.701  4.578  0.000
    38C    -0.01054 -0.06118   1.096  2.914  0.000
    39C    -0.01660 -0.06981   1.080  2.936  0.000
    40C     0.06176  0.13121   1.121  2.817  0.000
    41C    -0.03679 -0.08283   1.086  2.951  0.000
    42C    -0.03787 -0.08429   1.092  2.946  0.000
    43C     0.06022  0.12589   1.126  2.814  0.000
    44N    -0.28636 -0.47344   1.292  3.994  0.000
    45H     0.03151  0.09055   0.968  0.000  0.000
    46H     0.04229  0.09898   0.958  0.000  0.000
    47H     0.03464  0.09334   0.965  0.000  0.000
    48H     0.16522  0.37353   0.835  0.000  0.000
    49H     0.03366  0.09163   0.966  0.000  0.000
    50H     0.04442  0.10528   0.956  0.000  0.000
    51H     0.22832  0.40655   0.772  0.000  0.000
    52H     0.04526  0.10624   0.955  0.000  0.000
    53H     0.03455  0.09253   0.965  0.000  0.000
    54H     0.02512  0.08388   0.975  0.000  0.000
    55H     0.02812  0.08619   0.972  0.000  0.000
    56H     0.03770  0.09584   0.962  0.000  0.000
    57H     0.03505  0.09382   0.965  0.000  0.000
    58H     0.16395  0.37222   0.836  0.000  0.000
    59H     0.03427  0.09225   0.966  0.000  0.000
    60H     0.04488  0.10578   0.955  0.000  0.000
    61H     0.22896  0.40716   0.771  0.000  0.000
    62H     0.04442  0.10535   0.956  0.000  0.000
    63H     0.03361  0.09162   0.966  0.000  0.000
    64H     0.02453  0.08322   0.975  0.000  0.000
    65H     0.03261  0.08907   0.967  0.000  0.000
    66C    -0.02036 -0.06120   1.089  2.931  0.000
    67C     0.06312  0.12350   1.105  2.832  0.000
    68C    -0.03321 -0.07855   1.082  2.952  0.000
    69C    -0.03199 -0.07696   1.075  2.957  0.000
    70C     0.06379  0.12782   1.101  2.835  0.000
    71N    -0.15772 -0.51076   1.311  3.846  0.000
    72C     0.00904  0.01481   1.090  2.901  0.000
    73C     0.01474  0.00616   1.092  2.893  0.000
    74C    -0.01771 -0.07081   1.079  2.939  0.000
    75C    -0.01105 -0.06168   1.096  2.915  0.000
    76C     0.03173  0.04069   1.152  2.816  0.000
    77S     0.45202  0.53901   1.582  2.656  1.310
    78O    -0.28113 -0.33178   1.699  4.583  0.000
    79O    -0.29260 -0.48732   1.691  4.602  0.000
    80O    -0.27750 -0.32771   1.701  4.576  0.000
    81C    -0.01005 -0.06069   1.096  2.914  0.000
    82C    -0.01601 -0.06920   1.080  2.936  0.000
    83C     0.06068  0.12889   1.118  2.821  0.000
    84C    -0.03639 -0.08242   1.084  2.952  0.000
    85C    -0.03600 -0.08148   1.091  2.945  0.000
    86N    -0.28387 -0.47056   1.292  3.992  0.000
    87C     0.06570  0.13642   1.130  2.804  0.000
    88C     0.01917  0.02638   1.085  2.896  0.000
    89C     0.06746  0.13231   1.109  2.823  0.000
    90C    -0.03147 -0.07593   1.080  2.951  0.000
    91C    -0.03180 -0.07678   1.074  2.958  0.000
    92C     0.06314  0.12659   1.099  2.838  0.000
    93N    -0.15570 -0.50796   1.313  3.842  0.000
    94C     0.00841  0.01423   1.090  2.901  0.000
    95C     0.01465  0.00609   1.092  2.893  0.000
    96C    -0.01732 -0.07042   1.079  2.939  0.000
    97C    -0.01071 -0.06135   1.096  2.915  0.000
    98C     0.03160  0.04057   1.152  2.816  0.000
    99S     0.45177  0.53878   1.582  2.656  1.309
   100O    -0.28077 -0.33130   1.699  4.582  0.000
   101O    -0.29160 -0.48635   1.691  4.601  0.000
   102O    -0.27985 -0.33008   1.701  4.579  0.000
   103C    -0.01051 -0.06115   1.096  2.914  0.000
   104C    -0.01660 -0.06982   1.080  2.936  0.000
   105C     0.06185  0.13130   1.121  2.817  0.000
   106C    -0.03671 -0.08275   1.086  2.951  0.000
   107C    -0.03781 -0.08423   1.092  2.946  0.000
   108C     0.06030  0.12598   1.126  2.814  0.000
   109N    -0.28620 -0.47328   1.292  3.994  0.000
   110H     0.03162  0.09066   0.968  0.000  0.000
   111H     0.04239  0.09908   0.958  0.000  0.000
   112H     0.03473  0.09343   0.965  0.000  0.000
   113H     0.16530  0.37362   0.835  0.000  0.000
   114H     0.03381  0.09179   0.966  0.000  0.000
   115H     0.04461  0.10544   0.955  0.000  0.000
   116H     0.22821  0.40648   0.772  0.000  0.000
   117H     0.04517  0.10617   0.955  0.000  0.000
   118H     0.03447  0.09247   0.966  0.000  0.000
   119H     0.02530  0.08406   0.975  0.000  0.000
   120H     0.02847  0.08656   0.972  0.000  0.000
   121H     0.03802  0.09613   0.962  0.000  0.000
   122H     0.03527  0.09403   0.965  0.000  0.000
   123H     0.16404  0.37231   0.836  0.000  0.000
   124H     0.03447  0.09246   0.966  0.000  0.000
   125H     0.04496  0.10586   0.955  0.000  0.000
   126H     0.22906  0.40725   0.771  0.000  0.000
   127H     0.04448  0.10541   0.956  0.000  0.000
   128H     0.03360  0.09161   0.966  0.000  0.000
   129H     0.02462  0.08332   0.975  0.000  0.000
   130H     0.03268  0.08913   0.967  0.000  0.000
   131C    -0.01260 -0.01270   1.078  2.935  0.000
   132C    -0.01617 -0.01628   1.074  2.942  0.000
   133C    -0.01729 -0.01806   1.062  2.955  0.000
   134C    -0.01736 -0.01900   1.091  2.927  0.000
   135C    -0.02065 -0.02139   1.060  2.961  0.000
   136C    -0.01391 -0.01549   1.095  2.919  0.000
   137C    -0.01500 -0.01510   1.076  2.939  0.000
   138C    -0.01642 -0.01652   1.075  2.941  0.000
   139C    -0.01915 -0.01989   1.062  2.958  0.000
   140C    -0.01764 -0.01922   1.091  2.927  0.000
   141C    -0.02056 -0.02129   1.060  2.960  0.000
   142C    -0.01620 -0.01778   1.093  2.923  0.000
   143C    -0.01574 -0.01584   1.076  2.940  0.000
   144C    -0.01569 -0.01579   1.076  2.940  0.000
   145C    -0.01990 -0.02063   1.061  2.959  0.000
   146C    -0.01682 -0.01840   1.092  2.925  0.000
   147C    -0.01993 -0.02067   1.061  2.959  0.000
   148C    -0.01691 -0.01849   1.092  2.925  0.000
   149C    -0.01627 -0.01637   1.075  2.941  0.000
   150C    -0.01483 -0.01493   1.076  2.938  0.000
   151C    -0.02032 -0.02106   1.061  2.960  0.000
   152C    -0.01603 -0.01761   1.093  2.923  0.000
   153C    -0.01907 -0.01981   1.062  2.958  0.000
   154C    -0.01753 -0.01911   1.091  2.927  0.000
   155C    -0.01565 -0.01575   1.074  2.941  0.000
   156C    -0.01209 -0.01219   1.078  2.934  0.000
   157C    -0.02005 -0.02079   1.060  2.960  0.000
   158C    -0.01354 -0.01512   1.095  2.918  0.000
   159C    -0.01682 -0.01759   1.062  2.954  0.000
   160C    -0.01704 -0.01867   1.091  2.926  0.000
   161C     0.01450  0.02175   1.081  2.904  0.000
   162C     0.06658  0.13144   1.109  2.824  0.000
   163C    -0.03451 -0.07897   1.079  2.956  0.000
   164C    -0.03301 -0.07796   1.074  2.959  0.000
   165C     0.06091  0.12442   1.096  2.843  0.000
   166N    -0.15594 -0.50840   1.313  3.843  0.000
   167C     0.01092  0.01659   1.092  2.897  0.000
   168C     0.01551  0.00685   1.093  2.892  0.000
   169C    -0.01575 -0.06895   1.080  2.935  0.000
   170C    -0.01017 -0.06081   1.096  2.914  0.000
   171C     0.03162  0.04058   1.152  2.816  0.000
   172S     0.45160  0.53866   1.582  2.657  1.310
   173O    -0.28118 -0.33172   1.699  4.582  0.000
   174O    -0.29233 -0.48708   1.691  4.601  0.000
   175O    -0.27895 -0.32921   1.701  4.578  0.000
   176C    -0.01094 -0.06158   1.096  2.915  0.000
   177C    -0.01717 -0.07029   1.079  2.939  0.000
   178C     0.05868  0.12675   1.116  2.826  0.000
   179C    -0.03751 -0.08354   1.084  2.953  0.000
   180C    -0.03784 -0.08331   1.090  2.947  0.000
   181N    -0.28389 -0.47016   1.292  3.992  0.000
   182C     0.06506  0.13590   1.130  2.805  0.000
   183C     0.01710  0.02435   1.084  2.899  0.000
   184C     0.06679  0.13170   1.110  2.824  0.000
   185C    -0.03340 -0.07786   1.079  2.954  0.000
   186C    -0.03268 -0.07763   1.074  2.959  0.000
   187C     0.06124  0.12468   1.096  2.843  0.000
   188N    -0.15525 -0.50772   1.313  3.842  0.000
   189C     0.01046  0.01614   1.091  2.898  0.000
   190C     0.01544  0.00678   1.093  2.892  0.000
   191C    -0.01600 -0.06921   1.080  2.936  0.000
   192C    -0.01037 -0.06101   1.096  2.914  0.000
   193C     0.03161  0.04057   1.152  2.817  0.000
   194S     0.45153  0.53862   1.582  2.657  1.310
   195O    -0.28001 -0.33037   1.700  4.580  0.000
   196O    -0.29180 -0.48660   1.691  4.601  0.000
   197O    -0.28080 -0.33120   1.700  4.581  0.000
   198C    -0.01072 -0.06135   1.096  2.915  0.000
   199C    -0.01702 -0.07014   1.078  2.939  0.000
   200C     0.05895  0.12716   1.116  2.825  0.000
   201C    -0.03762 -0.08363   1.085  2.953  0.000
   202C    -0.03840 -0.08388   1.090  2.948  0.000
   203C     0.06466  0.13535   1.130  2.806  0.000
   204N    -0.28495 -0.47119   1.291  3.993  0.000
   205H     0.03477  0.09286   0.965  0.000  0.000
   206H     0.03302  0.09185   0.967  0.000  0.000
   207H     0.16380  0.37176   0.836  0.000  0.000
   208H     0.03422  0.09219   0.966  0.000  0.000
   209H     0.04454  0.10550   0.955  0.000  0.000
   210H     0.22800  0.40617   0.772  0.000  0.000
   211H     0.04395  0.10483   0.956  0.000  0.000
   212H     0.03373  0.09167   0.966  0.000  0.000
   213H     0.02335  0.08215   0.977  0.000  0.000
   214H     0.02634  0.08438   0.974  0.000  0.000
   215H     0.03648  0.09456   0.964  0.000  0.000
   216H     0.03293  0.09176   0.967  0.000  0.000
   217H     0.16357  0.37154   0.836  0.000  0.000
   218H     0.03364  0.09161   0.966  0.000  0.000
   219H     0.04416  0.10509   0.956  0.000  0.000
   220H     0.22814  0.40628   0.772  0.000  0.000
   221H     0.04434  0.10525   0.956  0.000  0.000
   222H     0.03425  0.09222   0.966  0.000  0.000
   223H     0.02381  0.08262   0.976  0.000  0.000
   224H     0.02519  0.08323   0.975  0.000  0.000
   225C     0.01536  0.02261   1.082  2.902  0.000
   226C     0.06658  0.13150   1.110  2.824  0.000
   227C    -0.03438 -0.07883   1.078  2.956  0.000
   228C    -0.03313 -0.07808   1.074  2.959  0.000
   229C     0.06057  0.12402   1.096  2.844  0.000
   230N    -0.15555 -0.50802   1.313  3.843  0.000
   231C     0.01106  0.01673   1.092  2.897  0.000
   232C     0.01552  0.00686   1.093  2.892  0.000
   233C    -0.01580 -0.06900   1.080  2.936  0.000
   234C    -0.01025 -0.06089   1.096  2.914  0.000
   235C     0.03157  0.04052   1.152  2.817  0.000
   236S     0.45137  0.53847   1.582  2.656  1.310
   237O    -0.28187 -0.33259   1.698  4.584  0.000
   238O    -0.29163 -0.48639   1.691  4.601  0.000
   239O    -0.27854 -0.32872   1.702  4.577  0.000
   240C    -0.01091 -0.06155   1.096  2.915  0.000
   241C    -0.01702 -0.07013   1.079  2.938  0.000
   242C     0.05842  0.12647   1.115  2.826  0.000
   243C    -0.03756 -0.08359   1.084  2.953  0.000
   244C    -0.03823 -0.08370   1.090  2.948  0.000
   245N    -0.28424 -0.47048   1.292  3.992  0.000
   246C     0.06489  0.13574   1.130  2.805  0.000
   247C     0.01609  0.02334   1.083  2.901  0.000
   248C     0.06669  0.13161   1.110  2.824  0.000
   249C    -0.03393 -0.07839   1.079  2.955  0.000
   250C    -0.03278 -0.07774   1.074  2.959  0.000
   251C     0.06077  0.12423   1.096  2.843  0.000
   252N    -0.15545 -0.50793   1.313  3.842  0.000
   253C     0.01100  0.01666   1.092  2.897  0.000
   254C     0.01557  0.00690   1.093  2.891  0.000
   255C    -0.01588 -0.06908   1.081  2.935  0.000
   256C    -0.01032 -0.06096   1.096  2.914  0.000
   257C     0.03164  0.04060   1.152  2.817  0.000
   258S     0.45141  0.53853   1.582  2.657  1.310
   259O    -0.28034 -0.33074   1.700  4.581  0.000
   260O    -0.29134 -0.48614   1.691  4.601  0.000
   261O    -0.28095 -0.33131   1.700  4.581  0.000
   262C    -0.01071 -0.06135   1.096  2.915  0.000
   263C    -0.01695 -0.07006   1.078  2.939  0.000
   264C     0.05831  0.12636   1.115  2.826  0.000
   265C    -0.03786 -0.08388   1.084  2.953  0.000
   266C    -0.03855 -0.08403   1.090  2.948  0.000
   267C     0.06475  0.13561   1.130  2.805  0.000
   268N    -0.28441 -0.47064   1.292  3.992  0.000
   269H     0.03538  0.09346   0.965  0.000  0.000
   270H     0.03304  0.09186   0.967  0.000  0.000
   271H     0.16356  0.37151   0.836  0.000  0.000
   272H     0.03385  0.09182   0.966  0.000  0.000
   273H     0.04399  0.10499   0.956  0.000  0.000
   274H     0.22818  0.40642   0.772  0.000  0.000
   275H     0.04419  0.10503   0.956  0.000  0.000
   276H     0.03386  0.09180   0.966  0.000  0.000
   277H     0.02299  0.08179   0.977  0.000  0.000
   278H     0.02568  0.08371   0.974  0.000  0.000
   279H     0.03580  0.09389   0.964  0.000  0.000
   280H     0.03250  0.09132   0.968  0.000  0.000
   281H     0.16350  0.37145   0.837  0.000  0.000
   282H     0.03359  0.09155   0.966  0.000  0.000
   283H     0.04414  0.10507   0.956  0.000  0.000
   284H     0.22837  0.40648   0.772  0.000  0.000
   285H     0.04408  0.10499   0.956  0.000  0.000
   286H     0.03413  0.09209   0.966  0.000  0.000
   287H     0.02364  0.08244   0.976  0.000  0.000
   288H     0.02531  0.08335   0.975  0.000  0.000
   289C     0.01609  0.02333   1.083  2.901  0.000
   290C     0.06666  0.13159   1.110  2.824  0.000
   291C    -0.03401 -0.07847   1.079  2.955  0.000
   292C    -0.03301 -0.07795   1.074  2.959  0.000
   293C     0.06073  0.12418   1.096  2.843  0.000
   294N    -0.15542 -0.50789   1.313  3.842  0.000
   295C     0.01102  0.01668   1.092  2.897  0.000
   296C     0.01550  0.00684   1.093  2.892  0.000
   297C    -0.01586 -0.06906   1.080  2.936  0.000
   298C    -0.01030 -0.06094   1.096  2.914  0.000
   299C     0.03157  0.04052   1.152  2.817  0.000
   300S     0.45135  0.53845   1.582  2.656  1.310
   301O    -0.28188 -0.33261   1.698  4.584  0.000
   302O    -0.29144 -0.48619   1.691  4.601  0.000
   303O    -0.27870 -0.32887   1.702  4.577  0.000
   304C    -0.01086 -0.06150   1.096  2.915  0.000
   305C    -0.01698 -0.07009   1.079  2.938  0.000
   306C     0.05847  0.12653   1.115  2.826  0.000
   307C    -0.03755 -0.08358   1.084  2.953  0.000
   308C    -0.03840 -0.08387   1.090  2.948  0.000
   309N    -0.28438 -0.47061   1.292  3.992  0.000
   310C     0.06485  0.13568   1.130  2.805  0.000
   311C     0.01558  0.02282   1.082  2.902  0.000
   312C     0.06667  0.13159   1.110  2.824  0.000
   313C    -0.03418 -0.07864   1.079  2.956  0.000
   314C    -0.03280 -0.07775   1.074  2.959  0.000
   315C     0.06072  0.12418   1.096  2.844  0.000
   316N    -0.15552 -0.50800   1.313  3.842  0.000
   317C     0.01111  0.01678   1.092  2.897  0.000
   318C     0.01557  0.00691   1.093  2.891  0.000
   319C    -0.01584 -0.06903   1.081  2.935  0.000
   320C    -0.01025 -0.06089   1.096  2.914  0.000
   321C     0.03165  0.04061   1.152  2.816  0.000
   322S     0.45140  0.53852   1.582  2.657  1.310
   323O    -0.28014 -0.33050   1.700  4.580  0.000
   324O    -0.29113 -0.48594   1.691  4.600  0.000
   325O    -0.28134 -0.33175   1.700  4.581  0.000
   326C    -0.01076 -0.06140   1.096  2.915  0.000
   327C    -0.01698 -0.07010   1.078  2.939  0.000
   328C     0.05836  0.12640   1.115  2.826  0.000
   329C    -0.03779 -0.08380   1.084  2.953  0.000
   330C    -0.03830 -0.08377   1.090  2.948  0.000
   331C     0.06484  0.13572   1.130  2.805  0.000
   332N    -0.28418 -0.47042   1.292  3.992  0.000
   333H     0.03584  0.09392   0.964  0.000  0.000
   334H     0.03327  0.09209   0.967  0.000  0.000
   335H     0.16356  0.37151   0.836  0.000  0.000
   336H     0.03374  0.09171   0.966  0.000  0.000
   337H     0.04389  0.10489   0.956  0.000  0.000
   338H     0.22834  0.40658   0.772  0.000  0.000
   339H     0.04432  0.10517   0.956  0.000  0.000
   340H     0.03397  0.09192   0.966  0.000  0.000
   341H     0.02291  0.08173   0.977  0.000  0.000
   342H     0.02539  0.08343   0.975  0.000  0.000
   343H     0.03548  0.09357   0.965  0.000  0.000
   344H     0.03238  0.09121   0.968  0.000  0.000
   345H     0.16355  0.37150   0.836  0.000  0.000
   346H     0.03371  0.09166   0.966  0.000  0.000
   347H     0.04424  0.10517   0.956  0.000  0.000
   348H     0.22853  0.40665   0.771  0.000  0.000
   349H     0.04402  0.10493   0.956  0.000  0.000
   350H     0.03407  0.09203   0.966  0.000  0.000
   351H     0.02383  0.08262   0.976  0.000  0.000
   352H     0.02572  0.08376   0.974  0.000  0.000
   353C     0.01717  0.02441   1.084  2.899  0.000
   354C     0.06683  0.13176   1.110  2.824  0.000
   355C    -0.03342 -0.07788   1.079  2.954  0.000
   356C    -0.03278 -0.07773   1.074  2.959  0.000
   357C     0.06129  0.12473   1.096  2.842  0.000
   358N    -0.15519 -0.50766   1.313  3.842  0.000
   359C     0.01065  0.01633   1.092  2.898  0.000
   360C     0.01534  0.00669   1.093  2.892  0.000
   361C    -0.01600 -0.06920   1.080  2.936  0.000
   362C    -0.01034 -0.06098   1.096  2.914  0.000
   363C     0.03163  0.04058   1.152  2.816  0.000
   364S     0.45149  0.53857   1.582  2.656  1.310
   365O    -0.28154 -0.33224   1.698  4.583  0.000
   366O    -0.29139 -0.48613   1.691  4.601  0.000
   367O    -0.27894 -0.32914   1.702  4.577  0.000
   368C    -0.01073 -0.06137   1.096  2.915  0.000
   369C    -0.01697 -0.07008   1.079  2.938  0.000
   370C     0.05921  0.12741   1.116  2.825  0.000
   371C    -0.03712 -0.08315   1.085  2.952  0.000
   372C    -0.03809 -0.08358   1.090  2.948  0.000
   373N    -0.28472 -0.47098   1.292  3.993  0.000
   374C     0.06487  0.13555   1.130  2.805  0.000
   375C     0.01504  0.02229   1.081  2.903  0.000
   376C     0.06671  0.13156   1.109  2.824  0.000
   377C    -0.03418 -0.07864   1.079  2.956  0.000
   378C    -0.03257 -0.07753   1.074  2.958  0.000
   379C     0.06114  0.12465   1.096  2.843  0.000
   380N    -0.15580 -0.50827   1.313  3.843  0.000
   381C     0.01103  0.01670   1.092  2.897  0.000
   382C     0.01545  0.00679   1.093  2.892  0.000
   383C    -0.01584 -0.06903   1.081  2.935  0.000
   384C    -0.01020 -0.06084   1.096  2.914  0.000
   385C     0.03165  0.04061   1.152  2.816  0.000
   386S     0.45148  0.53859   1.582  2.657  1.310
   387O    -0.27997 -0.33029   1.700  4.580  0.000
   388O    -0.29085 -0.48566   1.691  4.600  0.000
   389O    -0.28171 -0.33213   1.700  4.582  0.000
   390C    -0.01085 -0.06148   1.096  2.915  0.000
   391C    -0.01709 -0.07021   1.078  2.939  0.000
   392C     0.05871  0.12678   1.116  2.826  0.000
   393C    -0.03763 -0.08365   1.084  2.953  0.000
   394C    -0.03787 -0.08334   1.090  2.947  0.000
   395C     0.06503  0.13589   1.130  2.805  0.000
   396N    -0.28378 -0.47004   1.292  3.992  0.000
   397H     0.03656  0.09465   0.963  0.000  0.000
   398H     0.03379  0.09260   0.966  0.000  0.000
   399H     0.16369  0.37166   0.836  0.000  0.000
   400H     0.03361  0.09160   0.966  0.000  0.000
   401H     0.04396  0.10496   0.956  0.000  0.000
   402H     0.22859  0.40683   0.771  0.000  0.000
   403H     0.04466  0.10551   0.955  0.000  0.000
   404H     0.03423  0.09218   0.966  0.000  0.000
   405H     0.02341  0.08222   0.977  0.000  0.000
   406H     0.02564  0.08369   0.974  0.000  0.000
   407H     0.03507  0.09315   0.965  0.000  0.000
   408H     0.03249  0.09131   0.968  0.000  0.000
   409H     0.16382  0.37180   0.836  0.000  0.000
   410H     0.03388  0.09184   0.966  0.000  0.000
   411H     0.04450  0.10544   0.955  0.000  0.000
   412H     0.22887  0.40699   0.771  0.000  0.000
   413H     0.04411  0.10501   0.956  0.000  0.000
   414H     0.03414  0.09211   0.966  0.000  0.000
   415H     0.02428  0.08308   0.976  0.000  0.000
   416H     0.02641  0.08444   0.974  0.000  0.000

Wiberg/Mayer (AO) data.
largest (>0.10) Wiberg bond orders for each atom

 ---------------------------------------------------------------------------
     #   Z sym  total        # sym  WBO       # sym  WBO       # sym  WBO
 ---------------------------------------------------------------------------
     1   6 C    3.816 --    43 C    1.387     2 C    1.372    45 H    0.995
     2   6 C    3.923 --     1 C    1.372     3 C    1.240     6 N    1.230
     3   6 C    3.839 --     4 C    1.599     2 C    1.240    46 H    0.992
     4   6 C    3.823 --     3 C    1.599     5 C    1.250    47 H    0.998
     5   6 C    3.899 --     7 C    1.340     4 C    1.250     6 N    1.232
     6   7 N    3.248 --     5 C    1.232     2 C    1.230    48 H    0.961
     7   6 C    3.843 --    18 C    1.367     5 C    1.340     8 C    1.053
     8   6 C    3.895 --    17 C    1.421     9 C    1.420     7 C    1.053
     9   6 C    3.862 --    10 C    1.454     8 C    1.420    49 H    0.987
    10   6 C    3.914 --     9 C    1.454    11 C    1.419    50 H    0.984
    11   6 C    3.939 --    16 C    1.420    10 C    1.419    12 S    0.890
    12  16 S    5.803 --    15 O    1.899    13 O    1.890    14 O    1.079
                            11 C    0.890
    13   8 O    2.223 --    12 S    1.890    15 O    0.135
    14   8 O    2.281 --    12 S    1.079    51 H    0.938    15 O    0.101
    15   8 O    2.237 --    12 S    1.899    13 O    0.135    14 O    0.101
    16   6 C    3.914 --    17 C    1.453    11 C    1.420    52 H    0.984
    17   6 C    3.866 --    16 C    1.453     8 C    1.421    53 H    0.987
    18   6 C    3.927 --     7 C    1.367    21 N    1.358    19 C    1.158
    19   6 C    3.840 --    20 C    1.697    18 C    1.158    54 H    0.998
    20   6 C    3.854 --    19 C    1.697    22 C    1.163    55 H    0.998
    21   7 N    2.564 --    22 C    1.409    18 C    1.358
    22   6 C    3.944 --    21 N    1.409    23 C    1.294    20 C    1.163
    23   6 C    3.851 --    22 C    1.294    24 C    1.291   134 C    1.210
    24   6 C    3.903 --    23 C    1.291    25 C    1.264    28 N    1.248
    25   6 C    3.834 --    26 C    1.586    24 C    1.264    56 H    0.998
    26   6 C    3.816 --    25 C    1.586    27 C    1.256    57 H    0.997
    27   6 C    3.894 --    29 C    1.343    26 C    1.256    28 N    1.224
    28   7 N    3.258 --    24 C    1.248    27 C    1.224    58 H    0.959
    29   6 C    3.830 --    40 C    1.356    27 C    1.343    30 C    1.055
    30   6 C    3.895 --    39 C    1.420    31 C    1.420    29 C    1.055
    31   6 C    3.862 --    32 C    1.454    30 C    1.420    59 H    0.987
    32   6 C    3.914 --    31 C    1.454    33 C    1.419    60 H    0.984
    33   6 C    3.939 --    38 C    1.419    32 C    1.419    34 S    0.891
    34  16 S    5.802 --    37 O    1.896    35 O    1.891    36 O    1.079
                            33 C    0.891
    35   8 O    2.225 --    34 S    1.891    37 O    0.135
    36   8 O    2.281 --    34 S    1.079    61 H    0.937    37 O    0.100
    37   8 O    2.234 --    34 S    1.896    35 O    0.135    36 O    0.100
    38   6 C    3.914 --    39 C    1.454    33 C    1.419    62 H    0.984
    39   6 C    3.865 --    38 C    1.454    30 C    1.420    63 H    0.987
    40   6 C    3.946 --    44 N    1.383    29 C    1.356    41 C    1.151
    41   6 C    3.843 --    42 C    1.710    40 C    1.151    64 H    0.998
    42   6 C    3.864 --    41 C    1.710    43 C    1.146    65 H    0.992
    43   6 C    3.967 --     1 C    1.387    44 N    1.374    42 C    1.146
    44   7 N    2.551 --    40 C    1.383    43 C    1.374
    45   1 H    1.031 --     1 C    0.995
    46   1 H    1.015 --     3 C    0.992
    47   1 H    1.029 --     4 C    0.998
    48   1 H    1.081 --     6 N    0.961
    49   1 H    1.043 --     9 C    0.987
    50   1 H    1.041 --    10 C    0.984
    51   1 H    1.016 --    14 O    0.938
    52   1 H    1.043 --    16 C    0.984
    53   1 H    1.046 --    17 C    0.987
    54   1 H    1.034 --    19 C    0.998
    55   1 H    1.031 --    20 C    0.998
    56   1 H    1.027 --    25 C    0.998
    57   1 H    1.029 --    26 C    0.997
    58   1 H    1.084 --    28 N    0.959
    59   1 H    1.043 --    31 C    0.987
    60   1 H    1.041 --    32 C    0.984
    61   1 H    1.015 --    36 O    0.937
    62   1 H    1.043 --    38 C    0.984
    63   1 H    1.046 --    39 C    0.987
    64   1 H    1.035 --    41 C    0.998
    65   1 H    1.018 --    42 C    0.992
    66   6 C    3.817 --   108 C    1.387    67 C    1.373   110 H    0.995
    67   6 C    3.924 --    66 C    1.373    68 C    1.240    71 N    1.230
    68   6 C    3.839 --    69 C    1.600    67 C    1.240   111 H    0.992
    69   6 C    3.823 --    68 C    1.600    70 C    1.249   112 H    0.998
    70   6 C    3.899 --    72 C    1.341    69 C    1.249    71 N    1.232
    71   7 N    3.248 --    70 C    1.232    67 C    1.230   113 H    0.960
    72   6 C    3.844 --    83 C    1.367    70 C    1.341    73 C    1.053
    73   6 C    3.895 --    82 C    1.421    74 C    1.420    72 C    1.053
    74   6 C    3.862 --    75 C    1.454    73 C    1.420   114 H    0.987
    75   6 C    3.914 --    74 C    1.454    76 C    1.419   115 H    0.984
    76   6 C    3.939 --    81 C    1.420    75 C    1.419    77 S    0.890
    77  16 S    5.803 --    80 O    1.899    78 O    1.890    79 O    1.079
                            76 C    0.890
    78   8 O    2.222 --    77 S    1.890    80 O    0.135
    79   8 O    2.281 --    77 S    1.079   116 H    0.938    80 O    0.101
    80   8 O    2.238 --    77 S    1.899    78 O    0.135    79 O    0.101
    81   6 C    3.914 --    82 C    1.453    76 C    1.420   117 H    0.984
    82   6 C    3.866 --    81 C    1.453    73 C    1.421   118 H    0.987
    83   6 C    3.927 --    72 C    1.367    86 N    1.358    84 C    1.159
    84   6 C    3.840 --    85 C    1.697    83 C    1.159   119 H    0.998
    85   6 C    3.854 --    84 C    1.697    87 C    1.163   120 H    0.998
    86   7 N    2.565 --    87 C    1.409    83 C    1.358
    87   6 C    3.944 --    86 N    1.409    88 C    1.293    85 C    1.163
    88   6 C    3.852 --    87 C    1.293    89 C    1.291   160 C    1.210
    89   6 C    3.903 --    88 C    1.291    90 C    1.264    93 N    1.248
    90   6 C    3.835 --    91 C    1.587    89 C    1.264   121 H    0.997
    91   6 C    3.817 --    90 C    1.587    92 C    1.256   122 H    0.997
    92   6 C    3.894 --    94 C    1.343    91 C    1.256    93 N    1.224
    93   7 N    3.258 --    89 C    1.248    92 C    1.224   123 H    0.959
    94   6 C    3.831 --   105 C    1.356    92 C    1.343    95 C    1.055
    95   6 C    3.895 --   104 C    1.420    96 C    1.420    94 C    1.055
    96   6 C    3.862 --    97 C    1.454    95 C    1.420   124 H    0.987
    97   6 C    3.914 --    96 C    1.454    98 C    1.419   125 H    0.984
    98   6 C    3.939 --   103 C    1.419    97 C    1.419    99 S    0.891
    99  16 S    5.802 --   102 O    1.895   100 O    1.891   101 O    1.080
                            98 C    0.891
   100   8 O    2.225 --    99 S    1.891   102 O    0.135
   101   8 O    2.281 --    99 S    1.080   126 H    0.937   102 O    0.100
   102   8 O    2.233 --    99 S    1.895   100 O    0.135   101 O    0.100
   103   6 C    3.914 --   104 C    1.454    98 C    1.419   127 H    0.984
   104   6 C    3.865 --   103 C    1.454    95 C    1.420   128 H    0.987
   105   6 C    3.946 --   109 N    1.383    94 C    1.356   106 C    1.151
   106   6 C    3.843 --   107 C    1.710   105 C    1.151   129 H    0.998
   107   6 C    3.864 --   106 C    1.710   108 C    1.146   130 H    0.992
   108   6 C    3.967 --    66 C    1.387   109 N    1.374   107 C    1.146
   109   7 N    2.552 --   105 C    1.383   108 C    1.374
   110   1 H    1.031 --    66 C    0.995
   111   1 H    1.015 --    68 C    0.992
   112   1 H    1.029 --    69 C    0.998
   113   1 H    1.081 --    71 N    0.960
   114   1 H    1.043 --    74 C    0.987
   115   1 H    1.041 --    75 C    0.984
   116   1 H    1.016 --    79 O    0.938
   117   1 H    1.043 --    81 C    0.984
   118   1 H    1.046 --    82 C    0.987
   119   1 H    1.034 --    84 C    0.998
   120   1 H    1.031 --    85 C    0.998
   121   1 H    1.027 --    90 C    0.997
   122   1 H    1.029 --    91 C    0.997
   123   1 H    1.084 --    93 N    0.959
   124   1 H    1.043 --    96 C    0.987
   125   1 H    1.041 --    97 C    0.984
   126   1 H    1.015 --   101 O    0.937
   127   1 H    1.042 --   103 C    0.984
   128   1 H    1.046 --   104 C    0.987
   129   1 H    1.035 --   106 C    0.998
   130   1 H    1.018 --   107 C    0.992
   131   6 C    3.835 --   132 C    2.387   135 C    1.347   134 C    0.171
   132   6 C    3.831 --   131 C    2.387   133 C    1.345   136 C    0.171
   133   6 C    3.810 --   134 C    2.485   132 C    1.345
   134   6 C    3.766 --   133 C    2.485    23 C    1.210   131 C    0.171
   135   6 C    3.804 --   136 C    2.480   131 C    1.347
   136   6 C    3.768 --   135 C    2.480   161 C    1.214   132 C    0.171
   137   6 C    3.834 --   138 C    2.367   141 C    1.363   140 C    0.169
   138   6 C    3.833 --   137 C    2.367   139 C    1.362   142 C    0.169
   139   6 C    3.803 --   140 C    2.463   138 C    1.362
   140   6 C    3.767 --   139 C    2.463   183 C    1.230   137 C    0.169
   141   6 C    3.803 --   142 C    2.462   137 C    1.363
   142   6 C    3.767 --   141 C    2.462   225 C    1.230   138 C    0.169
   143   6 C    3.833 --   144 C    2.366   147 C    1.363   146 C    0.169
   144   6 C    3.833 --   143 C    2.366   145 C    1.363   148 C    0.169
   145   6 C    3.803 --   146 C    2.462   144 C    1.363
   146   6 C    3.767 --   145 C    2.462   247 C    1.230   143 C    0.169
   147   6 C    3.803 --   148 C    2.462   143 C    1.363
   148   6 C    3.767 --   147 C    2.462   289 C    1.230   144 C    0.169
   149   6 C    3.833 --   150 C    2.367   153 C    1.362   152 C    0.169
   150   6 C    3.834 --   149 C    2.367   151 C    1.362   154 C    0.169
   151   6 C    3.803 --   152 C    2.463   150 C    1.362
   152   6 C    3.768 --   151 C    2.463   311 C    1.230   149 C    0.169
   153   6 C    3.803 --   154 C    2.463   149 C    1.362
   154   6 C    3.767 --   153 C    2.463   353 C    1.229   150 C    0.169
   155   6 C    3.832 --   156 C    2.386   159 C    1.346   158 C    0.171
   156   6 C    3.835 --   155 C    2.386   157 C    1.348   160 C    0.171
   157   6 C    3.805 --   158 C    2.479   156 C    1.348
   158   6 C    3.769 --   157 C    2.479   375 C    1.215   155 C    0.171
   159   6 C    3.810 --   160 C    2.484   155 C    1.346
   160   6 C    3.766 --   159 C    2.484    88 C    1.210   156 C    0.171
   161   6 C    3.829 --   203 C    1.289   162 C    1.284   136 C    1.214
   162   6 C    3.905 --   161 C    1.284   163 C    1.269   166 N    1.250
   163   6 C    3.827 --   164 C    1.580   162 C    1.269   205 H    0.998
   164   6 C    3.820 --   163 C    1.580   165 C    1.262   206 H    0.998
   165   6 C    3.886 --   167 C    1.337   164 C    1.262   166 N    1.221
   166   7 N    3.248 --   162 C    1.250   165 C    1.221   207 H    0.961
   167   6 C    3.836 --   178 C    1.372   165 C    1.337   168 C    1.051
   168   6 C    3.895 --   169 C    1.422   177 C    1.421   167 C    1.051
   169   6 C    3.866 --   170 C    1.453   168 C    1.422   208 H    0.987
   170   6 C    3.914 --   169 C    1.453   171 C    1.420   209 H    0.984
   171   6 C    3.939 --   170 C    1.420   176 C    1.419   172 S    0.890
   172  16 S    5.802 --   175 O    1.897   173 O    1.891   174 O    1.079
                           171 C    0.890
   173   8 O    2.225 --   172 S    1.891   175 O    0.135
   174   8 O    2.281 --   172 S    1.079   210 H    0.938   175 O    0.100
   175   8 O    2.234 --   172 S    1.897   173 O    0.135   174 O    0.100
   176   6 C    3.914 --   177 C    1.454   171 C    1.419   211 H    0.984
   177   6 C    3.862 --   176 C    1.454   168 C    1.421   212 H    0.987
   178   6 C    3.923 --   167 C    1.372   181 N    1.352   179 C    1.161
   179   6 C    3.838 --   180 C    1.692   178 C    1.161   213 H    0.998
   180   6 C    3.849 --   179 C    1.692   182 C    1.167   214 H    0.999
   181   7 N    2.550 --   182 C    1.416   178 C    1.352
   182   6 C    3.941 --   181 N    1.416   183 C    1.282   180 C    1.167
   183   6 C    3.829 --   182 C    1.282   184 C    1.279   140 C    1.230
   184   6 C    3.902 --   183 C    1.279   185 C    1.272   188 N    1.251
   185   6 C    3.828 --   186 C    1.576   184 C    1.272   215 H    0.998
   186   6 C    3.815 --   185 C    1.576   187 C    1.263   216 H    0.998
   187   6 C    3.885 --   189 C    1.334   186 C    1.263   188 N    1.223
   188   7 N    3.251 --   184 C    1.251   187 C    1.223   217 H    0.961
   189   6 C    3.832 --   200 C    1.374   187 C    1.334   190 C    1.052
   190   6 C    3.895 --   191 C    1.422   199 C    1.421   189 C    1.052
   191   6 C    3.866 --   192 C    1.454   190 C    1.422   218 H    0.987
   192   6 C    3.914 --   191 C    1.454   193 C    1.419   219 H    0.984
   193   6 C    3.939 --   192 C    1.419   198 C    1.419   194 S    0.890
   194  16 S    5.802 --   195 O    1.894   197 O    1.892   196 O    1.080
                           193 C    0.890
   195   8 O    2.230 --   194 S    1.894   197 O    0.135
   196   8 O    2.282 --   194 S    1.080   220 H    0.937
   197   8 O    2.228 --   194 S    1.892   195 O    0.135
   198   6 C    3.913 --   199 C    1.454   193 C    1.419   221 H    0.984
   199   6 C    3.862 --   198 C    1.454   190 C    1.421   222 H    0.987
   200   6 C    3.926 --   189 C    1.374   204 N    1.352   201 C    1.159
   201   6 C    3.840 --   202 C    1.695   200 C    1.159   223 H    0.999
   202   6 C    3.850 --   201 C    1.695   203 C    1.165   224 H    0.999
   203   6 C    3.945 --   204 N    1.413   161 C    1.289   202 C    1.165
   204   7 N    2.546 --   203 C    1.413   200 C    1.352
   205   1 H    1.028 --   163 C    0.998
   206   1 H    1.030 --   164 C    0.998
   207   1 H    1.082 --   166 N    0.961
   208   1 H    1.046 --   169 C    0.987
   209   1 H    1.043 --   170 C    0.984
   210   1 H    1.016 --   174 O    0.938
   211   1 H    1.042 --   176 C    0.984
   212   1 H    1.043 --   177 C    0.987
   213   1 H    1.037 --   179 C    0.998
   214   1 H    1.031 --   180 C    0.999
   215   1 H    1.027 --   185 C    0.998
   216   1 H    1.031 --   186 C    0.998
   217   1 H    1.082 --   188 N    0.961
   218   1 H    1.046 --   191 C    0.987
   219   1 H    1.043 --   192 C    0.984
   220   1 H    1.016 --   196 O    0.937
   221   1 H    1.041 --   198 C    0.984
   222   1 H    1.043 --   199 C    0.987
   223   1 H    1.033 --   201 C    0.999
   224   1 H    1.032 --   202 C    0.999
   225   6 C    3.827 --   267 C    1.281   226 C    1.278   142 C    1.230
   226   6 C    3.903 --   225 C    1.278   227 C    1.272   230 N    1.252
   227   6 C    3.827 --   228 C    1.576   226 C    1.272   269 H    0.998
   228   6 C    3.818 --   227 C    1.576   229 C    1.264   270 H    0.998
   229   6 C    3.886 --   231 C    1.335   228 C    1.264   230 N    1.221
   230   7 N    3.249 --   226 C    1.252   229 C    1.221   271 H    0.961
   231   6 C    3.834 --   242 C    1.374   229 C    1.335   232 C    1.051
   232   6 C    3.895 --   233 C    1.422   241 C    1.421   231 C    1.051
   233   6 C    3.866 --   234 C    1.453   232 C    1.422   272 H    0.987
   234   6 C    3.914 --   233 C    1.453   235 C    1.420   273 H    0.984
   235   6 C    3.939 --   234 C    1.420   240 C    1.419   236 S    0.890
   236  16 S    5.804 --   239 O    1.899   237 O    1.889   238 O    1.081
                           235 C    0.890
   237   8 O    2.221 --   236 S    1.889   239 O    0.134
   238   8 O    2.283 --   236 S    1.081   274 H    0.938   239 O    0.101
   239   8 O    2.238 --   236 S    1.899   237 O    0.134   238 O    0.101
   240   6 C    3.913 --   241 C    1.454   235 C    1.419   275 H    0.984
   241   6 C    3.862 --   240 C    1.454   232 C    1.421   276 H    0.987
   242   6 C    3.924 --   231 C    1.374   245 N    1.350   243 C    1.161
   243   6 C    3.839 --   244 C    1.692   242 C    1.161   277 H    0.998
   244   6 C    3.849 --   243 C    1.692   246 C    1.167   278 H    0.999
   245   7 N    2.547 --   246 C    1.417   242 C    1.350
   246   6 C    3.942 --   245 N    1.417   247 C    1.281   244 C    1.167
   247   6 C    3.827 --   246 C    1.281   248 C    1.278   146 C    1.230
   248   6 C    3.903 --   247 C    1.278   249 C    1.272   252 N    1.252
   249   6 C    3.828 --   250 C    1.576   248 C    1.272   279 H    0.998
   250   6 C    3.818 --   249 C    1.576   251 C    1.264   280 H    0.998
   251   6 C    3.885 --   253 C    1.334   250 C    1.264   252 N    1.222
   252   7 N    3.249 --   248 C    1.252   251 C    1.222   281 H    0.961
   253   6 C    3.834 --   264 C    1.375   251 C    1.334   254 C    1.051
   254   6 C    3.895 --   255 C    1.422   263 C    1.421   253 C    1.051
   255   6 C    3.866 --   256 C    1.454   254 C    1.422   282 H    0.987
   256   6 C    3.914 --   255 C    1.454   257 C    1.419   283 H    0.984
   257   6 C    3.939 --   256 C    1.419   262 C    1.419   258 S    0.890
   258  16 S    5.803 --   259 O    1.894   261 O    1.893   260 O    1.081
                           257 C    0.890
   259   8 O    2.229 --   258 S    1.894   261 O    0.135
   260   8 O    2.283 --   258 S    1.081   284 H    0.937
   261   8 O    2.228 --   258 S    1.893   259 O    0.135
   262   6 C    3.914 --   263 C    1.453   257 C    1.419   285 H    0.984
   263   6 C    3.862 --   262 C    1.453   254 C    1.421   286 H    0.987
   264   6 C    3.924 --   253 C    1.375   268 N    1.350   265 C    1.161
   265   6 C    3.839 --   266 C    1.692   264 C    1.161   287 H    0.999
   266   6 C    3.849 --   265 C    1.692   267 C    1.167   288 H    0.999
   267   6 C    3.942 --   268 N    1.418   225 C    1.281   266 C    1.167
   268   7 N    2.547 --   267 C    1.418   264 C    1.350
   269   1 H    1.027 --   227 C    0.998
   270   1 H    1.030 --   228 C    0.998
   271   1 H    1.082 --   230 N    0.961
   272   1 H    1.046 --   233 C    0.987
   273   1 H    1.043 --   234 C    0.984
   274   1 H    1.016 --   238 O    0.938
   275   1 H    1.041 --   240 C    0.984
   276   1 H    1.043 --   241 C    0.987
   277   1 H    1.037 --   243 C    0.998
   278   1 H    1.032 --   244 C    0.999
   279   1 H    1.027 --   249 C    0.998
   280   1 H    1.031 --   250 C    0.998
   281   1 H    1.082 --   252 N    0.961
   282   1 H    1.047 --   255 C    0.987
   283   1 H    1.043 --   256 C    0.984
   284   1 H    1.015 --   260 O    0.937
   285   1 H    1.042 --   262 C    0.984
   286   1 H    1.043 --   263 C    0.987
   287   1 H    1.035 --   265 C    0.999
   288   1 H    1.032 --   266 C    0.999
   289   6 C    3.828 --   331 C    1.281   290 C    1.278   148 C    1.230
   290   6 C    3.903 --   289 C    1.278   291 C    1.272   294 N    1.252
   291   6 C    3.828 --   292 C    1.576   290 C    1.272   333 H    0.998
   292   6 C    3.818 --   291 C    1.576   293 C    1.264   334 H    0.998
   293   6 C    3.886 --   295 C    1.334   292 C    1.264   294 N    1.222
   294   7 N    3.249 --   290 C    1.252   293 C    1.222   335 H    0.961
   295   6 C    3.834 --   306 C    1.375   293 C    1.334   296 C    1.051
   296   6 C    3.895 --   297 C    1.422   305 C    1.421   295 C    1.051
   297   6 C    3.866 --   298 C    1.453   296 C    1.422   336 H    0.987
   298   6 C    3.914 --   297 C    1.453   299 C    1.420   337 H    0.984
   299   6 C    3.939 --   298 C    1.420   304 C    1.419   300 S    0.890
   300  16 S    5.804 --   303 O    1.899   301 O    1.889   302 O    1.081
                           299 C    0.890
   301   8 O    2.221 --   300 S    1.889   303 O    0.134
   302   8 O    2.283 --   300 S    1.081   338 H    0.938   303 O    0.101
   303   8 O    2.238 --   300 S    1.899   301 O    0.134   302 O    0.101
   304   6 C    3.913 --   305 C    1.454   299 C    1.419   339 H    0.984
   305   6 C    3.862 --   304 C    1.454   296 C    1.421   340 H    0.987
   306   6 C    3.924 --   295 C    1.375   309 N    1.350   307 C    1.160
   307   6 C    3.839 --   308 C    1.692   306 C    1.160   341 H    0.998
   308   6 C    3.849 --   307 C    1.692   310 C    1.167   342 H    0.999
   309   7 N    2.547 --   310 C    1.418   306 C    1.350
   310   6 C    3.942 --   309 N    1.418   311 C    1.281   308 C    1.167
   311   6 C    3.827 --   310 C    1.281   312 C    1.278   152 C    1.230
   312   6 C    3.903 --   311 C    1.278   313 C    1.272   316 N    1.252
   313   6 C    3.827 --   314 C    1.576   312 C    1.272   343 H    0.998
   314   6 C    3.818 --   313 C    1.576   315 C    1.264   344 H    0.998
   315   6 C    3.886 --   317 C    1.335   314 C    1.264   316 N    1.221
   316   7 N    3.248 --   312 C    1.252   315 C    1.221   345 H    0.961
   317   6 C    3.834 --   328 C    1.374   315 C    1.335   318 C    1.051
   318   6 C    3.895 --   319 C    1.422   327 C    1.421   317 C    1.051
   319   6 C    3.866 --   320 C    1.453   318 C    1.422   346 H    0.987
   320   6 C    3.914 --   319 C    1.453   321 C    1.419   347 H    0.984
   321   6 C    3.939 --   320 C    1.419   326 C    1.419   322 S    0.890
   322  16 S    5.803 --   323 O    1.894   325 O    1.892   324 O    1.081
                           321 C    0.890
   323   8 O    2.230 --   322 S    1.894   325 O    0.135
   324   8 O    2.283 --   322 S    1.081   348 H    0.937
   325   8 O    2.227 --   322 S    1.892   323 O    0.135
   326   6 C    3.913 --   327 C    1.453   321 C    1.419   349 H    0.984
   327   6 C    3.862 --   326 C    1.453   318 C    1.421   350 H    0.987
   328   6 C    3.924 --   317 C    1.374   332 N    1.350   329 C    1.161
   329   6 C    3.839 --   330 C    1.692   328 C    1.161   351 H    0.999
   330   6 C    3.849 --   329 C    1.692   331 C    1.167   352 H    0.999
   331   6 C    3.942 --   332 N    1.418   289 C    1.281   330 C    1.167
   332   7 N    2.548 --   331 C    1.418   328 C    1.350
   333   1 H    1.027 --   291 C    0.998
   334   1 H    1.029 --   292 C    0.998
   335   1 H    1.082 --   294 N    0.961
   336   1 H    1.046 --   297 C    0.987
   337   1 H    1.043 --   298 C    0.984
   338   1 H    1.016 --   302 O    0.938
   339   1 H    1.041 --   304 C    0.984
   340   1 H    1.043 --   305 C    0.987
   341   1 H    1.037 --   307 C    0.998
   342   1 H    1.032 --   308 C    0.999
   343   1 H    1.027 --   313 C    0.998
   344   1 H    1.031 --   314 C    0.998
   345   1 H    1.082 --   316 N    0.961
   346   1 H    1.046 --   319 C    0.987
   347   1 H    1.043 --   320 C    0.984
   348   1 H    1.015 --   324 O    0.937
   349   1 H    1.042 --   326 C    0.984
   350   1 H    1.043 --   327 C    0.987
   351   1 H    1.035 --   329 C    0.999
   352   1 H    1.032 --   330 C    0.999
   353   6 C    3.830 --   395 C    1.282   354 C    1.279   154 C    1.229
   354   6 C    3.902 --   353 C    1.279   355 C    1.272   358 N    1.251
   355   6 C    3.828 --   356 C    1.577   354 C    1.272   397 H    0.998
   356   6 C    3.816 --   355 C    1.577   357 C    1.263   398 H    0.998
   357   6 C    3.886 --   359 C    1.334   356 C    1.263   358 N    1.223
   358   7 N    3.251 --   354 C    1.251   357 C    1.223   399 H    0.961
   359   6 C    3.833 --   370 C    1.374   357 C    1.334   360 C    1.052
   360   6 C    3.895 --   361 C    1.422   369 C    1.421   359 C    1.052
   361   6 C    3.866 --   362 C    1.453   360 C    1.422   400 H    0.987
   362   6 C    3.914 --   361 C    1.453   363 C    1.420   401 H    0.984
   363   6 C    3.939 --   362 C    1.420   368 C    1.419   364 S    0.890
   364  16 S    5.804 --   367 O    1.898   365 O    1.890   366 O    1.081
                           363 C    0.890
   365   8 O    2.222 --   364 S    1.890   367 O    0.134
   366   8 O    2.283 --   364 S    1.081   402 H    0.937   367 O    0.101
   367   8 O    2.237 --   364 S    1.898   365 O    0.134   366 O    0.101
   368   6 C    3.913 --   369 C    1.454   363 C    1.419   403 H    0.984
   369   6 C    3.862 --   368 C    1.454   360 C    1.421   404 H    0.987
   370   6 C    3.925 --   359 C    1.374   373 N    1.353   371 C    1.159
   371   6 C    3.840 --   372 C    1.695   370 C    1.159   405 H    0.998
   372   6 C    3.850 --   371 C    1.695   374 C    1.165   406 H    0.999
   373   7 N    2.546 --   374 C    1.412   370 C    1.353
   374   6 C    3.944 --   373 N    1.412   375 C    1.289   372 C    1.165
   375   6 C    3.830 --   374 C    1.289   376 C    1.284   158 C    1.215
   376   6 C    3.905 --   375 C    1.284   377 C    1.269   380 N    1.250
   377   6 C    3.828 --   378 C    1.580   376 C    1.269   407 H    0.998
   378   6 C    3.818 --   377 C    1.580   379 C    1.261   408 H    0.998
   379   6 C    3.886 --   381 C    1.337   378 C    1.261   380 N    1.222
   380   7 N    3.248 --   376 C    1.250   379 C    1.222   409 H    0.961
   381   6 C    3.836 --   392 C    1.372   379 C    1.337   382 C    1.052
   382   6 C    3.895 --   383 C    1.422   391 C    1.421   381 C    1.052
   383   6 C    3.866 --   384 C    1.453   382 C    1.422   410 H    0.987
   384   6 C    3.914 --   383 C    1.453   385 C    1.419   411 H    0.984
   385   6 C    3.939 --   384 C    1.419   390 C    1.419   386 S    0.890
   386  16 S    5.803 --   387 O    1.895   389 O    1.891   388 O    1.081
                           385 C    0.890
   387   8 O    2.231 --   386 S    1.895   389 O    0.135
   388   8 O    2.283 --   386 S    1.081   412 H    0.937
   389   8 O    2.226 --   386 S    1.891   387 O    0.135
   390   6 C    3.913 --   391 C    1.454   385 C    1.419   413 H    0.984
   391   6 C    3.862 --   390 C    1.454   382 C    1.421   414 H    0.987
   392   6 C    3.923 --   381 C    1.372   396 N    1.352   393 C    1.161
   393   6 C    3.838 --   394 C    1.692   392 C    1.161   415 H    0.998
   394   6 C    3.849 --   393 C    1.692   395 C    1.167   416 H    0.999
   395   6 C    3.942 --   396 N    1.416   353 C    1.282   394 C    1.167
   396   7 N    2.551 --   395 C    1.416   392 C    1.352
   397   1 H    1.027 --   355 C    0.998
   398   1 H    1.029 --   356 C    0.998
   399   1 H    1.082 --   358 N    0.961
   400   1 H    1.046 --   361 C    0.987
   401   1 H    1.043 --   362 C    0.984
   402   1 H    1.015 --   366 O    0.937
   403   1 H    1.041 --   368 C    0.984
   404   1 H    1.043 --   369 C    0.987
   405   1 H    1.035 --   371 C    0.998
   406   1 H    1.031 --   372 C    0.999
   407   1 H    1.028 --   377 C    0.998
   408   1 H    1.032 --   378 C    0.998
   409   1 H    1.082 --   380 N    0.961
   410   1 H    1.046 --   383 C    0.987
   411   1 H    1.043 --   384 C    0.984
   412   1 H    1.015 --   388 O    0.937
   413   1 H    1.042 --   390 C    0.984
   414   1 H    1.043 --   391 C    0.987
   415   1 H    1.033 --   393 C    0.998
   416   1 H    1.031 --   394 C    0.999
 ---------------------------------------------------------------------------

Topologies differ in total number of bonds
Writing topology from bond orders to xtbtopo.mol

 dipole moment from electron density (au)
     X       Y       Z   
-223.2758   0.1514   1.3519  total (Debye):  567.521


           -------------------------------------------------
          | TOTAL ENERGY             -909.138107425401 Eh   |
          | GRADIENT NORM               0.141424787560 Eh/α |
          | HOMO-LUMO GAP               0.079714529439 eV   |
           -------------------------------------------------
########################################################################
[WARNING] Runtime exception occurred
-1- restart_readRestart: Dimension missmatch in restart file.
########################################################################

------------------------------------------------------------------------
 * finished run on 2022/07/31 at 17:34:33.129     
------------------------------------------------------------------------
 total:
 * wall-time:     0 d,  0 h,  1 min, 20.011 sec
 *  cpu-time:     0 d,  0 h,  1 min, 19.641 sec
 * ratio c/w:     0.995 speedup
 SCF:
 * wall-time:     0 d,  0 h,  1 min, 18.938 sec
 *  cpu-time:     0 d,  0 h,  1 min, 18.575 sec
 * ratio c/w:     0.995 speedup

