      -----------------------------------------------------------      
     |                   =====================                   |     
     |                           x T B                           |     
     |                   =====================                   |     
     |                         S. Grimme                         |     
     |          Mulliken Center for Theoretical Chemistry        |     
     |                    University of Bonn                     |     
      -----------------------------------------------------------      

   * xtb version 6.5.1 (b24c23e) compiled by 'conda@728c89f4b128' on 2022-07-12

   xtb is free software: you can redistribute it and/or modify it under
   the terms of the GNU Lesser General Public License as published by
   the Free Software Foundation, either version 3 of the License, or
   (at your option) any later version.
   
   xtb is distributed in the hope that it will be useful,
   but WITHOUT ANY WARRANTY; without even the implied warranty of
   MERCHANTABILITY or FITNESS FOR A PARTICULAR PURPOSE.  See the
   GNU Lesser General Public License for more details.
   
   Cite this work as:
   * C. Bannwarth, E. Caldeweyher, S. Ehlert, A. Hansen, P. Pracht,
     J. Seibert, S. Spicher, S. Grimme, WIREs Comput. Mol. Sci., 2020, 11,
     e01493. DOI: 10.1002/wcms.1493
   
   for GFN2-xTB:
   * C. Bannwarth, S. Ehlert and S. Grimme., J. Chem. Theory Comput., 2019,
     15, 1652-1671. DOI: 10.1021/acs.jctc.8b01176
   for GFN1-xTB:
   * S. Grimme, C. Bannwarth, P. Shushkov, J. Chem. Theory Comput., 2017,
     13, 1989-2009. DOI: 10.1021/acs.jctc.7b00118
   for GFN0-xTB:
   * P. Pracht, E. Caldeweyher, S. Ehlert, S. Grimme, ChemRxiv, 2019, preprint.
     DOI: 10.26434/chemrxiv.8326202.v1
   for GFN-FF:
   * S. Spicher and S. Grimme, Angew. Chem. Int. Ed., 2020, 59, 15665-15673.
     DOI: 10.1002/anie.202004239
   
   for ALPB and GBSA implicit solvation:
   * S. Ehlert, M. Stahn, S. Spicher, S. Grimme, J. Chem. Theory Comput.,
     2021, 17, 4250-4261. DOI: 10.1021/acs.jctc.1c00471
   
   for DFT-D4:
   * E. Caldeweyher, C. Bannwarth and S. Grimme, J. Chem. Phys., 2017,
     147, 034112. DOI: 10.1063/1.4993215
   * E. Caldeweyher, S. Ehlert, A. Hansen, H. Neugebauer, S. Spicher,
     C. Bannwarth and S. Grimme, J. Chem. Phys., 2019, 150, 154122.
     DOI: 10.1063/1.5090222
   * E. Caldeweyher, J.-M. Mewes, S. Ehlert and S. Grimme, Phys. Chem. Chem. Phys.
     2020, 22, 8499-8512. DOI: 10.1039/D0CP00502A
   
   for sTDA-xTB:
   * S. Grimme and C. Bannwarth, J. Chem. Phys., 2016, 145, 054103.
     DOI: 10.1063/1.4959605
   
   in the mass-spec context:
   * V. Asgeirsson, C. Bauer and S. Grimme, Chem. Sci., 2017, 8, 4879.
     DOI: 10.1039/c7sc00601b
   * J. Koopman and S. Grimme, ACS Omega 2019, 4, 12, 15120-15133.
     DOI: 10.1021/acsomega.9b02011
   
   for metadynamics refer to:
   * S. Grimme, J. Chem. Theory Comput., 2019, 155, 2847-2862
     DOI: 10.1021/acs.jctc.9b00143
   
   for SPH calculations refer to:
   * S. Spicher and S. Grimme, J. Chem. Theory Comput., 2021, 17, 1701-1714
     DOI: 10.1021/acs.jctc.0c01306
   
   with help from (in alphabetical order)
   P. Atkinson, C. Bannwarth, F. Bohle, G. Brandenburg, E. Caldeweyher
   M. Checinski, S. Dohm, S. Ehlert, S. Ehrlich, I. Gerasimov, C. Hölzer
   A. Katbashev, J. Koopman, C. Lavigne, S. Lehtola, F. März, M. Müller,
   F. Musil, H. Neugebauer, J. Pisarek, C. Plett, P. Pracht, F. Pultar,
   J. Seibert, P. Shushkov, S. Spicher, M. Stahn, M. Steiner, T. Strunk,
   J. Stückrath, T. Rose, and J. Unsleber
   
 * started run on 2022/07/29 at 19:05:25.897     

           -------------------------------------------------
          |                Calculation Setup                |
           -------------------------------------------------

          program call               : xtb xtbopt.xyz --gfn 1 --vipea
          hostname                   : cx3-2-25.cx3.hpc.ic.ac.uk
          coordinate file            : xtbopt.xyz
          omp threads                :                     1

   ID    Z sym.   atoms
    1    6 C      1-5, 7-10, 12-20, 22-26, 28-32, 35, 36, 38-42, 44, 74-78,
                  80-83, 85-93, 95-99, 101-105, 108, 109, 111-115, 117,
                  147-161, 163-166, 168-176, 178-182, 184-188, 191, 192,
                  194-198, 200, 229-233, 235-238, 240-248, 250-254, 256-260,
                  263, 264, 266-270, 272, 301-305, 307-310, 312-320, 322-326,
                  328-332, 335, 336, 338-342, 344, 373-377, 379-382, 384-392,
                  394-398, 400-404, 407, 408, 410-414, 416
    2    7 N      6, 11, 33, 34, 79, 84, 106, 107, 162, 167, 189, 190, 234,
                  239, 261, 262, 306, 311, 333, 334, 378, 383, 405, 406
    3    8 O      21, 27, 37, 43, 94, 100, 110, 116, 177, 183, 193, 199, 249,
                  255, 265, 271, 321, 327, 337, 343, 393, 399, 409, 415
    4    1 H      45-73, 118-146, 201-228, 273-300, 345-372, 417-444

           -------------------------------------------------
          |                 I P E A - x T B                 |
           -------------------------------------------------

        Reference                      10.1039/c7sc00601b
      * Hamiltonian:
        H0-scaling (s, p, d)           2.150000    2.300000    2.000000
        zeta-weighting                 0.000000
      * Dispersion:
        s8                             2.400000
        a1                             0.630000
        a2                             5.000000
        s9                             0.000000
      * Repulsion:
        kExp                           1.500000
        rExp                           1.000000
      * Coulomb:
        alpha                          1.000000
        third order                    atomic
        anisotropic                    false
      * Halogen bond correction:
        rad-scale                      1.300000
        damping                        0.440000


          ...................................................
          :                      SETUP                      :
          :.................................................:
          :  # basis functions                1710          :
          :  # atomic orbitals                1710          :
          :  # shells                         1162          :
          :  # electrons                      1338          :
          :  # halogen bonds                     0          :
          :  max. iterations                   250          :
          :  Hamiltonian                  GFN1-xTB          :
          :  restarted?                      false          :
          :  GBSA solvation                  false          :
          :  PC potential                    false          :
          :  electronic temp.          300.0000000     K    :
          :  accuracy                    1.0000000          :
          :  -> integral cutoff          0.2500000E+02      :
          :  -> integral neglect         0.1000000E-07      :
          :  -> SCF convergence          0.1000000E-05 Eh   :
          :  -> wf. convergence          0.2000000E-04 e    :
          :  Broyden damping             0.4000000          :
          ...................................................

 iter      E             dE          RMSdq      gap      omega  full diag
   1   -856.7547371 -0.856755E+03  0.951E+00    0.40       0.0  T
   2   -858.6336790 -0.187894E+01  0.593E+00    1.13       1.0  T
   3   -846.8725113  0.117612E+02  0.437E+00    0.19       1.0  T
   4   -860.1973997 -0.133249E+02  0.112E+00    0.91       1.0  T
   5   -861.4957015 -0.129830E+01  0.290E-01    0.82       1.0  T
   6   -861.5862553 -0.905538E-01  0.959E-02    0.90       1.0  T
   7   -861.5928357 -0.658036E-02  0.428E-02    0.88       1.0  T
   8   -861.5937436 -0.907951E-03  0.293E-02    0.88       1.0  T
   9   -861.5940310 -0.287392E-03  0.196E-02    0.89       1.0  T
  10   -861.5942816 -0.250555E-03  0.489E-03    0.89       1.0  T
  11   -861.5942952 -0.135925E-04  0.198E-03    0.89       2.4  T
  12   -861.5942984 -0.326656E-05  0.756E-04    0.89       6.3  T
  13   -861.5942988 -0.363111E-06  0.467E-04    0.89      10.2  T
  14   -861.5942990 -0.158621E-06  0.177E-04    0.89      26.9  T
  15   -861.5942990 -0.281102E-07  0.576E-05    0.89      82.3  T

   *** convergence criteria satisfied after 15 iterations ***

         #    Occupation            Energy/Eh            Energy/eV
      -------------------------------------------------------------
         1        2.0000           -1.0549132             -28.7056
       ...           ...                  ...                  ...
       663        2.0000           -0.3890086             -10.5855
       664        2.0000           -0.3874642             -10.5434
       665        2.0000           -0.3835165             -10.4360
       666        2.0000           -0.3779253             -10.2839
       667        2.0000           -0.3709237             -10.0933
       668        2.0000           -0.3640950              -9.9075
       669        2.0000           -0.3582962              -9.7497 (HOMO)
       670                         -0.3256403              -8.8611 (LUMO)
       671                         -0.3194392              -8.6924
       672                         -0.3123232              -8.4987
       673                         -0.3054169              -8.3108
       674                         -0.3042568              -8.2792
       ...                                ...                  ...
      1710                        666.5480842           18137.6966
      -------------------------------------------------------------
                  HL-Gap            0.0326558 Eh            0.8886 eV
             Fermi-level           -0.3419679 Eh           -9.3054 eV

 SCC (total)                   0 d,  0 h,  0 min, 32.268 sec
 SCC setup                      ...        0 min,  0.025 sec (  0.076%)
 Dispersion                     ...        0 min,  0.033 sec (  0.104%)
 classical contributions        ...        0 min,  0.010 sec (  0.031%)
 integral evaluation            ...        0 min,  1.986 sec (  6.155%)
 iterations                     ...        0 min, 25.787 sec ( 79.916%)
 molecular gradient             ...        0 min,  4.087 sec ( 12.665%)
 printout                       ...        0 min,  0.340 sec (  1.053%)

         :::::::::::::::::::::::::::::::::::::::::::::::::::::
         ::                     SUMMARY                     ::
         :::::::::::::::::::::::::::::::::::::::::::::::::::::
         :: total energy            -846.537288260097 Eh    ::
         :: gradient norm              0.109501383044 Eh/a0 ::
         :: HOMO-LUMO gap              0.888610584605 eV    ::
         ::.................................................::
         :: SCC energy              -861.594298998575 Eh    ::
         :: -> electrostatic           0.562869192498 Eh    ::
         :: repulsion energy          15.458522583080 Eh    ::
         :: dispersion energy         -0.401511844602 Eh    ::
         :: halogen bond corr.         0.000000000000 Eh    ::
         :: add. restraining           0.000000000000 Eh    ::
         :: total charge               0.000000000054 e     ::
         :::::::::::::::::::::::::::::::::::::::::::::::::::::

           ------------------------------------------------- 
          |        vertical delta SCC IP calculation        |
           ------------------------------------------------- 
   1   -861.2080944 -0.861208E+03  0.593E-02    0.89       0.0  T
   2   -861.2079269  0.167478E-03  0.638E-02    0.85       1.0  T
   3   -861.2147641 -0.683724E-02  0.288E-02    0.88       1.0  T
   4   -861.2151634 -0.399300E-03  0.203E-02    0.88       1.0  T
   5   -861.2140917  0.107170E-02  0.224E-02    0.88       1.0  T
   6   -861.2146567 -0.565010E-03  0.171E-02    0.88       1.0  T
   7   -861.2155263 -0.869540E-03  0.458E-03    0.88       1.0  T
   8   -861.2155483 -0.220168E-04  0.148E-03    0.88       3.2  T
   9   -861.2155499 -0.158761E-05  0.903E-04    0.88       5.3  T
  10   -861.2155505 -0.643651E-06  0.368E-04    0.88      12.9  T
  11   -861.2155506 -0.113520E-06  0.147E-04    0.88      32.2  T
  12   -861.2155506 -0.166037E-07  0.730E-05    0.88      65.0  T
     SCC iter.                  ...        0 min, 20.741 sec
     gradient                   ...        0 min,  4.093 sec
------------------------------------------------------------------------
empirical IP shift (eV):    4.8455
delta SCC IP (eV):    5.4608
------------------------------------------------------------------------
           ------------------------------------------------- 
          |        vertical delta SCC EA calculation        |
           ------------------------------------------------- 
   1   -861.8754304 -0.861875E+03  0.999E-02    0.21       0.0  T
   2   -861.8849345 -0.950402E-02  0.944E-02    0.07       1.0  T
   3   -861.8969333 -0.119988E-01  0.505E-02    0.14       1.0  T
   4   -861.8963612  0.572061E-03  0.422E-02    0.12       1.0  T
   5   -861.8926712  0.369002E-02  0.456E-02    0.14       1.0  T
   6   -861.8976595 -0.498827E-02  0.249E-02    0.12       1.0  T
   7   -861.8992026 -0.154312E-02  0.701E-03    0.11       1.0  T
   8   -861.8992497 -0.471653E-04  0.290E-03    0.11       1.6  T
   9   -861.8992556 -0.587121E-05  0.146E-03    0.11       3.3  T
  10   -861.8992572 -0.158191E-05  0.705E-04    0.11       6.7  T
  11   -861.8992576 -0.398610E-06  0.319E-04    0.11      14.9  T
  12   -861.8992577 -0.783357E-07  0.122E-04    0.11      38.9  T
  13   -861.8992577 -0.901537E-08  0.670E-05    0.11      70.8  T
     SCC iter.                  ...        0 min, 22.435 sec
     gradient                   ...        0 min,  4.085 sec
------------------------------------------------------------------------
empirical EA shift (eV):    4.8455
delta SCC EA (eV):    3.4528
------------------------------------------------------------------------
           -------------------------------------------------
          |                Property Printout                |
           -------------------------------------------------

    * Orbital Energies and Occupations

         #    Occupation            Energy/Eh            Energy/eV
      -------------------------------------------------------------
         1        2.0000           -1.0235831             -27.8531
       ...           ...                  ...                  ...
       658        2.0000           -0.3555660              -9.6754
       659        2.0000           -0.3551883              -9.6652
       660        2.0000           -0.3492405              -9.5033
       661        2.0000           -0.3488431              -9.4925
       662        2.0000           -0.3480631              -9.4713
       663        2.0000           -0.3470296              -9.4432
       664        2.0000           -0.3467187              -9.4347
       665        2.0000           -0.3458090              -9.4099
       666        2.0000           -0.3394469              -9.2368
       667        2.0000           -0.3320434              -9.0354
       668        2.0000           -0.3246095              -8.8331
       669        2.0000           -0.3170395              -8.6271
       670        0.8947           -0.2846103              -7.7446 (HOMO)
       671        0.1052           -0.2805438              -7.6340 (LUMO)
       672        0.0001           -0.2736524              -7.4465
       673        0.0000           -0.2703442              -7.3564
       674        0.0000           -0.2697735              -7.3409
       675                         -0.2656900              -7.2298
       676                         -0.2636523              -7.1743
       677                         -0.2631328              -7.1602
       678                         -0.2616180              -7.1190
       679                         -0.2612904              -7.1101
       680                         -0.2578154              -7.0155
       681                         -0.2502826              -6.8105
       ...                                ...                  ...
      1710                        666.5859118           18138.7259
      -------------------------------------------------------------
                  HL-Gap            0.0040665 Eh            0.1107 eV
             Fermi-level           -0.2917044 Eh           -7.9377 eV

  Mulliken/CM5 charges         n(s)   n(p)   n(d)
     1C    -0.02558 -0.06636   1.087  2.938  0.000
     2C     0.06112  0.12155   1.108  2.831  0.000
     3C    -0.03603 -0.08129   1.082  2.954  0.000
     4C    -0.03184 -0.07637   1.076  2.956  0.000
     5C     0.06336  0.12718   1.101  2.836  0.000
     6N    -0.15794 -0.51146   1.305  3.853  0.000
     7C     0.01681  0.02347   1.085  2.898  0.000
     8C     0.06020  0.12736   1.113  2.827  0.000
     9C    -0.03643 -0.08252   1.082  2.954  0.000
    10C    -0.03671 -0.08243   1.088  2.949  0.000
    11N    -0.28211 -0.46948   1.281  4.001  0.000
    12C     0.06315  0.13375   1.130  2.807  0.000
    13C     0.01602  0.02321   1.086  2.898  0.000
    14C     0.06543  0.13017   1.112  2.823  0.000
    15C    -0.03098 -0.07563   1.077  2.954  0.000
    16C    -0.03035 -0.07486   1.072  2.958  0.000
    17C     0.06346  0.12694   1.100  2.837  0.000
    18C     0.01582  0.02260   1.085  2.899  0.000
    19C    -0.00964 -0.00849   1.051  2.958  0.000
    20C     0.09617  0.11537   1.109  2.795  0.000
    21O    -0.23794 -0.32777   1.604  4.634  0.000
    22C     0.03570 -0.08407   1.106  2.858  0.000
    23C    -0.04360 -0.09380   1.078  2.966  0.000
    24C    -0.03166 -0.08704   1.088  2.944  0.000
    25C    -0.04645 -0.09848   1.046  3.000  0.000
    26C     0.09452  0.11353   1.108  2.797  0.000
    27O    -0.23182 -0.32179   1.611  4.620  0.000
    28C     0.03483 -0.08599   1.107  2.858  0.000
    29C     0.06191  0.13018   1.117  2.821  0.000
    30C    -0.03639 -0.08228   1.087  2.949  0.000
    31C    -0.04024 -0.08664   1.094  2.947  0.000
    32C     0.05852  0.12421   1.126  2.815  0.000
    33N    -0.28576 -0.47378   1.281  4.005  0.000
    34N    -0.15503 -0.50774   1.308  3.847  0.000
    35C    -0.01031 -0.00918   1.050  2.961  0.000
    36C     0.09696  0.11641   1.108  2.795  0.000
    37O    -0.23518 -0.32505   1.605  4.630  0.000
    38C     0.03574 -0.08400   1.105  2.859  0.000
    39C    -0.04436 -0.09450   1.078  2.967  0.000
    40C    -0.03208 -0.08746   1.088  2.944  0.000
    41C    -0.04750 -0.09951   1.046  3.002  0.000
    42C     0.09417  0.11328   1.108  2.798  0.000
    43O    -0.23217 -0.32172   1.612  4.620  0.000
    44C     0.03442 -0.08635   1.108  2.858  0.000
    45H     0.02676  0.08569   0.973  0.000  0.000
    46H     0.03706  0.09371   0.963  0.000  0.000
    47H     0.03037  0.08939   0.970  0.000  0.000
    48H     0.16247  0.37081   0.838  0.000  0.000
    49H     0.02120  0.08011   0.979  0.000  0.000
    50H     0.01887  0.07715   0.981  0.000  0.000
    51H     0.03039  0.08874   0.970  0.000  0.000
    52H     0.03171  0.09134   0.968  0.000  0.000
    53H     0.03026  0.09214   0.970  0.000  0.000
    54H     0.04217  0.10226   0.958  0.000  0.000
    55H     0.02651  0.08934   0.973  0.000  0.000
    56H     0.03307  0.09307   0.967  0.000  0.000
    57H     0.03144  0.08746   0.969  0.000  0.000
    58H     0.03351  0.09314   0.966  0.000  0.000
    59H     0.04572  0.10602   0.954  0.000  0.000
    60H     0.03408  0.09297   0.966  0.000  0.000
    61H     0.03600  0.09488   0.964  0.000  0.000
    62H     0.02035  0.07953   0.980  0.000  0.000
    63H     0.02659  0.08300   0.973  0.000  0.000
    64H     0.15993  0.36823   0.840  0.000  0.000
    65H     0.02855  0.09116   0.971  0.000  0.000
    66H     0.04315  0.10340   0.957  0.000  0.000
    67H     0.02803  0.09014   0.972  0.000  0.000
    68H     0.03304  0.09315   0.967  0.000  0.000
    69H     0.03105  0.08707   0.969  0.000  0.000
    70H     0.03301  0.09261   0.967  0.000  0.000
    71H     0.03368  0.09253   0.966  0.000  0.000
    72H     0.04542  0.10572   0.955  0.000  0.000
    73H     0.03564  0.09455   0.964  0.000  0.000
    74C    -0.02598 -0.06675   1.087  2.939  0.000
    75C     0.06116  0.12161   1.108  2.831  0.000
    76C    -0.03616 -0.08142   1.082  2.954  0.000
    77C    -0.03185 -0.07641   1.077  2.955  0.000
    78C     0.06321  0.12689   1.100  2.836  0.000
    79N    -0.15817 -0.51180   1.305  3.853  0.000
    80C     0.01719  0.02383   1.086  2.897  0.000
    81C     0.06012  0.12738   1.113  2.827  0.000
    82C    -0.03641 -0.08253   1.082  2.955  0.000
    83C    -0.03674 -0.08251   1.087  2.950  0.000
    84N    -0.28213 -0.46944   1.281  4.001  0.000
    85C     0.06299  0.13357   1.130  2.807  0.000
    86C     0.01577  0.02296   1.086  2.898  0.000
    87C     0.06518  0.12989   1.112  2.823  0.000
    88C    -0.03160 -0.07632   1.077  2.955  0.000
    89C    -0.03132 -0.07588   1.072  2.959  0.000
    90C     0.06295  0.12629   1.099  2.838  0.000
    91C     0.01576  0.02248   1.085  2.899  0.000
    92C    -0.01005 -0.00892   1.050  2.960  0.000
    93C     0.09662  0.11601   1.108  2.795  0.000
    94O    -0.23624 -0.32608   1.605  4.631  0.000
    95C     0.03569 -0.08408   1.106  2.859  0.000
    96C    -0.04430 -0.09446   1.078  2.967  0.000
    97C    -0.03221 -0.08759   1.088  2.944  0.000
    98C    -0.04734 -0.09936   1.046  3.001  0.000
    99C     0.09426  0.11331   1.108  2.798  0.000
   100O    -0.23196 -0.32166   1.612  4.620  0.000
   101C     0.03460 -0.08616   1.108  2.858  0.000
   102C     0.06153  0.12985   1.117  2.822  0.000
   103C    -0.03694 -0.08288   1.087  2.950  0.000
   104C    -0.04051 -0.08690   1.094  2.947  0.000
   105C     0.05838  0.12414   1.127  2.815  0.000
   106N    -0.28599 -0.47383   1.281  4.005  0.000
   107N    -0.15532 -0.50801   1.308  3.848  0.000
   108C    -0.01030 -0.00918   1.049  2.961  0.000
   109C     0.09694  0.11645   1.107  2.796  0.000
   110O    -0.23538 -0.32517   1.605  4.630  0.000
   111C     0.03579 -0.08395   1.105  2.859  0.000
   112C    -0.04423 -0.09437   1.078  2.966  0.000
   113C    -0.03203 -0.08741   1.088  2.944  0.000
   114C    -0.04744 -0.09946   1.046  3.002  0.000
   115C     0.09408  0.11321   1.108  2.798  0.000
   116O    -0.23229 -0.32164   1.612  4.620  0.000
   117C     0.03437 -0.08637   1.108  2.857  0.000
   118H     0.02664  0.08555   0.973  0.000  0.000
   119H     0.03685  0.09350   0.963  0.000  0.000
   120H     0.03043  0.08931   0.970  0.000  0.000
   121H     0.16232  0.37065   0.838  0.000  0.000
   122H     0.02213  0.08096   0.978  0.000  0.000
   123H     0.01992  0.07825   0.980  0.000  0.000
   124H     0.02971  0.08815   0.970  0.000  0.000
   125H     0.03083  0.09015   0.969  0.000  0.000
   126H     0.03025  0.09222   0.970  0.000  0.000
   127H     0.04306  0.10325   0.957  0.000  0.000
   128H     0.02723  0.08992   0.973  0.000  0.000
   129H     0.03277  0.09284   0.967  0.000  0.000
   130H     0.03076  0.08678   0.969  0.000  0.000
   131H     0.03287  0.09248   0.967  0.000  0.000
   132H     0.04551  0.10581   0.954  0.000  0.000
   133H     0.03393  0.09283   0.966  0.000  0.000
   134H     0.03527  0.09413   0.965  0.000  0.000
   135H     0.02038  0.07932   0.980  0.000  0.000
   136H     0.02643  0.08283   0.974  0.000  0.000
   137H     0.16012  0.36843   0.840  0.000  0.000
   138H     0.02938  0.09181   0.971  0.000  0.000
   139H     0.04361  0.10390   0.956  0.000  0.000
   140H     0.02729  0.08950   0.973  0.000  0.000
   141H     0.03335  0.09346   0.967  0.000  0.000
   142H     0.03119  0.08721   0.969  0.000  0.000
   143H     0.03306  0.09265   0.967  0.000  0.000
   144H     0.03368  0.09253   0.966  0.000  0.000
   145H     0.04515  0.10544   0.955  0.000  0.000
   146H     0.03547  0.09439   0.965  0.000  0.000
   147C    -0.02824 -0.03051   1.067  2.961  0.000
   148C    -0.02404 -0.02630   1.072  2.952  0.000
   149C    -0.02672 -0.02894   1.069  2.958  0.000
   150C    -0.02555 -0.02775   1.070  2.956  0.000
   151C    -0.02647 -0.02862   1.069  2.957  0.000
   152C    -0.02635 -0.02850   1.069  2.957  0.000
   153C    -0.02582 -0.02798   1.070  2.956  0.000
   154C    -0.02691 -0.02907   1.069  2.958  0.000
   155C    -0.02444 -0.02664   1.072  2.953  0.000
   156C    -0.02876 -0.03098   1.067  2.962  0.000
   157C     0.01194  0.01917   1.081  2.907  0.000
   158C     0.06547  0.13033   1.111  2.824  0.000
   159C    -0.03421 -0.07884   1.075  2.960  0.000
   160C    -0.03134 -0.07553   1.075  2.956  0.000
   161C     0.06218  0.12657   1.102  2.836  0.000
   162N    -0.15619 -0.50864   1.313  3.843  0.000
   163C     0.01829  0.02723   1.097  2.885  0.000
   164C     0.05975  0.12859   1.120  2.820  0.000
   165C    -0.03629 -0.08152   1.085  2.952  0.000
   166C    -0.03798 -0.08364   1.086  2.952  0.000
   167N    -0.28435 -0.47048   1.293  3.991  0.000
   168C     0.06332  0.13408   1.131  2.806  0.000
   169C     0.01492  0.02213   1.085  2.900  0.000
   170C     0.06542  0.13022   1.111  2.823  0.000
   171C    -0.03250 -0.07723   1.075  2.957  0.000
   172C    -0.03117 -0.07572   1.072  2.959  0.000
   173C     0.06207  0.12547   1.097  2.841  0.000
   174C     0.01863  0.02524   1.087  2.895  0.000
   175C    -0.00939 -0.00832   1.050  2.959  0.000
   176C     0.09468  0.11373   1.108  2.798  0.000
   177O    -0.23151 -0.32126   1.612  4.620  0.000
   178C     0.03492 -0.08586   1.107  2.858  0.000
   179C    -0.04696 -0.09899   1.046  3.001  0.000
   180C    -0.03201 -0.08739   1.088  2.944  0.000
   181C    -0.04406 -0.09424   1.078  2.966  0.000
   182C     0.09690  0.11621   1.108  2.795  0.000
   183O    -0.23652 -0.32638   1.605  4.632  0.000
   184C     0.03607 -0.08372   1.105  2.859  0.000
   185C     0.05943  0.12649   1.112  2.829  0.000
   186C    -0.03654 -0.08251   1.083  2.953  0.000
   187C    -0.03878 -0.08448   1.087  2.952  0.000
   188C     0.06302  0.13373   1.130  2.807  0.000
   189N    -0.28221 -0.46942   1.280  4.002  0.000
   190N    -0.15415 -0.50703   1.307  3.847  0.000
   191C    -0.00765 -0.00521   1.069  2.939  0.000
   192C     0.09552  0.11457   1.105  2.800  0.000
   193O    -0.23056 -0.32041   1.610  4.620  0.000
   194C     0.03488 -0.08592   1.108  2.858  0.000
   195C    -0.04673 -0.09881   1.048  2.999  0.000
   196C    -0.03269 -0.08823   1.089  2.944  0.000
   197C    -0.04632 -0.09840   1.048  2.998  0.000
   198C     0.09659  0.11563   1.106  2.798  0.000
   199O    -0.22910 -0.31923   1.611  4.618  0.000
   200C     0.03519 -0.08562   1.108  2.857  0.000
   201H     0.02768  0.08602   0.972  0.000  0.000
   202H     0.02964  0.08967   0.970  0.000  0.000
   203H     0.16100  0.36909   0.839  0.000  0.000
   204H     0.02042  0.08062   0.980  0.000  0.000
   205H     0.01866  0.07698   0.981  0.000  0.000
   206H     0.02864  0.08706   0.971  0.000  0.000
   207H     0.03017  0.08958   0.970  0.000  0.000
   208H     0.04557  0.10587   0.954  0.000  0.000
   209H     0.03499  0.09386   0.965  0.000  0.000
   210H     0.03400  0.09289   0.966  0.000  0.000
   211H     0.03273  0.09235   0.967  0.000  0.000
   212H     0.03051  0.08652   0.969  0.000  0.000
   213H     0.03238  0.09243   0.968  0.000  0.000
   214H     0.04243  0.10260   0.958  0.000  0.000
   215H     0.02689  0.08961   0.973  0.000  0.000
   216H     0.02941  0.09142   0.971  0.000  0.000
   217H     0.01919  0.07834   0.981  0.000  0.000
   218H     0.01640  0.07464   0.984  0.000  0.000
   219H     0.16141  0.36940   0.839  0.000  0.000
   220H     0.03464  0.09351   0.965  0.000  0.000
   221H     0.03513  0.09403   0.965  0.000  0.000
   222H     0.04666  0.10694   0.953  0.000  0.000
   223H     0.03160  0.09115   0.968  0.000  0.000
   224H     0.02950  0.08551   0.971  0.000  0.000
   225H     0.03203  0.09157   0.968  0.000  0.000
   226H     0.03545  0.09438   0.965  0.000  0.000
   227H     0.04645  0.10676   0.954  0.000  0.000
   228H     0.03400  0.09284   0.966  0.000  0.000
   229C     0.01330  0.02054   1.083  2.904  0.000
   230C     0.06548  0.13033   1.111  2.823  0.000
   231C    -0.03376 -0.07845   1.075  2.959  0.000
   232C    -0.03157 -0.07575   1.075  2.957  0.000
   233C     0.06201  0.12638   1.102  2.836  0.000
   234N    -0.15608 -0.50852   1.313  3.843  0.000
   235C     0.01825  0.02715   1.096  2.885  0.000
   236C     0.05962  0.12840   1.119  2.821  0.000
   237C    -0.03651 -0.08176   1.084  2.952  0.000
   238C    -0.03836 -0.08412   1.085  2.953  0.000
   239N    -0.28425 -0.47041   1.292  3.992  0.000
   240C     0.06342  0.13422   1.130  2.807  0.000
   241C     0.01412  0.02134   1.084  2.902  0.000
   242C     0.06522  0.12999   1.112  2.823  0.000
   243C    -0.03308 -0.07788   1.075  2.958  0.000
   244C    -0.03146 -0.07603   1.072  2.959  0.000
   245C     0.06166  0.12497   1.097  2.841  0.000
   246C     0.01903  0.02560   1.087  2.894  0.000
   247C    -0.00951 -0.00846   1.050  2.959  0.000
   248C     0.09452  0.11354   1.108  2.798  0.000
   249O    -0.23167 -0.32136   1.612  4.620  0.000
   250C     0.03482 -0.08593   1.108  2.858  0.000
   251C    -0.04739 -0.09942   1.046  3.002  0.000
   252C    -0.03224 -0.08762   1.088  2.945  0.000
   253C    -0.04419 -0.09435   1.078  2.967  0.000
   254C     0.09727  0.11667   1.108  2.795  0.000
   255O    -0.23559 -0.32548   1.605  4.630  0.000
   256C     0.03618 -0.08361   1.105  2.859  0.000
   257C     0.05923  0.12628   1.112  2.829  0.000
   258C    -0.03658 -0.08260   1.083  2.954  0.000
   259C    -0.03828 -0.08405   1.086  2.952  0.000
   260C     0.06317  0.13388   1.130  2.807  0.000
   261N    -0.28178 -0.46884   1.281  4.001  0.000
   262N    -0.15454 -0.50739   1.307  3.847  0.000
   263C    -0.00747 -0.00507   1.069  2.939  0.000
   264C     0.09581  0.11485   1.105  2.800  0.000
   265O    -0.23015 -0.32011   1.610  4.620  0.000
   266C     0.03500 -0.08581   1.108  2.857  0.000
   267C    -0.04674 -0.09881   1.048  2.999  0.000
   268C    -0.03290 -0.08843   1.089  2.944  0.000
   269C    -0.04656 -0.09862   1.048  2.999  0.000
   270C     0.09647  0.11556   1.106  2.798  0.000
   271O    -0.22911 -0.31900   1.611  4.618  0.000
   272C     0.03523 -0.08554   1.108  2.857  0.000
   273H     0.02779  0.08616   0.972  0.000  0.000
   274H     0.02915  0.08925   0.971  0.000  0.000
   275H     0.16077  0.36884   0.839  0.000  0.000
   276H     0.01947  0.07943   0.981  0.000  0.000
   277H     0.01806  0.07653   0.982  0.000  0.000
   278H     0.02766  0.08608   0.972  0.000  0.000
   279H     0.02987  0.08925   0.970  0.000  0.000
   280H     0.04524  0.10554   0.955  0.000  0.000
   281H     0.03435  0.09322   0.966  0.000  0.000
   282H     0.03398  0.09287   0.966  0.000  0.000
   283H     0.03221  0.09181   0.968  0.000  0.000
   284H     0.03008  0.08609   0.970  0.000  0.000
   285H     0.03241  0.09250   0.968  0.000  0.000
   286H     0.04304  0.10326   0.957  0.000  0.000
   287H     0.02752  0.09017   0.972  0.000  0.000
   288H     0.02936  0.09143   0.971  0.000  0.000
   289H     0.01946  0.07856   0.981  0.000  0.000
   290H     0.01690  0.07523   0.983  0.000  0.000
   291H     0.16145  0.36949   0.839  0.000  0.000
   292H     0.03467  0.09355   0.965  0.000  0.000
   293H     0.03510  0.09399   0.965  0.000  0.000
   294H     0.04709  0.10739   0.953  0.000  0.000
   295H     0.03147  0.09101   0.969  0.000  0.000
   296H     0.02913  0.08514   0.971  0.000  0.000
   297H     0.03164  0.09117   0.968  0.000  0.000
   298H     0.03472  0.09364   0.965  0.000  0.000
   299H     0.04611  0.10642   0.954  0.000  0.000
   300H     0.03381  0.09264   0.966  0.000  0.000
   301C     0.01379  0.02102   1.084  2.903  0.000
   302C     0.06557  0.13038   1.111  2.823  0.000
   303C    -0.03358 -0.07837   1.075  2.959  0.000
   304C    -0.03162 -0.07581   1.075  2.957  0.000
   305C     0.06209  0.12648   1.102  2.836  0.000
   306N    -0.15574 -0.50814   1.313  3.842  0.000
   307C     0.01815  0.02705   1.096  2.886  0.000
   308C     0.05952  0.12833   1.119  2.821  0.000
   309C    -0.03649 -0.08172   1.085  2.952  0.000
   310C    -0.03857 -0.08429   1.085  2.953  0.000
   311N    -0.28437 -0.47055   1.292  3.992  0.000
   312C     0.06333  0.13415   1.130  2.807  0.000
   313C     0.01338  0.02063   1.083  2.904  0.000
   314C     0.06521  0.13001   1.112  2.823  0.000
   315C    -0.03350 -0.07828   1.075  2.958  0.000
   316C    -0.03167 -0.07630   1.073  2.959  0.000
   317C     0.06140  0.12458   1.097  2.842  0.000
   318C     0.01945  0.02600   1.088  2.893  0.000
   319C    -0.00971 -0.00867   1.050  2.960  0.000
   320C     0.09440  0.11349   1.108  2.798  0.000
   321O    -0.23174 -0.32118   1.612  4.620  0.000
   322C     0.03474 -0.08599   1.108  2.857  0.000
   323C    -0.04756 -0.09958   1.045  3.002  0.000
   324C    -0.03227 -0.08765   1.087  2.945  0.000
   325C    -0.04429 -0.09445   1.078  2.967  0.000
   326C     0.09734  0.11680   1.107  2.795  0.000
   327O    -0.23516 -0.32506   1.605  4.630  0.000
   328C     0.03616 -0.08362   1.104  2.859  0.000
   329C     0.05912  0.12625   1.111  2.830  0.000
   330C    -0.03660 -0.08268   1.082  2.955  0.000
   331C    -0.03805 -0.08388   1.086  2.953  0.000
   332C     0.06306  0.13378   1.130  2.807  0.000
   333N    -0.28184 -0.46878   1.282  4.000  0.000
   334N    -0.15468 -0.50766   1.307  3.848  0.000
   335C    -0.00743 -0.00503   1.069  2.938  0.000
   336C     0.09594  0.11501   1.105  2.800  0.000
   337O    -0.22990 -0.31980   1.610  4.620  0.000
   338C     0.03516 -0.08563   1.107  2.858  0.000
   339C    -0.04672 -0.09879   1.048  2.999  0.000
   340C    -0.03292 -0.08845   1.089  2.944  0.000
   341C    -0.04662 -0.09869   1.048  2.999  0.000
   342C     0.09653  0.11561   1.106  2.798  0.000
   343O    -0.22904 -0.31902   1.611  4.618  0.000
   344C     0.03527 -0.08551   1.108  2.857  0.000
   345H     0.02725  0.08574   0.973  0.000  0.000
   346H     0.02848  0.08850   0.972  0.000  0.000
   347H     0.16080  0.36887   0.839  0.000  0.000
   348H     0.01915  0.07918   0.981  0.000  0.000
   349H     0.01777  0.07615   0.982  0.000  0.000
   350H     0.02707  0.08543   0.973  0.000  0.000
   351H     0.02967  0.08881   0.970  0.000  0.000
   352H     0.04505  0.10534   0.955  0.000  0.000
   353H     0.03409  0.09294   0.966  0.000  0.000
   354H     0.03400  0.09289   0.966  0.000  0.000
   355H     0.03219  0.09177   0.968  0.000  0.000
   356H     0.03009  0.08611   0.970  0.000  0.000
   357H     0.03246  0.09258   0.968  0.000  0.000
   358H     0.04330  0.10357   0.957  0.000  0.000
   359H     0.02809  0.09056   0.972  0.000  0.000
   360H     0.02881  0.09101   0.971  0.000  0.000
   361H     0.02070  0.07969   0.979  0.000  0.000
   362H     0.01791  0.07626   0.982  0.000  0.000
   363H     0.16157  0.36962   0.838  0.000  0.000
   364H     0.03454  0.09342   0.965  0.000  0.000
   365H     0.03484  0.09372   0.965  0.000  0.000
   366H     0.04717  0.10747   0.953  0.000  0.000
   367H     0.03148  0.09102   0.969  0.000  0.000
   368H     0.02907  0.08508   0.971  0.000  0.000
   369H     0.03151  0.09104   0.968  0.000  0.000
   370H     0.03441  0.09335   0.966  0.000  0.000
   371H     0.04591  0.10622   0.954  0.000  0.000
   372H     0.03384  0.09266   0.966  0.000  0.000
   373C     0.01453  0.02176   1.084  2.901  0.000
   374C     0.06557  0.13038   1.111  2.823  0.000
   375C    -0.03332 -0.07807   1.075  2.958  0.000
   376C    -0.03168 -0.07586   1.075  2.957  0.000
   377C     0.06230  0.12671   1.102  2.835  0.000
   378N    -0.15560 -0.50801   1.313  3.842  0.000
   379C     0.01796  0.02686   1.096  2.886  0.000
   380C     0.05960  0.12846   1.120  2.821  0.000
   381C    -0.03634 -0.08156   1.085  2.951  0.000
   382C    -0.03905 -0.08473   1.085  2.954  0.000
   383N    -0.28498 -0.47114   1.292  3.993  0.000
   384C     0.06308  0.13388   1.130  2.807  0.000
   385C     0.01165  0.01890   1.081  2.907  0.000
   386C     0.06504  0.12985   1.111  2.823  0.000
   387C    -0.03430 -0.07904   1.075  2.959  0.000
   388C    -0.03181 -0.07642   1.073  2.959  0.000
   389C     0.06123  0.12444   1.096  2.842  0.000
   390C     0.01940  0.02596   1.088  2.893  0.000
   391C    -0.00974 -0.00869   1.050  2.960  0.000
   392C     0.09437  0.11344   1.108  2.798  0.000
   393O    -0.23183 -0.32130   1.612  4.620  0.000
   394C     0.03469 -0.08604   1.108  2.857  0.000
   395C    -0.04756 -0.09958   1.045  3.002  0.000
   396C    -0.03224 -0.08762   1.087  2.945  0.000
   397C    -0.04427 -0.09442   1.078  2.967  0.000
   398C     0.09734  0.11681   1.107  2.795  0.000
   399O    -0.23511 -0.32501   1.605  4.630  0.000
   400C     0.03612 -0.08365   1.105  2.859  0.000
   401C     0.05915  0.12629   1.111  2.830  0.000
   402C    -0.03657 -0.08265   1.082  2.955  0.000
   403C    -0.03777 -0.08357   1.086  2.952  0.000
   404C     0.06316  0.13385   1.130  2.807  0.000
   405N    -0.28161 -0.46860   1.282  4.000  0.000
   406N    -0.15503 -0.50802   1.307  3.848  0.000
   407C    -0.00751 -0.00510   1.069  2.939  0.000
   408C     0.09592  0.11500   1.105  2.799  0.000
   409O    -0.22997 -0.31983   1.610  4.620  0.000
   410C     0.03511 -0.08569   1.107  2.858  0.000
   411C    -0.04657 -0.09864   1.048  2.998  0.000
   412C    -0.03275 -0.08828   1.089  2.944  0.000
   413C    -0.04650 -0.09857   1.048  2.999  0.000
   414C     0.09644  0.11549   1.105  2.798  0.000
   415O    -0.22926 -0.31927   1.611  4.618  0.000
   416C     0.03519 -0.08560   1.108  2.857  0.000
   417H     0.02774  0.08619   0.972  0.000  0.000
   418H     0.02877  0.08877   0.971  0.000  0.000
   419H     0.16077  0.36885   0.839  0.000  0.000
   420H     0.01953  0.07960   0.980  0.000  0.000
   421H     0.01694  0.07526   0.983  0.000  0.000
   422H     0.02630  0.08464   0.974  0.000  0.000
   423H     0.02932  0.08848   0.971  0.000  0.000
   424H     0.04500  0.10529   0.955  0.000  0.000
   425H     0.03381  0.09266   0.966  0.000  0.000
   426H     0.03440  0.09330   0.966  0.000  0.000
   427H     0.03227  0.09186   0.968  0.000  0.000
   428H     0.03025  0.08627   0.970  0.000  0.000
   429H     0.03261  0.09272   0.967  0.000  0.000
   430H     0.04331  0.10358   0.957  0.000  0.000
   431H     0.02833  0.09083   0.972  0.000  0.000
   432H     0.02857  0.09074   0.971  0.000  0.000
   433H     0.02086  0.07984   0.979  0.000  0.000
   434H     0.01841  0.07675   0.982  0.000  0.000
   435H     0.16161  0.36965   0.838  0.000  0.000
   436H     0.03463  0.09351   0.965  0.000  0.000
   437H     0.03509  0.09397   0.965  0.000  0.000
   438H     0.04723  0.10753   0.953  0.000  0.000
   439H     0.03174  0.09128   0.968  0.000  0.000
   440H     0.02941  0.08542   0.971  0.000  0.000
   441H     0.03169  0.09122   0.968  0.000  0.000
   442H     0.03429  0.09323   0.966  0.000  0.000
   443H     0.04546  0.10577   0.955  0.000  0.000
   444H     0.03407  0.09290   0.966  0.000  0.000

Wiberg/Mayer (AO) data.
largest (>0.10) Wiberg bond orders for each atom

 ---------------------------------------------------------------------------
     #   Z sym  total        # sym  WBO       # sym  WBO       # sym  WBO
 ---------------------------------------------------------------------------
     1   6 C    3.814 --    32 C    1.383     2 C    1.374    45 H    0.996
     2   6 C    3.925 --     1 C    1.374     3 C    1.241     6 N    1.229
     3   6 C    3.836 --     4 C    1.599     2 C    1.241    46 H    0.994
     4   6 C    3.824 --     3 C    1.599     5 C    1.250    47 H    0.999
     5   6 C    3.899 --     7 C    1.351     4 C    1.250     6 N    1.225
     6   7 N    3.219 --     2 C    1.229     5 C    1.225    48 H    0.962
     7   6 C    3.815 --     8 C    1.372     5 C    1.351    35 C    1.028
     8   6 C    3.912 --     7 C    1.372    11 N    1.352     9 C    1.163
     9   6 C    3.829 --    10 C    1.689     8 C    1.163    49 H    0.999
    10   6 C    3.835 --     9 C    1.689    12 C    1.170    50 H    1.001
    11   7 N    2.520 --    12 C    1.411     8 C    1.352
    12   6 C    3.939 --    11 N    1.411    13 C    1.293    10 C    1.170
    13   6 C    3.840 --    14 C    1.294    12 C    1.293   147 C    1.207
    14   6 C    3.905 --    13 C    1.294    15 C    1.269    34 N    1.248
    15   6 C    3.818 --    16 C    1.581    14 C    1.269    51 H    1.000
    16   6 C    3.814 --    15 C    1.581    17 C    1.259    52 H    0.998
    17   6 C    3.893 --    18 C    1.346    16 C    1.259    34 N    1.224
    18   6 C    3.802 --    29 C    1.366    17 C    1.346    19 C    1.036
    19   6 C    3.815 --    20 C    1.405    26 C    1.352    18 C    1.036
    20   6 C    3.924 --    19 C    1.405    23 C    1.360    21 O    1.117
    21   8 O    2.179 --    20 C    1.117    22 C    0.977
    22   6 C    3.892 --    53 H    1.001    55 H    0.999    54 H    0.984
                            21 O    0.977
    23   6 C    3.898 --    24 C    1.469    20 C    1.360    56 H    0.984
    24   6 C    3.917 --    23 C    1.469    25 C    1.413    57 H    0.985
    25   6 C    3.825 --    24 C    1.413    26 C    1.410    58 H    0.988
    26   6 C    3.919 --    25 C    1.410    19 C    1.352    27 O    1.116
    27   8 O    2.191 --    26 C    1.116    28 C    0.983
    28   6 C    3.911 --    61 H    0.996    60 H    0.996    59 H    0.986
                            27 O    0.983
    29   6 C    3.936 --    33 N    1.371    18 C    1.366    30 C    1.153
    30   6 C    3.840 --    31 C    1.707    29 C    1.153    62 H    1.000
    31   6 C    3.863 --    30 C    1.707    32 C    1.149    63 H    0.995
    32   6 C    3.966 --     1 C    1.383    33 N    1.375    31 C    1.149
    33   7 N    2.506 --    32 C    1.375    29 C    1.371
    34   7 N    3.234 --    14 C    1.248    17 C    1.224    64 H    0.962
    35   6 C    3.811 --    36 C    1.409    42 C    1.352     7 C    1.028
    36   6 C    3.922 --    35 C    1.409    39 C    1.353    37 O    1.121
    37   8 O    2.192 --    36 C    1.121    38 C    0.978
    38   6 C    3.887 --    67 H    1.000    65 H    1.000    66 H    0.984
                            37 O    0.978
    39   6 C    3.900 --    40 C    1.474    36 C    1.353    68 H    0.984
    40   6 C    3.919 --    39 C    1.474    41 C    1.410    69 H    0.985
    41   6 C    3.825 --    42 C    1.411    40 C    1.410    70 H    0.988
    42   6 C    3.918 --    41 C    1.411    35 C    1.352    43 O    1.116
    43   8 O    2.191 --    42 C    1.116    44 C    0.983
    44   6 C    3.913 --    71 H    0.997    73 H    0.996    72 H    0.986
                            43 O    0.983
    45   1 H    1.031 --     1 C    0.996
    46   1 H    1.014 --     3 C    0.994
    47   1 H    1.031 --     4 C    0.999
    48   1 H    1.079 --     6 N    0.962
    49   1 H    1.036 --     9 C    0.999
    50   1 H    1.035 --    10 C    1.001
    51   1 H    1.029 --    15 C    1.000
    52   1 H    1.030 --    16 C    0.998
    53   1 H    1.038 --    22 C    1.001
    54   1 H    1.042 --    22 C    0.984
    55   1 H    1.052 --    22 C    0.999
    56   1 H    1.027 --    23 C    0.984
    57   1 H    1.021 --    24 C    0.985
    58   1 H    1.020 --    25 C    0.988
    59   1 H    1.040 --    28 C    0.986
    60   1 H    1.030 --    28 C    0.996
    61   1 H    1.027 --    28 C    0.996
    62   1 H    1.038 --    30 C    1.000
    63   1 H    1.020 --    31 C    0.995
    64   1 H    1.085 --    34 N    0.962
    65   1 H    1.049 --    38 C    1.000
    66   1 H    1.042 --    38 C    0.984
    67   1 H    1.044 --    38 C    1.000
    68   1 H    1.025 --    39 C    0.984
    69   1 H    1.021 --    40 C    0.985
    70   1 H    1.020 --    41 C    0.988
    71   1 H    1.028 --    44 C    0.997
    72   1 H    1.039 --    44 C    0.986
    73   1 H    1.028 --    44 C    0.996
    74   6 C    3.813 --   105 C    1.382    75 C    1.375   118 H    0.996
    75   6 C    3.924 --    74 C    1.375    76 C    1.240    79 N    1.229
    76   6 C    3.836 --    77 C    1.600    75 C    1.240   119 H    0.994
    77   6 C    3.825 --    76 C    1.600    78 C    1.250   120 H    0.999
    78   6 C    3.898 --    80 C    1.352    77 C    1.250    79 N    1.224
    79   7 N    3.219 --    75 C    1.229    78 C    1.224   121 H    0.963
    80   6 C    3.815 --    81 C    1.373    78 C    1.352   108 C    1.026
    81   6 C    3.911 --    80 C    1.373    84 N    1.352    82 C    1.164
    82   6 C    3.830 --    83 C    1.689    81 C    1.164   122 H    0.999
    83   6 C    3.832 --    82 C    1.689    85 C    1.171   123 H    1.000
    84   7 N    2.520 --    85 C    1.412    81 C    1.352
    85   6 C    3.938 --    84 N    1.412    86 C    1.291    83 C    1.171
    86   6 C    3.839 --    87 C    1.292    85 C    1.291   156 C    1.212
    87   6 C    3.904 --    86 C    1.292    88 C    1.271   107 N    1.248
    88   6 C    3.816 --    89 C    1.580    87 C    1.271   124 H    1.000
    89   6 C    3.811 --    88 C    1.580    90 C    1.260   125 H    0.999
    90   6 C    3.892 --    91 C    1.346    89 C    1.260   107 N    1.224
    91   6 C    3.800 --   102 C    1.369    90 C    1.346    92 C    1.030
    92   6 C    3.813 --    93 C    1.408    99 C    1.353    91 C    1.030
    93   6 C    3.924 --    92 C    1.408    96 C    1.355    94 O    1.120
    94   8 O    2.188 --    93 C    1.120    95 C    0.977
    95   6 C    3.888 --   126 H    1.001   128 H    1.000   127 H    0.984
                            94 O    0.977
    96   6 C    3.899 --    97 C    1.472    93 C    1.355   129 H    0.984
    97   6 C    3.919 --    96 C    1.472    98 C    1.411   130 H    0.985
    98   6 C    3.825 --    97 C    1.411    99 C    1.410   131 H    0.988
    99   6 C    3.918 --    98 C    1.410    92 C    1.353   100 O    1.116
   100   8 O    2.191 --    99 C    1.116   101 C    0.983
   101   6 C    3.913 --   133 H    0.996   134 H    0.996   132 H    0.986
                           100 O    0.983
   102   6 C    3.935 --   106 N    1.370    91 C    1.369   103 C    1.153
   103   6 C    3.840 --   104 C    1.707   102 C    1.153   135 H    1.000
   104   6 C    3.863 --   103 C    1.707   105 C    1.149   136 H    0.995
   105   6 C    3.966 --    74 C    1.382   106 N    1.376   104 C    1.149
   106   7 N    2.506 --   105 C    1.376   102 C    1.370
   107   7 N    3.232 --    87 C    1.248    90 C    1.224   137 H    0.962
   108   6 C    3.811 --   109 C    1.410   115 C    1.354    80 C    1.026
   109   6 C    3.922 --   108 C    1.410   112 C    1.353   110 O    1.121
   110   8 O    2.192 --   109 C    1.121   111 C    0.978
   111   6 C    3.887 --   138 H    1.000   140 H    1.000   139 H    0.984
                           110 O    0.978
   112   6 C    3.900 --   113 C    1.474   109 C    1.353   141 H    0.984
   113   6 C    3.920 --   112 C    1.474   114 C    1.410   142 H    0.985
   114   6 C    3.825 --   115 C    1.410   113 C    1.410   143 H    0.988
   115   6 C    3.919 --   114 C    1.410   108 C    1.354   116 O    1.116
   116   8 O    2.192 --   115 C    1.116   117 C    0.983
   117   6 C    3.914 --   144 H    0.996   146 H    0.996   145 H    0.986
                           116 O    0.983
   118   1 H    1.029 --    74 C    0.996
   119   1 H    1.014 --    76 C    0.994
   120   1 H    1.033 --    77 C    0.999
   121   1 H    1.079 --    79 N    0.963
   122   1 H    1.035 --    82 C    0.999
   123   1 H    1.031 --    83 C    1.000
   124   1 H    1.028 --    88 C    1.000
   125   1 H    1.030 --    89 C    0.999
   126   1 H    1.038 --    95 C    1.001
   127   1 H    1.042 --    95 C    0.984
   128   1 H    1.051 --    95 C    1.000
   129   1 H    1.026 --    96 C    0.984
   130   1 H    1.021 --    97 C    0.985
   131   1 H    1.020 --    98 C    0.988
   132   1 H    1.040 --   101 C    0.986
   133   1 H    1.031 --   101 C    0.996
   134   1 H    1.027 --   101 C    0.996
   135   1 H    1.036 --   103 C    1.000
   136   1 H    1.018 --   104 C    0.995
   137   1 H    1.083 --   107 N    0.962
   138   1 H    1.046 --   111 C    1.000
   139   1 H    1.043 --   111 C    0.984
   140   1 H    1.046 --   111 C    1.000
   141   1 H    1.025 --   112 C    0.984
   142   1 H    1.021 --   113 C    0.985
   143   1 H    1.020 --   114 C    0.988
   144   1 H    1.027 --   117 C    0.996
   145   1 H    1.041 --   117 C    0.986
   146   1 H    1.028 --   117 C    0.996
   147   6 C    3.755 --   148 C    2.616    13 C    1.207
   148   6 C    3.760 --   147 C    2.616   157 C    1.208
   149   6 C    3.757 --   150 C    2.608   169 C    1.216
   150   6 C    3.757 --   149 C    2.608   229 C    1.216
   151   6 C    3.758 --   152 C    2.603   241 C    1.222
   152   6 C    3.758 --   151 C    2.603   301 C    1.222
   153   6 C    3.758 --   154 C    2.604   313 C    1.221
   154   6 C    3.758 --   153 C    2.604   373 C    1.221
   155   6 C    3.761 --   156 C    2.613   385 C    1.213
   156   6 C    3.756 --   155 C    2.613    86 C    1.212
   157   6 C    3.825 --   188 C    1.289   158 C    1.289   148 C    1.208
   158   6 C    3.906 --   157 C    1.289   159 C    1.270   162 N    1.254
   159   6 C    3.812 --   160 C    1.579   158 C    1.270   201 H    1.000
   160   6 C    3.818 --   159 C    1.579   161 C    1.260   202 H    1.000
   161   6 C    3.897 --   163 C    1.343   160 C    1.260   162 N    1.223
   162   7 N    3.242 --   158 C    1.254   161 C    1.223   203 H    0.963
   163   6 C    3.831 --   164 C    1.377   161 C    1.343   191 C    1.038
   164   6 C    3.932 --   163 C    1.377   167 N    1.351   165 C    1.161
   165   6 C    3.838 --   166 C    1.690   164 C    1.161   204 H    1.000
   166   6 C    3.833 --   165 C    1.690   168 C    1.169   205 H    1.000
   167   7 N    2.547 --   168 C    1.419   164 C    1.351
   168   6 C    3.943 --   167 N    1.419   169 C    1.288   166 C    1.169
   169   6 C    3.825 --   168 C    1.288   170 C    1.286   149 C    1.216
   170   6 C    3.906 --   169 C    1.286   171 C    1.274   190 N    1.250
   171   6 C    3.812 --   172 C    1.575   170 C    1.274   206 H    1.000
   172   6 C    3.813 --   171 C    1.575   173 C    1.265   207 H    0.999
   173   6 C    3.887 --   174 C    1.339   172 C    1.265   190 N    1.223
   174   6 C    3.803 --   185 C    1.382   173 C    1.339   175 C    1.032
   175   6 C    3.812 --   182 C    1.407   176 C    1.353   174 C    1.032
   176   6 C    3.917 --   179 C    1.410   175 C    1.353   177 O    1.117
   177   8 O    2.193 --   176 C    1.117   178 C    0.983
   178   6 C    3.912 --   209 H    0.996   210 H    0.996   208 H    0.986
                           177 O    0.983
   179   6 C    3.824 --   180 C    1.411   176 C    1.410   211 H    0.988
   180   6 C    3.917 --   181 C    1.472   179 C    1.411   212 H    0.986
   181   6 C    3.899 --   180 C    1.472   182 C    1.356   213 H    0.984
   182   6 C    3.923 --   175 C    1.407   181 C    1.356   183 O    1.120
   183   8 O    2.188 --   182 C    1.120   184 C    0.977
   184   6 C    3.886 --   216 H    1.001   215 H    0.999   214 H    0.984
                           183 O    0.977
   185   6 C    3.914 --   174 C    1.382   189 N    1.346   186 C    1.163
   186   6 C    3.834 --   187 C    1.691   185 C    1.163   217 H    1.000
   187   6 C    3.835 --   186 C    1.691   188 C    1.170   218 H    1.001
   188   6 C    3.945 --   189 N    1.416   157 C    1.289   187 C    1.170
   189   7 N    2.502 --   188 C    1.416   185 C    1.346
   190   7 N    3.227 --   170 C    1.250   173 C    1.223   219 H    0.963
   191   6 C    3.865 --   192 C    1.378   198 C    1.377   163 C    1.038
   192   6 C    3.915 --   195 C    1.388   191 C    1.378   193 O    1.117
   193   8 O    2.190 --   192 C    1.117   194 C    0.983
   194   6 C    3.912 --   221 H    0.997   220 H    0.996   222 H    0.986
                           193 O    0.983
   195   6 C    3.830 --   196 C    1.439   192 C    1.388   223 H    0.989
   196   6 C    3.918 --   197 C    1.440   195 C    1.439   224 H    0.986
   197   6 C    3.829 --   196 C    1.440   198 C    1.387   225 H    0.989
   198   6 C    3.918 --   197 C    1.387   191 C    1.377   199 O    1.121
   199   8 O    2.196 --   198 C    1.121   200 C    0.983
   200   6 C    3.912 --   226 H    0.997   228 H    0.996   227 H    0.986
                           199 O    0.983
   201   1 H    1.025 --   159 C    1.000
   202   1 H    1.028 --   160 C    1.000
   203   1 H    1.077 --   162 N    0.963
   204   1 H    1.031 --   165 C    1.000
   205   1 H    1.032 --   166 C    1.000
   206   1 H    1.028 --   171 C    1.000
   207   1 H    1.033 --   172 C    0.999
   208   1 H    1.040 --   178 C    0.986
   209   1 H    1.028 --   178 C    0.996
   210   1 H    1.030 --   178 C    0.996
   211   1 H    1.020 --   179 C    0.988
   212   1 H    1.022 --   180 C    0.986
   213   1 H    1.026 --   181 C    0.984
   214   1 H    1.042 --   184 C    0.984
   215   1 H    1.051 --   184 C    0.999
   216   1 H    1.039 --   184 C    1.001
   217   1 H    1.038 --   186 C    1.000
   218   1 H    1.032 --   187 C    1.001
   219   1 H    1.081 --   190 N    0.963
   220   1 H    1.029 --   194 C    0.996
   221   1 H    1.027 --   194 C    0.997
   222   1 H    1.040 --   194 C    0.986
   223   1 H    1.021 --   195 C    0.989
   224   1 H    1.025 --   196 C    0.986
   225   1 H    1.021 --   197 C    0.989
   226   1 H    1.028 --   200 C    0.997
   227   1 H    1.040 --   200 C    0.986
   228   1 H    1.028 --   200 C    0.996
   229   6 C    3.826 --   230 C    1.286   260 C    1.286   150 C    1.216
   230   6 C    3.905 --   229 C    1.286   231 C    1.272   234 N    1.254
   231   6 C    3.813 --   232 C    1.578   230 C    1.272   273 H    1.000
   232   6 C    3.817 --   231 C    1.578   233 C    1.261   274 H    1.000
   233   6 C    3.897 --   235 C    1.341   232 C    1.261   234 N    1.224
   234   7 N    3.242 --   230 C    1.254   233 C    1.224   275 H    0.963
   235   6 C    3.830 --   236 C    1.379   233 C    1.341   263 C    1.038
   236   6 C    3.932 --   235 C    1.379   239 N    1.349   237 C    1.161
   237   6 C    3.837 --   238 C    1.689   236 C    1.161   276 H    1.000
   238   6 C    3.831 --   237 C    1.689   240 C    1.170   277 H    1.000
   239   7 N    2.544 --   240 C    1.421   236 C    1.349
   240   6 C    3.941 --   239 N    1.421   241 C    1.284   238 C    1.170
   241   6 C    3.827 --   242 C    1.284   240 C    1.284   151 C    1.222
   242   6 C    3.906 --   241 C    1.284   243 C    1.275   262 N    1.251
   243   6 C    3.811 --   244 C    1.576   242 C    1.275   278 H    0.999
   244   6 C    3.812 --   243 C    1.576   245 C    1.265   279 H    0.999
   245   6 C    3.888 --   246 C    1.341   244 C    1.265   262 N    1.222
   246   6 C    3.802 --   257 C    1.382   245 C    1.341   247 C    1.030
   247   6 C    3.812 --   254 C    1.408   248 C    1.353   246 C    1.030
   248   6 C    3.917 --   251 C    1.410   247 C    1.353   249 O    1.116
   249   8 O    2.191 --   248 C    1.116   250 C    0.983
   250   6 C    3.913 --   281 H    0.996   282 H    0.996   280 H    0.986
                           249 O    0.983
   251   6 C    3.824 --   248 C    1.410   252 C    1.410   283 H    0.988
   252   6 C    3.918 --   253 C    1.473   251 C    1.410   284 H    0.986
   253   6 C    3.899 --   252 C    1.473   254 C    1.354   285 H    0.984
   254   6 C    3.923 --   247 C    1.408   253 C    1.354   255 O    1.122
   255   8 O    2.192 --   254 C    1.122   256 C    0.977
   256   6 C    3.886 --   288 H    1.000   287 H    0.999   286 H    0.984
                           255 O    0.977
   257   6 C    3.915 --   246 C    1.382   261 N    1.346   258 C    1.163
   258   6 C    3.832 --   259 C    1.689   257 C    1.163   289 H    1.000
   259   6 C    3.831 --   258 C    1.689   260 C    1.171   290 H    1.001
   260   6 C    3.943 --   261 N    1.417   229 C    1.286   259 C    1.171
   261   7 N    2.503 --   260 C    1.417   257 C    1.346
   262   7 N    3.224 --   242 C    1.251   245 C    1.222   291 H    0.963
   263   6 C    3.864 --   264 C    1.379   270 C    1.377   235 C    1.038
   264   6 C    3.914 --   267 C    1.388   263 C    1.379   265 O    1.118
   265   8 O    2.191 --   264 C    1.118   266 C    0.982
   266   6 C    3.912 --   293 H    0.997   292 H    0.996   294 H    0.986
                           265 O    0.982
   267   6 C    3.829 --   268 C    1.439   264 C    1.388   295 H    0.989
   268   6 C    3.918 --   269 C    1.439   267 C    1.439   296 H    0.986
   269   6 C    3.829 --   268 C    1.439   270 C    1.387   297 H    0.989
   270   6 C    3.918 --   269 C    1.387   263 C    1.377   271 O    1.121
   271   8 O    2.198 --   270 C    1.121   272 C    0.983
   272   6 C    3.912 --   298 H    0.996   300 H    0.996   299 H    0.986
                           271 O    0.983
   273   1 H    1.026 --   231 C    1.000
   274   1 H    1.029 --   232 C    1.000
   275   1 H    1.078 --   234 N    0.963
   276   1 H    1.032 --   237 C    1.000
   277   1 H    1.033 --   238 C    1.000
   278   1 H    1.024 --   243 C    0.999
   279   1 H    1.035 --   244 C    0.999
   280   1 H    1.040 --   250 C    0.986
   281   1 H    1.028 --   250 C    0.996
   282   1 H    1.030 --   250 C    0.996
   283   1 H    1.020 --   251 C    0.988
   284   1 H    1.022 --   252 C    0.986
   285   1 H    1.026 --   253 C    0.984
   286   1 H    1.042 --   256 C    0.984
   287   1 H    1.050 --   256 C    0.999
   288   1 H    1.043 --   256 C    1.000
   289   1 H    1.039 --   258 C    1.000
   290   1 H    1.032 --   259 C    1.001
   291   1 H    1.081 --   262 N    0.963
   292   1 H    1.029 --   266 C    0.996
   293   1 H    1.027 --   266 C    0.997
   294   1 H    1.040 --   266 C    0.986
   295   1 H    1.021 --   267 C    0.989
   296   1 H    1.025 --   268 C    0.986
   297   1 H    1.021 --   269 C    0.989
   298   1 H    1.028 --   272 C    0.996
   299   1 H    1.040 --   272 C    0.986
   300   1 H    1.029 --   272 C    0.996
   301   6 C    3.827 --   332 C    1.284   302 C    1.283   152 C    1.222
   302   6 C    3.902 --   301 C    1.283   303 C    1.275   306 N    1.254
   303   6 C    3.813 --   304 C    1.576   302 C    1.275   345 H    0.999
   304   6 C    3.817 --   303 C    1.576   305 C    1.262   346 H    1.000
   305   6 C    3.898 --   307 C    1.339   304 C    1.262   306 N    1.225
   306   7 N    3.242 --   302 C    1.254   305 C    1.225   347 H    0.963
   307   6 C    3.829 --   308 C    1.380   305 C    1.339   335 C    1.039
   308   6 C    3.932 --   307 C    1.380   311 N    1.348   309 C    1.161
   309   6 C    3.837 --   310 C    1.689   308 C    1.161   348 H    1.000
   310   6 C    3.831 --   309 C    1.689   312 C    1.170   349 H    1.000
   311   7 N    2.543 --   312 C    1.421   308 C    1.348
   312   6 C    3.942 --   311 N    1.421   313 C    1.284   310 C    1.170
   313   6 C    3.826 --   314 C    1.284   312 C    1.284   153 C    1.221
   314   6 C    3.906 --   313 C    1.284   315 C    1.275   334 N    1.252
   315   6 C    3.810 --   316 C    1.577   314 C    1.275   350 H    1.000
   316   6 C    3.812 --   315 C    1.577   317 C    1.264   351 H    0.999
   317   6 C    3.887 --   318 C    1.343   316 C    1.264   334 N    1.221
   318   6 C    3.803 --   329 C    1.382   317 C    1.343   319 C    1.026
   319   6 C    3.811 --   326 C    1.410   320 C    1.354   318 C    1.026
   320   6 C    3.918 --   323 C    1.410   319 C    1.354   321 O    1.116
   321   8 O    2.192 --   320 C    1.116   322 C    0.984
   322   6 C    3.914 --   353 H    0.996   354 H    0.996   352 H    0.986
                           321 O    0.984
   323   6 C    3.824 --   320 C    1.410   324 C    1.410   355 H    0.988
   324   6 C    3.919 --   325 C    1.474   323 C    1.410   356 H    0.986
   325   6 C    3.899 --   324 C    1.474   326 C    1.353   357 H    0.984
   326   6 C    3.921 --   319 C    1.410   325 C    1.353   327 O    1.122
   327   8 O    2.193 --   326 C    1.122   328 C    0.978
   328   6 C    3.885 --   359 H    1.000   360 H    1.000   358 H    0.984
                           327 O    0.978
   329   6 C    3.914 --   318 C    1.382   333 N    1.347   330 C    1.163
   330   6 C    3.830 --   331 C    1.689   329 C    1.163   361 H    1.000
   331   6 C    3.828 --   330 C    1.689   332 C    1.172   362 H    1.000
   332   6 C    3.940 --   333 N    1.418   301 C    1.284   331 C    1.172
   333   7 N    2.506 --   332 C    1.418   329 C    1.347
   334   7 N    3.223 --   314 C    1.252   317 C    1.221   363 H    0.963
   335   6 C    3.864 --   336 C    1.378   342 C    1.377   307 C    1.039
   336   6 C    3.914 --   339 C    1.388   335 C    1.378   337 O    1.118
   337   8 O    2.193 --   336 C    1.118   338 C    0.982
   338   6 C    3.912 --   365 H    0.997   364 H    0.996   366 H    0.986
                           337 O    0.982
   339   6 C    3.829 --   340 C    1.439   336 C    1.388   367 H    0.989
   340   6 C    3.918 --   341 C    1.439   339 C    1.439   368 H    0.986
   341   6 C    3.829 --   340 C    1.439   342 C    1.387   369 H    0.989
   342   6 C    3.918 --   341 C    1.387   335 C    1.377   343 O    1.121
   343   8 O    2.198 --   342 C    1.121   344 C    0.983
   344   6 C    3.912 --   370 H    0.997   372 H    0.996   371 H    0.986
                           343 O    0.983
   345   1 H    1.029 --   303 C    0.999
   346   1 H    1.030 --   304 C    1.000
   347   1 H    1.078 --   306 N    0.963
   348   1 H    1.032 --   309 C    1.000
   349   1 H    1.033 --   310 C    1.000
   350   1 H    1.025 --   315 C    1.000
   351   1 H    1.035 --   316 C    0.999
   352   1 H    1.040 --   322 C    0.986
   353   1 H    1.027 --   322 C    0.996
   354   1 H    1.029 --   322 C    0.996
   355   1 H    1.020 --   323 C    0.988
   356   1 H    1.022 --   324 C    0.986
   357   1 H    1.026 --   325 C    0.984
   358   1 H    1.042 --   328 C    0.984
   359   1 H    1.049 --   328 C    1.000
   360   1 H    1.044 --   328 C    1.000
   361   1 H    1.037 --   330 C    1.000
   362   1 H    1.031 --   331 C    1.000
   363   1 H    1.081 --   334 N    0.963
   364   1 H    1.029 --   338 C    0.996
   365   1 H    1.028 --   338 C    0.997
   366   1 H    1.040 --   338 C    0.986
   367   1 H    1.021 --   339 C    0.989
   368   1 H    1.025 --   340 C    0.986
   369   1 H    1.021 --   341 C    0.989
   370   1 H    1.029 --   344 C    0.997
   371   1 H    1.040 --   344 C    0.986
   372   1 H    1.029 --   344 C    0.996
   373   6 C    3.826 --   404 C    1.285   374 C    1.284   154 C    1.221
   374   6 C    3.902 --   373 C    1.284   375 C    1.274   378 N    1.253
   375   6 C    3.813 --   376 C    1.575   374 C    1.274   417 H    0.999
   376   6 C    3.817 --   375 C    1.575   377 C    1.263   418 H    1.000
   377   6 C    3.897 --   379 C    1.337   376 C    1.263   378 N    1.226
   378   7 N    3.243 --   374 C    1.253   377 C    1.226   419 H    0.963
   379   6 C    3.829 --   380 C    1.382   377 C    1.337   407 C    1.039
   380   6 C    3.933 --   379 C    1.382   383 N    1.348   381 C    1.160
   381   6 C    3.839 --   382 C    1.691   380 C    1.160   420 H    1.000
   382   6 C    3.831 --   381 C    1.691   384 C    1.168   421 H    1.000
   383   7 N    2.543 --   384 C    1.421   380 C    1.348
   384   6 C    3.943 --   383 N    1.421   385 C    1.287   382 C    1.168
   385   6 C    3.824 --   384 C    1.287   386 C    1.287   155 C    1.213
   386   6 C    3.907 --   385 C    1.287   387 C    1.273   406 N    1.251
   387   6 C    3.809 --   388 C    1.578   386 C    1.273   422 H    1.000
   388   6 C    3.813 --   387 C    1.578   389 C    1.263   423 H    0.999
   389   6 C    3.887 --   390 C    1.345   388 C    1.263   406 N    1.220
   390   6 C    3.804 --   401 C    1.380   389 C    1.345   391 C    1.027
   391   6 C    3.811 --   398 C    1.410   392 C    1.353   390 C    1.027
   392   6 C    3.918 --   395 C    1.410   391 C    1.353   393 O    1.116
   393   8 O    2.192 --   392 C    1.116   394 C    0.983
   394   6 C    3.913 --   425 H    0.996   426 H    0.996   424 H    0.986
                           393 O    0.983
   395   6 C    3.824 --   392 C    1.410   396 C    1.409   427 H    0.988
   396   6 C    3.919 --   397 C    1.474   395 C    1.409   428 H    0.986
   397   6 C    3.899 --   396 C    1.474   398 C    1.353   429 H    0.984
   398   6 C    3.921 --   391 C    1.410   397 C    1.353   399 O    1.123
   399   8 O    2.193 --   398 C    1.123   400 C    0.978
   400   6 C    3.885 --   432 H    1.000   431 H    1.000   430 H    0.984
                           399 O    0.978
   401   6 C    3.913 --   390 C    1.380   405 N    1.348   402 C    1.163
   402   6 C    3.830 --   403 C    1.689   401 C    1.163   433 H    0.999
   403   6 C    3.828 --   402 C    1.689   404 C    1.172   434 H    1.000
   404   6 C    3.940 --   405 N    1.417   373 C    1.285   403 C    1.172
   405   7 N    2.506 --   404 C    1.417   401 C    1.348
   406   7 N    3.223 --   386 C    1.251   389 C    1.220   435 H    0.963
   407   6 C    3.864 --   408 C    1.378   414 C    1.377   379 C    1.039
   408   6 C    3.914 --   411 C    1.388   407 C    1.378   409 O    1.118
   409   8 O    2.193 --   408 C    1.118   410 C    0.982
   410   6 C    3.912 --   437 H    0.997   436 H    0.996   438 H    0.986
                           409 O    0.982
   411   6 C    3.829 --   412 C    1.439   408 C    1.388   439 H    0.989
   412   6 C    3.918 --   413 C    1.439   411 C    1.439   440 H    0.986
   413   6 C    3.829 --   412 C    1.439   414 C    1.387   441 H    0.989
   414   6 C    3.917 --   413 C    1.387   407 C    1.377   415 O    1.120
   415   8 O    2.197 --   414 C    1.120   416 C    0.983
   416   6 C    3.912 --   442 H    0.997   444 H    0.996   443 H    0.986
                           415 O    0.983
   417   1 H    1.029 --   375 C    0.999
   418   1 H    1.029 --   376 C    1.000
   419   1 H    1.078 --   378 N    0.963
   420   1 H    1.032 --   381 C    1.000
   421   1 H    1.032 --   382 C    1.000
   422   1 H    1.026 --   387 C    1.000
   423   1 H    1.035 --   388 C    0.999
   424   1 H    1.039 --   394 C    0.986
   425   1 H    1.027 --   394 C    0.996
   426   1 H    1.029 --   394 C    0.996
   427   1 H    1.020 --   395 C    0.988
   428   1 H    1.022 --   396 C    0.986
   429   1 H    1.026 --   397 C    0.984
   430   1 H    1.042 --   400 C    0.984
   431   1 H    1.049 --   400 C    1.000
   432   1 H    1.044 --   400 C    1.000
   433   1 H    1.037 --   402 C    0.999
   434   1 H    1.031 --   403 C    1.000
   435   1 H    1.081 --   406 N    0.963
   436   1 H    1.029 --   410 C    0.996
   437   1 H    1.028 --   410 C    0.997
   438   1 H    1.040 --   410 C    0.986
   439   1 H    1.021 --   411 C    0.989
   440   1 H    1.025 --   412 C    0.986
   441   1 H    1.021 --   413 C    0.989
   442   1 H    1.030 --   416 C    0.997
   443   1 H    1.041 --   416 C    0.986
   444   1 H    1.028 --   416 C    0.996
 ---------------------------------------------------------------------------

Topologies differ in total number of bonds
Writing topology from bond orders to xtbtopo.mol

 dipole moment from electron density (au)
     X       Y       Z   
-210.1321   1.5430   4.6469  total (Debye):  534.248


           -------------------------------------------------
          | TOTAL ENERGY             -846.842246944165 Eh   |
          | GRADIENT NORM               0.108004782670 Eh/α |
          | HOMO-LUMO GAP               0.110655480127 eV   |
           -------------------------------------------------
########################################################################
[WARNING] Runtime exception occurred
-1- restart_readRestart: Dimension missmatch in restart file.
########################################################################

------------------------------------------------------------------------
 * finished run on 2022/07/29 at 19:06:56.116     
------------------------------------------------------------------------
 total:
 * wall-time:     0 d,  0 h,  1 min, 30.219 sec
 *  cpu-time:     0 d,  0 h,  1 min, 29.688 sec
 * ratio c/w:     0.994 speedup
 SCF:
 * wall-time:     0 d,  0 h,  1 min, 28.463 sec
 *  cpu-time:     0 d,  0 h,  1 min, 27.945 sec
 * ratio c/w:     0.994 speedup

