      -----------------------------------------------------------      
     |                   =====================                   |     
     |                           x T B                           |     
     |                   =====================                   |     
     |                         S. Grimme                         |     
     |          Mulliken Center for Theoretical Chemistry        |     
     |                    University of Bonn                     |     
      -----------------------------------------------------------      

   * xtb version 6.5.1 (b24c23e) compiled by 'conda@728c89f4b128' on 2022-07-12

   xtb is free software: you can redistribute it and/or modify it under
   the terms of the GNU Lesser General Public License as published by
   the Free Software Foundation, either version 3 of the License, or
   (at your option) any later version.
   
   xtb is distributed in the hope that it will be useful,
   but WITHOUT ANY WARRANTY; without even the implied warranty of
   MERCHANTABILITY or FITNESS FOR A PARTICULAR PURPOSE.  See the
   GNU Lesser General Public License for more details.
   
   Cite this work as:
   * C. Bannwarth, E. Caldeweyher, S. Ehlert, A. Hansen, P. Pracht,
     J. Seibert, S. Spicher, S. Grimme, WIREs Comput. Mol. Sci., 2020, 11,
     e01493. DOI: 10.1002/wcms.1493
   
   for GFN2-xTB:
   * C. Bannwarth, S. Ehlert and S. Grimme., J. Chem. Theory Comput., 2019,
     15, 1652-1671. DOI: 10.1021/acs.jctc.8b01176
   for GFN1-xTB:
   * S. Grimme, C. Bannwarth, P. Shushkov, J. Chem. Theory Comput., 2017,
     13, 1989-2009. DOI: 10.1021/acs.jctc.7b00118
   for GFN0-xTB:
   * P. Pracht, E. Caldeweyher, S. Ehlert, S. Grimme, ChemRxiv, 2019, preprint.
     DOI: 10.26434/chemrxiv.8326202.v1
   for GFN-FF:
   * S. Spicher and S. Grimme, Angew. Chem. Int. Ed., 2020, 59, 15665-15673.
     DOI: 10.1002/anie.202004239
   
   for ALPB and GBSA implicit solvation:
   * S. Ehlert, M. Stahn, S. Spicher, S. Grimme, J. Chem. Theory Comput.,
     2021, 17, 4250-4261. DOI: 10.1021/acs.jctc.1c00471
   
   for DFT-D4:
   * E. Caldeweyher, C. Bannwarth and S. Grimme, J. Chem. Phys., 2017,
     147, 034112. DOI: 10.1063/1.4993215
   * E. Caldeweyher, S. Ehlert, A. Hansen, H. Neugebauer, S. Spicher,
     C. Bannwarth and S. Grimme, J. Chem. Phys., 2019, 150, 154122.
     DOI: 10.1063/1.5090222
   * E. Caldeweyher, J.-M. Mewes, S. Ehlert and S. Grimme, Phys. Chem. Chem. Phys.
     2020, 22, 8499-8512. DOI: 10.1039/D0CP00502A
   
   for sTDA-xTB:
   * S. Grimme and C. Bannwarth, J. Chem. Phys., 2016, 145, 054103.
     DOI: 10.1063/1.4959605
   
   in the mass-spec context:
   * V. Asgeirsson, C. Bauer and S. Grimme, Chem. Sci., 2017, 8, 4879.
     DOI: 10.1039/c7sc00601b
   * J. Koopman and S. Grimme, ACS Omega 2019, 4, 12, 15120-15133.
     DOI: 10.1021/acsomega.9b02011
   
   for metadynamics refer to:
   * S. Grimme, J. Chem. Theory Comput., 2019, 155, 2847-2862
     DOI: 10.1021/acs.jctc.9b00143
   
   for SPH calculations refer to:
   * S. Spicher and S. Grimme, J. Chem. Theory Comput., 2021, 17, 1701-1714
     DOI: 10.1021/acs.jctc.0c01306
   
   with help from (in alphabetical order)
   P. Atkinson, C. Bannwarth, F. Bohle, G. Brandenburg, E. Caldeweyher
   M. Checinski, S. Dohm, S. Ehlert, S. Ehrlich, I. Gerasimov, C. Hölzer
   A. Katbashev, J. Koopman, C. Lavigne, S. Lehtola, F. März, M. Müller,
   F. Musil, H. Neugebauer, J. Pisarek, C. Plett, P. Pracht, F. Pultar,
   J. Seibert, P. Shushkov, S. Spicher, M. Stahn, M. Steiner, T. Strunk,
   J. Stückrath, T. Rose, and J. Unsleber
   
 * started run on 2022/07/28 at 18:50:11.110     

           -------------------------------------------------
          |                Calculation Setup                |
           -------------------------------------------------

          program call               : xtb xtbopt.xyz --gfn 1 --vipea
          hostname                   : cx3-6-25.cx3.hpc.ic.ac.uk
          coordinate file            : xtbopt.xyz
          omp threads                :                     1

   ID    Z sym.   atoms
    1    6 C      1-5, 7-11, 13-19, 21-26, 28-32, 34-41, 74-78, 80-84, 86-92,
                  94-99, 101-105, 107-114, 147-187, 189-193, 195-201,
                  203-208, 210-214, 216-223, 255-259, 261-265, 267-273,
                  275-280, 282-286, 288-295, 327-331, 333-337, 339-345,
                  347-352, 354-358, 360-367, 399-403, 405-409, 411-417,
                  419-424, 426-430, 432-439, 471-475, 477-481, 483-489,
                  491-496, 498-502, 504-511, 543-547, 549-553, 555-561,
                  563-568, 570-574, 576-583, 615-619, 621-625, 627-633,
                  635-640, 642-646, 648-655, 687-691, 693-697, 699-705,
                  707-712, 714-718, 720-727
    2    7 N      6, 12, 20, 27, 33, 42, 79, 85, 93, 100, 106, 115, 188, 194,
                  202, 209, 215, 224, 260, 266, 274, 281, 287, 296, 332, 338,
                  346, 353, 359, 368, 404, 410, 418, 425, 431, 440, 476, 482,
                  490, 497, 503, 512, 548, 554, 562, 569, 575, 584, 620, 626,
                  634, 641, 647, 656, 692, 698, 706, 713, 719, 728
    3    1 H      43-73, 116-146, 225-254, 297-326, 369-398, 441-470,
                  513-542, 585-614, 657-686, 729-758

           -------------------------------------------------
          |                 I P E A - x T B                 |
           -------------------------------------------------

        Reference                      10.1039/c7sc00601b
      * Hamiltonian:
        H0-scaling (s, p, d)           2.150000    2.300000    2.000000
        zeta-weighting                 0.000000
      * Dispersion:
        s8                             2.400000
        a1                             0.630000
        a2                             5.000000
        s9                             0.000000
      * Repulsion:
        kExp                           1.500000
        rExp                           1.000000
      * Coulomb:
        alpha                          1.000000
        third order                    atomic
        anisotropic                    false
      * Halogen bond correction:
        rad-scale                      1.300000
        damping                        0.440000


          ...................................................
          :                      SETUP                      :
          :.................................................:
          :  # basis functions                2884          :
          :  # atomic orbitals                2884          :
          :  # shells                         1972          :
          :  # electrons                      2186          :
          :  # halogen bonds                     0          :
          :  max. iterations                   250          :
          :  Hamiltonian                  GFN1-xTB          :
          :  restarted?                      false          :
          :  GBSA solvation                  false          :
          :  PC potential                    false          :
          :  electronic temp.          300.0000000     K    :
          :  accuracy                    1.0000000          :
          :  -> integral cutoff          0.2500000E+02      :
          :  -> integral neglect         0.1000000E-07      :
          :  -> SCF convergence          0.1000000E-05 Eh   :
          :  -> wf. convergence          0.2000000E-04 e    :
          :  Broyden damping             0.4000000          :
          ...................................................

 iter      E             dE          RMSdq      gap      omega  full diag
   1  -1373.9942639 -0.137399E+04  0.966E+00    0.42       0.0  T
   2  -1376.5522743 -0.255801E+01  0.607E+00    1.05       1.0  T
   3  -1355.6335908  0.209187E+02  0.439E+00    0.04       1.0  T
   4  -1379.2773533 -0.236438E+02  0.106E+00    0.81       1.0  T
   5  -1381.2531283 -0.197577E+01  0.258E-01    0.72       1.0  T
   6  -1381.3620426 -0.108914E+00  0.917E-02    0.79       1.0  T
   7  -1381.3722446 -0.102020E-01  0.435E-02    0.78       1.0  T
   8  -1381.3735329 -0.128835E-02  0.313E-02    0.78       1.0  T
   9  -1381.3741834 -0.650456E-03  0.206E-02    0.78       1.0  T
  10  -1381.3746119 -0.428513E-03  0.549E-03    0.78       1.0  T
  11  -1381.3746436 -0.316680E-04  0.199E-03    0.78       1.8  T
  12  -1381.3746487 -0.514044E-05  0.893E-04    0.78       4.1  T
  13  -1381.3746496 -0.860128E-06  0.457E-04    0.78       7.9  T
  14  -1381.3746498 -0.197540E-06  0.209E-04    0.78      17.4  T
  15  -1381.3746498 -0.589098E-07  0.810E-05    0.78      44.9  T
  16  -1381.3746498 -0.646787E-08  0.445E-05    0.78      81.7  T

   *** convergence criteria satisfied after 16 iterations ***

         #    Occupation            Energy/Eh            Energy/eV
      -------------------------------------------------------------
         1        2.0000           -1.0349119             -28.1614
       ...           ...                  ...                  ...
      1087        2.0000           -0.3657118              -9.9515
      1088        2.0000           -0.3628155              -9.8727
      1089        2.0000           -0.3595083              -9.7827
      1090        2.0000           -0.3560491              -9.6886
      1091        2.0000           -0.3527325              -9.5983
      1092        2.0000           -0.3499380              -9.5223
      1093        2.0000           -0.3481556              -9.4738 (HOMO)
      1094        0.0000           -0.3193607              -8.6902 (LUMO)
      1095                         -0.3169391              -8.6244
      1096                         -0.3136277              -8.5342
      1097                         -0.3097744              -8.4294
      1098                         -0.3056566              -8.3173
       ...                                ...                  ...
      2884                        584.1376572           15895.1947
      -------------------------------------------------------------
                  HL-Gap            0.0287949 Eh            0.7835 eV
             Fermi-level           -0.3337239 Eh           -9.0811 eV

 SCC (total)                   0 d,  0 h,  2 min, 54.828 sec
 SCC setup                      ...        0 min,  0.132 sec (  0.075%)
 Dispersion                     ...        0 min,  0.127 sec (  0.073%)
 classical contributions        ...        0 min,  0.025 sec (  0.014%)
 integral evaluation            ...        0 min,  4.464 sec (  2.554%)
 iterations                     ...        2 min, 40.496 sec ( 91.802%)
 molecular gradient             ...        0 min,  7.580 sec (  4.336%)
 printout                       ...        0 min,  2.004 sec (  1.146%)

         :::::::::::::::::::::::::::::::::::::::::::::::::::::
         ::                     SUMMARY                     ::
         :::::::::::::::::::::::::::::::::::::::::::::::::::::
         :: total energy           -1353.906488908027 Eh    ::
         :: gradient norm              0.136540333289 Eh/a0 ::
         :: HOMO-LUMO gap              0.783548552402 eV    ::
         ::.................................................::
         :: SCC energy             -1381.374649832071 Eh    ::
         :: -> electrostatic           0.804024658119 Eh    ::
         :: repulsion energy          28.091481004148 Eh    ::
         :: dispersion energy         -0.623320080104 Eh    ::
         :: halogen bond corr.         0.000000000000 Eh    ::
         :: add. restraining           0.000000000000 Eh    ::
         :: total charge               0.000000000020 e     ::
         :::::::::::::::::::::::::::::::::::::::::::::::::::::

           ------------------------------------------------- 
          |        vertical delta SCC IP calculation        |
           ------------------------------------------------- 
   1  -1381.0115856 -0.138101E+04  0.295E-02    0.78       0.0  T
   2  -1381.0108934  0.692208E-03  0.305E-02    0.75       1.0  T
   3  -1381.0136174 -0.272403E-02  0.175E-02    0.78       1.0  T
   4  -1381.0144780 -0.860582E-03  0.115E-02    0.77       1.0  T
   5  -1381.0146767 -0.198707E-03  0.536E-03    0.77       1.0  T
   6  -1381.0146619  0.148520E-04  0.390E-03    0.77       1.0  T
   7  -1381.0146943 -0.324196E-04  0.133E-03    0.77       2.7  T
   8  -1381.0146957 -0.138639E-05  0.824E-04    0.77       4.4  T
   9  -1381.0146918  0.390735E-05  0.915E-04    0.77       4.0  T
  10  -1381.0146972 -0.538016E-05  0.413E-04    0.77       8.8  T
  11  -1381.0146982 -0.102053E-05  0.101E-04    0.77      36.0  T
  12  -1381.0146982 -0.216646E-07  0.378E-05    0.77      96.2  T
  13  -1381.0146982 -0.242426E-08  0.125E-05    0.77     291.0  T
     SCC iter.                  ...        2 min, 13.026 sec
     gradient                   ...        0 min,  7.938 sec
------------------------------------------------------------------------
empirical IP shift (eV):    4.8455
delta SCC IP (eV):    4.9493
------------------------------------------------------------------------
           ------------------------------------------------- 
          |        vertical delta SCC EA calculation        |
           ------------------------------------------------- 
   1  -1381.6705426 -0.138167E+04  0.524E-02    0.07       0.0  T
   2  -1381.6737976 -0.325500E-02  0.483E-02    0.01       1.0  T
   3  -1381.6788659 -0.506827E-02  0.293E-02    0.06       1.0  T
   4  -1381.6804095 -0.154361E-02  0.211E-02    0.03       1.0  T
   5  -1381.6811059 -0.696381E-03  0.113E-02    0.04       1.0  T
   6  -1381.6808934  0.212485E-03  0.839E-03    0.04       1.0  T
   7  -1381.6806060  0.287421E-03  0.847E-03    0.04       1.0  T
   8  -1381.6811912 -0.585219E-03  0.260E-03    0.04       1.4  T
   9  -1381.6812311 -0.399556E-04  0.122E-03    0.04       3.0  T
  10  -1381.6812341 -0.300029E-05  0.472E-04    0.04       7.7  T
  11  -1381.6812345 -0.374752E-06  0.198E-04    0.04      18.3  T
  12  -1381.6812346 -0.524533E-07  0.760E-05    0.04      47.8  T
     SCC iter.                  ...        2 min,  1.175 sec
     gradient                   ...        0 min,  7.314 sec
------------------------------------------------------------------------
empirical EA shift (eV):    4.8455
delta SCC EA (eV):    3.4971
------------------------------------------------------------------------
           -------------------------------------------------
          |                Property Printout                |
           -------------------------------------------------

    * Orbital Energies and Occupations

         #    Occupation            Energy/Eh            Energy/eV
      -------------------------------------------------------------
         1        2.0000           -1.0137271             -27.5849
       ...           ...                  ...                  ...
      1082        2.0000           -0.3549711              -9.6593
      1083        2.0000           -0.3549235              -9.6580
      1084        2.0000           -0.3471153              -9.4455
      1085        2.0000           -0.3469641              -9.4414
      1086        2.0000           -0.3445204              -9.3749
      1087        2.0000           -0.3419198              -9.3041
      1088        2.0000           -0.3387851              -9.2188
      1089        2.0000           -0.3352851              -9.1236
      1090        2.0000           -0.3316446              -9.0245
      1091        2.0000           -0.3280478              -8.9266
      1092        2.0000           -0.3246500              -8.8342
      1093        2.0000           -0.3220555              -8.7636
      1094        0.6696           -0.2930250              -7.9736 (HOMO)
      1095        0.3086           -0.2915878              -7.9345 (LUMO)
      1096        0.0214           -0.2887231              -7.8566
      1097        0.0004           -0.2849348              -7.7535
      1098        0.0000           -0.2809162              -7.6441
      1099        0.0000           -0.2770919              -7.5401
      1100                         -0.2755788              -7.4989
      1101                         -0.2751584              -7.4874
      1102                         -0.2728669              -7.4251
      1103                         -0.2714136              -7.3855
      1104                         -0.2710317              -7.3751
      1105                         -0.2699615              -7.3460
       ...                                ...                  ...
      2884                        584.1616679           15895.8481
      -------------------------------------------------------------
                  HL-Gap            0.0014372 Eh            0.0391 eV
             Fermi-level           -0.2999812 Eh           -8.1629 eV

  Mulliken/CM5 charges         n(s)   n(p)   n(d)
     1C    -0.02258 -0.06341   1.088  2.934  0.000
     2C     0.06133  0.12170   1.104  2.834  0.000
     3C    -0.03584 -0.08113   1.081  2.955  0.000
     4C    -0.03265 -0.07763   1.076  2.957  0.000
     5C     0.06277  0.12663   1.102  2.836  0.000
     6N    -0.15967 -0.51248   1.312  3.847  0.000
     7C     0.00967  0.01540   1.093  2.898  0.000
     8C    -0.00550 -0.01409   1.074  2.932  0.000
     9C    -0.02456 -0.07791   1.080  2.944  0.000
    10C    -0.03491 -0.08412   1.061  2.974  0.000
    11C     0.06753  0.12272   1.080  2.852  0.000
    12N    -0.19023 -0.45606   1.283  3.907  0.000
    13C     0.00718 -0.08385   1.089  2.903  0.000
    14C     0.00713 -0.08394   1.090  2.903  0.000
    15C    -0.03559 -0.08474   1.062  2.974  0.000
    16C    -0.02630 -0.07957   1.078  2.948  0.000
    17C     0.05892  0.12686   1.118  2.823  0.000
    18C    -0.03753 -0.08357   1.085  2.953  0.000
    19C    -0.03891 -0.08433   1.090  2.949  0.000
    20N    -0.28566 -0.47220   1.294  3.992  0.000
    21C     0.06354  0.13437   1.129  2.807  0.000
    22C     0.01685  0.02401   1.086  2.897  0.000
    23C     0.06598  0.13090   1.110  2.824  0.000
    24C    -0.03343 -0.07784   1.079  2.955  0.000
    25C    -0.03216 -0.07715   1.075  2.957  0.000
    26C     0.06204  0.12529   1.100  2.838  0.000
    27N    -0.15741 -0.50951   1.315  3.843  0.000
    28C     0.00942  0.01521   1.093  2.898  0.000
    29C    -0.00558 -0.01415   1.074  2.932  0.000
    30C    -0.02510 -0.07845   1.080  2.945  0.000
    31C    -0.03527 -0.08446   1.061  2.974  0.000
    32C     0.06764  0.12289   1.080  2.852  0.000
    33N    -0.19027 -0.45620   1.283  3.907  0.000
    34C     0.00729 -0.08375   1.089  2.903  0.000
    35C     0.00723 -0.08381   1.089  2.903  0.000
    36C    -0.03522 -0.08440   1.061  2.974  0.000
    37C    -0.02576 -0.07905   1.078  2.948  0.000
    38C     0.06049  0.12983   1.121  2.818  0.000
    39C    -0.03754 -0.08355   1.087  2.951  0.000
    40C    -0.04073 -0.08709   1.091  2.950  0.000
    41C     0.05826  0.12391   1.125  2.817  0.000
    42N    -0.28793 -0.47486   1.293  3.995  0.000
    43H     0.02724  0.08625   0.973  0.000  0.000
    44H     0.03759  0.09425   0.962  0.000  0.000
    45H     0.02701  0.08576   0.973  0.000  0.000
    46H     0.16315  0.37144   0.837  0.000  0.000
    47H     0.02025  0.07825   0.980  0.000  0.000
    48H     0.02561  0.08607   0.974  0.000  0.000
    49H     0.02944  0.09009   0.971  0.000  0.000
    50H     0.03495  0.09715   0.965  0.000  0.000
    51H     0.02672  0.08874   0.973  0.000  0.000
    52H     0.02956  0.09026   0.970  0.000  0.000
    53H     0.02583  0.08778   0.974  0.000  0.000
    54H     0.03530  0.09750   0.965  0.000  0.000
    55H     0.02470  0.08516   0.975  0.000  0.000
    56H     0.01975  0.07770   0.980  0.000  0.000
    57H     0.01755  0.07634   0.982  0.000  0.000
    58H     0.02285  0.08091   0.977  0.000  0.000
    59H     0.03387  0.09199   0.966  0.000  0.000
    60H     0.02793  0.08677   0.972  0.000  0.000
    61H     0.16168  0.36994   0.838  0.000  0.000
    62H     0.01946  0.07746   0.981  0.000  0.000
    63H     0.02502  0.08548   0.975  0.000  0.000
    64H     0.03528  0.09749   0.965  0.000  0.000
    65H     0.03077  0.09144   0.969  0.000  0.000
    66H     0.02581  0.08776   0.974  0.000  0.000
    67H     0.02586  0.08785   0.974  0.000  0.000
    68H     0.03504  0.09723   0.965  0.000  0.000
    69H     0.03014  0.09081   0.970  0.000  0.000
    70H     0.02530  0.08577   0.975  0.000  0.000
    71H     0.02053  0.07851   0.979  0.000  0.000
    72H     0.01738  0.07607   0.983  0.000  0.000
    73H     0.02760  0.08401   0.972  0.000  0.000
    74C    -0.02258 -0.06342   1.088  2.934  0.000
    75C     0.06133  0.12171   1.104  2.834  0.000
    76C    -0.03584 -0.08113   1.081  2.955  0.000
    77C    -0.03264 -0.07762   1.076  2.957  0.000
    78C     0.06277  0.12662   1.102  2.836  0.000
    79N    -0.15968 -0.51248   1.312  3.847  0.000
    80C     0.00966  0.01539   1.093  2.898  0.000
    81C    -0.00551 -0.01409   1.074  2.932  0.000
    82C    -0.02453 -0.07788   1.080  2.944  0.000
    83C    -0.03489 -0.08410   1.061  2.974  0.000
    84C     0.06753  0.12271   1.080  2.852  0.000
    85N    -0.19024 -0.45607   1.283  3.907  0.000
    86C     0.00718 -0.08386   1.089  2.903  0.000
    87C     0.00712 -0.08395   1.090  2.903  0.000
    88C    -0.03560 -0.08476   1.062  2.974  0.000
    89C    -0.02632 -0.07959   1.078  2.948  0.000
    90C     0.05891  0.12686   1.118  2.823  0.000
    91C    -0.03753 -0.08356   1.085  2.953  0.000
    92C    -0.03891 -0.08433   1.089  2.949  0.000
    93N    -0.28563 -0.47220   1.294  3.992  0.000
    94C     0.06355  0.13438   1.129  2.807  0.000
    95C     0.01685  0.02401   1.086  2.897  0.000
    96C     0.06598  0.13089   1.110  2.824  0.000
    97C    -0.03344 -0.07785   1.079  2.955  0.000
    98C    -0.03216 -0.07715   1.075  2.957  0.000
    99C     0.06203  0.12528   1.100  2.838  0.000
   100N    -0.15740 -0.50951   1.315  3.843  0.000
   101C     0.00941  0.01520   1.093  2.898  0.000
   102C    -0.00559 -0.01416   1.074  2.932  0.000
   103C    -0.02510 -0.07845   1.080  2.945  0.000
   104C    -0.03528 -0.08447   1.061  2.974  0.000
   105C     0.06764  0.12291   1.080  2.852  0.000
   106N    -0.19025 -0.45619   1.283  3.907  0.000
   107C     0.00729 -0.08373   1.089  2.903  0.000
   108C     0.00724 -0.08379   1.089  2.903  0.000
   109C    -0.03524 -0.08441   1.061  2.974  0.000
   110C    -0.02575 -0.07903   1.078  2.948  0.000
   111C     0.06049  0.12983   1.121  2.818  0.000
   112C    -0.03754 -0.08356   1.087  2.951  0.000
   113C    -0.04072 -0.08708   1.091  2.950  0.000
   114C     0.05827  0.12392   1.125  2.817  0.000
   115N    -0.28793 -0.47486   1.293  3.995  0.000
   116H     0.02724  0.08626   0.973  0.000  0.000
   117H     0.03760  0.09426   0.962  0.000  0.000
   118H     0.02701  0.08577   0.973  0.000  0.000
   119H     0.16315  0.37145   0.837  0.000  0.000
   120H     0.02031  0.07832   0.980  0.000  0.000
   121H     0.02569  0.08615   0.974  0.000  0.000
   122H     0.02948  0.09012   0.971  0.000  0.000
   123H     0.03495  0.09715   0.965  0.000  0.000
   124H     0.02678  0.08879   0.973  0.000  0.000
   125H     0.02957  0.09027   0.970  0.000  0.000
   126H     0.02578  0.08772   0.974  0.000  0.000
   127H     0.03529  0.09750   0.965  0.000  0.000
   128H     0.02467  0.08514   0.975  0.000  0.000
   129H     0.01972  0.07768   0.980  0.000  0.000
   130H     0.01754  0.07632   0.982  0.000  0.000
   131H     0.02287  0.08093   0.977  0.000  0.000
   132H     0.03387  0.09198   0.966  0.000  0.000
   133H     0.02791  0.08673   0.972  0.000  0.000
   134H     0.16168  0.36994   0.838  0.000  0.000
   135H     0.01946  0.07746   0.981  0.000  0.000
   136H     0.02502  0.08549   0.975  0.000  0.000
   137H     0.03528  0.09748   0.965  0.000  0.000
   138H     0.03075  0.09142   0.969  0.000  0.000
   139H     0.02585  0.08780   0.974  0.000  0.000
   140H     0.02587  0.08786   0.974  0.000  0.000
   141H     0.03503  0.09722   0.965  0.000  0.000
   142H     0.03012  0.09078   0.970  0.000  0.000
   143H     0.02532  0.08579   0.975  0.000  0.000
   144H     0.02055  0.07854   0.979  0.000  0.000
   145H     0.01738  0.07608   0.983  0.000  0.000
   146H     0.02761  0.08401   0.972  0.000  0.000
   147C    -0.02103 -0.02189   1.060  2.961  0.000
   148C    -0.02056 -0.02221   1.090  2.931  0.000
   149C    -0.02309 -0.02392   1.058  2.965  0.000
   150C    -0.01828 -0.01987   1.092  2.926  0.000
   151C    -0.02161 -0.02245   1.060  2.962  0.000
   152C    -0.01982 -0.02142   1.090  2.930  0.000
   153C    -0.02243 -0.02327   1.059  2.963  0.000
   154C    -0.01895 -0.02055   1.091  2.928  0.000
   155C    -0.02194 -0.02277   1.059  2.963  0.000
   156C    -0.01927 -0.02087   1.091  2.928  0.000
   157C    -0.02189 -0.02273   1.059  2.963  0.000
   158C    -0.01923 -0.02083   1.091  2.928  0.000
   159C    -0.02185 -0.02269   1.059  2.963  0.000
   160C    -0.01903 -0.02063   1.091  2.928  0.000
   161C    -0.02167 -0.02250   1.059  2.962  0.000
   162C    -0.01916 -0.02076   1.091  2.928  0.000
   163C    -0.02169 -0.02253   1.059  2.962  0.000
   164C    -0.01903 -0.02063   1.091  2.928  0.000
   165C    -0.02169 -0.02253   1.059  2.962  0.000
   166C    -0.01904 -0.02064   1.091  2.928  0.000
   167C    -0.02166 -0.02250   1.059  2.962  0.000
   168C    -0.01916 -0.02076   1.091  2.928  0.000
   169C    -0.02184 -0.02268   1.059  2.963  0.000
   170C    -0.01903 -0.02063   1.091  2.928  0.000
   171C    -0.02189 -0.02273   1.059  2.963  0.000
   172C    -0.01923 -0.02083   1.091  2.928  0.000
   173C    -0.02194 -0.02278   1.059  2.963  0.000
   174C    -0.01927 -0.02087   1.091  2.928  0.000
   175C    -0.02242 -0.02326   1.059  2.963  0.000
   176C    -0.01895 -0.02055   1.091  2.928  0.000
   177C    -0.02161 -0.02245   1.060  2.962  0.000
   178C    -0.01981 -0.02141   1.090  2.930  0.000
   179C    -0.02310 -0.02394   1.058  2.965  0.000
   180C    -0.01827 -0.01987   1.092  2.926  0.000
   181C    -0.02103 -0.02189   1.060  2.961  0.000
   182C    -0.02057 -0.02222   1.090  2.931  0.000
   183C     0.01438  0.02160   1.084  2.902  0.000
   184C     0.06544  0.13034   1.110  2.825  0.000
   185C    -0.03548 -0.07990   1.078  2.958  0.000
   186C    -0.03290 -0.07788   1.075  2.958  0.000
   187C     0.06068  0.12399   1.098  2.842  0.000
   188N    -0.15681 -0.50913   1.314  3.843  0.000
   189C     0.01232  0.01797   1.095  2.893  0.000
   190C    -0.00484 -0.01348   1.074  2.931  0.000
   191C    -0.02546 -0.07875   1.078  2.947  0.000
   192C    -0.03527 -0.08442   1.061  2.974  0.000
   193C     0.06772  0.12297   1.080  2.852  0.000
   194N    -0.19014 -0.45608   1.283  3.907  0.000
   195C     0.00727 -0.08380   1.089  2.903  0.000
   196C     0.00728 -0.08374   1.089  2.903  0.000
   197C    -0.03489 -0.08410   1.061  2.974  0.000
   198C    -0.02417 -0.07755   1.080  2.944  0.000
   199C     0.05809  0.12599   1.117  2.825  0.000
   200C    -0.03771 -0.08376   1.085  2.952  0.000
   201C    -0.03975 -0.08518   1.089  2.951  0.000
   202N    -0.28498 -0.47108   1.293  3.992  0.000
   203C     0.06338  0.13423   1.130  2.807  0.000
   204C     0.01608  0.02329   1.085  2.899  0.000
   205C     0.06558  0.13050   1.110  2.825  0.000
   206C    -0.03478 -0.07920   1.078  2.957  0.000
   207C    -0.03281 -0.07779   1.075  2.958  0.000
   208C     0.06097  0.12427   1.098  2.841  0.000
   209N    -0.15644 -0.50877   1.314  3.842  0.000
   210C     0.01204  0.01769   1.094  2.894  0.000
   211C    -0.00488 -0.01352   1.074  2.931  0.000
   212C    -0.02538 -0.07870   1.078  2.947  0.000
   213C    -0.03512 -0.08428   1.061  2.974  0.000
   214C     0.06768  0.12292   1.080  2.852  0.000
   215N    -0.19031 -0.45624   1.283  3.907  0.000
   216C     0.00726 -0.08378   1.089  2.903  0.000
   217C     0.00730 -0.08379   1.089  2.903  0.000
   218C    -0.03503 -0.08425   1.061  2.974  0.000
   219C    -0.02432 -0.07769   1.080  2.944  0.000
   220C     0.05813  0.12608   1.117  2.825  0.000
   221C    -0.03776 -0.08381   1.085  2.952  0.000
   222C    -0.04023 -0.08566   1.089  2.951  0.000
   223C     0.06317  0.13396   1.130  2.807  0.000
   224N    -0.28554 -0.47166   1.293  3.993  0.000
   225H     0.03187  0.08995   0.968  0.000  0.000
   226H     0.02630  0.08518   0.974  0.000  0.000
   227H     0.16182  0.36976   0.838  0.000  0.000
   228H     0.02041  0.07840   0.980  0.000  0.000
   229H     0.02479  0.08526   0.975  0.000  0.000
   230H     0.03497  0.09717   0.965  0.000  0.000
   231H     0.02567  0.08761   0.974  0.000  0.000
   232H     0.02994  0.09065   0.970  0.000  0.000
   233H     0.02645  0.08847   0.974  0.000  0.000
   234H     0.02964  0.09029   0.970  0.000  0.000
   235H     0.03458  0.09677   0.965  0.000  0.000
   236H     0.02531  0.08577   0.975  0.000  0.000
   237H     0.02017  0.07819   0.980  0.000  0.000
   238H     0.01667  0.07551   0.983  0.000  0.000
   239H     0.02200  0.08001   0.978  0.000  0.000
   240H     0.03277  0.09085   0.967  0.000  0.000
   241H     0.02668  0.08559   0.973  0.000  0.000
   242H     0.16178  0.36970   0.838  0.000  0.000
   243H     0.02068  0.07867   0.979  0.000  0.000
   244H     0.02510  0.08558   0.975  0.000  0.000
   245H     0.02986  0.09051   0.970  0.000  0.000
   246H     0.02598  0.08801   0.974  0.000  0.000
   247H     0.03448  0.09668   0.966  0.000  0.000
   248H     0.03051  0.09123   0.969  0.000  0.000
   249H     0.03504  0.09725   0.965  0.000  0.000
   250H     0.02562  0.08755   0.974  0.000  0.000
   251H     0.02499  0.08546   0.975  0.000  0.000
   252H     0.01987  0.07791   0.980  0.000  0.000
   253H     0.01636  0.07517   0.984  0.000  0.000
   254H     0.02115  0.07915   0.979  0.000  0.000
   255C     0.01516  0.02237   1.084  2.901  0.000
   256C     0.06550  0.13042   1.110  2.825  0.000
   257C    -0.03524 -0.07966   1.078  2.958  0.000
   258C    -0.03287 -0.07785   1.075  2.958  0.000
   259C     0.06073  0.12403   1.098  2.842  0.000
   260N    -0.15658 -0.50890   1.314  3.842  0.000
   261C     0.01232  0.01797   1.094  2.893  0.000
   262C    -0.00483 -0.01347   1.074  2.931  0.000
   263C    -0.02537 -0.07868   1.078  2.947  0.000
   264C    -0.03519 -0.08435   1.061  2.974  0.000
   265C     0.06771  0.12297   1.080  2.852  0.000
   266N    -0.19020 -0.45615   1.283  3.907  0.000
   267C     0.00731 -0.08378   1.089  2.903  0.000
   268C     0.00729 -0.08374   1.089  2.903  0.000
   269C    -0.03495 -0.08417   1.061  2.974  0.000
   270C    -0.02422 -0.07760   1.080  2.944  0.000
   271C     0.05808  0.12598   1.117  2.825  0.000
   272C    -0.03766 -0.08371   1.085  2.952  0.000
   273C    -0.03989 -0.08532   1.089  2.951  0.000
   274N    -0.28514 -0.47123   1.293  3.992  0.000
   275C     0.06335  0.13419   1.130  2.807  0.000
   276C     0.01561  0.02282   1.085  2.900  0.000
   277C     0.06560  0.13053   1.110  2.825  0.000
   278C    -0.03498 -0.07940   1.078  2.957  0.000
   279C    -0.03277 -0.07775   1.075  2.958  0.000
   280C     0.06083  0.12413   1.098  2.841  0.000
   281N    -0.15652 -0.50885   1.314  3.842  0.000
   282C     0.01228  0.01793   1.094  2.893  0.000
   283C    -0.00483 -0.01347   1.074  2.931  0.000
   284C    -0.02534 -0.07866   1.078  2.947  0.000
   285C    -0.03512 -0.08428   1.061  2.974  0.000
   286C     0.06769  0.12293   1.080  2.852  0.000
   287N    -0.19029 -0.45620   1.283  3.907  0.000
   288C     0.00727 -0.08377   1.089  2.903  0.000
   289C     0.00731 -0.08378   1.089  2.903  0.000
   290C    -0.03498 -0.08420   1.061  2.974  0.000
   291C    -0.02426 -0.07763   1.080  2.944  0.000
   292C     0.05803  0.12594   1.117  2.825  0.000
   293C    -0.03774 -0.08379   1.085  2.952  0.000
   294C    -0.04008 -0.08551   1.089  2.951  0.000
   295C     0.06325  0.13407   1.130  2.807  0.000
   296N    -0.28523 -0.47133   1.293  3.992  0.000
   297H     0.03216  0.09024   0.968  0.000  0.000
   298H     0.02637  0.08526   0.974  0.000  0.000
   299H     0.16182  0.36973   0.838  0.000  0.000
   300H     0.02057  0.07856   0.979  0.000  0.000
   301H     0.02493  0.08540   0.975  0.000  0.000
   302H     0.03494  0.09715   0.965  0.000  0.000
   303H     0.02569  0.08763   0.974  0.000  0.000
   304H     0.03012  0.09084   0.970  0.000  0.000
   305H     0.02628  0.08832   0.974  0.000  0.000
   306H     0.02964  0.09029   0.970  0.000  0.000
   307H     0.03448  0.09668   0.966  0.000  0.000
   308H     0.02515  0.08561   0.975  0.000  0.000
   309H     0.02005  0.07807   0.980  0.000  0.000
   310H     0.01658  0.07541   0.983  0.000  0.000
   311H     0.02177  0.07978   0.978  0.000  0.000
   312H     0.03252  0.09060   0.967  0.000  0.000
   313H     0.02656  0.08547   0.973  0.000  0.000
   314H     0.16180  0.36972   0.838  0.000  0.000
   315H     0.02066  0.07865   0.979  0.000  0.000
   316H     0.02505  0.08552   0.975  0.000  0.000
   317H     0.02975  0.09040   0.970  0.000  0.000
   318H     0.02605  0.08808   0.974  0.000  0.000
   319H     0.03443  0.09663   0.966  0.000  0.000
   320H     0.03036  0.09108   0.970  0.000  0.000
   321H     0.03496  0.09716   0.965  0.000  0.000
   322H     0.02564  0.08757   0.974  0.000  0.000
   323H     0.02503  0.08550   0.975  0.000  0.000
   324H     0.01995  0.07797   0.980  0.000  0.000
   325H     0.01642  0.07524   0.984  0.000  0.000
   326H     0.02144  0.07945   0.979  0.000  0.000
   327C     0.01576  0.02297   1.085  2.900  0.000
   328C     0.06558  0.13050   1.110  2.825  0.000
   329C    -0.03492 -0.07934   1.078  2.957  0.000
   330C    -0.03271 -0.07770   1.075  2.958  0.000
   331C     0.06096  0.12426   1.098  2.841  0.000
   332N    -0.15647 -0.50879   1.314  3.842  0.000
   333C     0.01232  0.01797   1.094  2.893  0.000
   334C    -0.00487 -0.01351   1.074  2.931  0.000
   335C    -0.02535 -0.07867   1.078  2.947  0.000
   336C    -0.03515 -0.08430   1.061  2.974  0.000
   337C     0.06775  0.12301   1.080  2.852  0.000
   338N    -0.19016 -0.45612   1.283  3.907  0.000
   339C     0.00731 -0.08379   1.089  2.903  0.000
   340C     0.00729 -0.08374   1.089  2.903  0.000
   341C    -0.03495 -0.08417   1.061  2.974  0.000
   342C    -0.02424 -0.07762   1.080  2.944  0.000
   343C     0.05824  0.12614   1.117  2.825  0.000
   344C    -0.03757 -0.08362   1.085  2.952  0.000
   345C    -0.03981 -0.08523   1.089  2.951  0.000
   346N    -0.28510 -0.47118   1.293  3.992  0.000
   347C     0.06340  0.13423   1.130  2.807  0.000
   348C     0.01569  0.02290   1.085  2.900  0.000
   349C     0.06566  0.13059   1.110  2.825  0.000
   350C    -0.03488 -0.07930   1.078  2.957  0.000
   351C    -0.03264 -0.07763   1.075  2.958  0.000
   352C     0.06096  0.12426   1.098  2.841  0.000
   353N    -0.15650 -0.50883   1.314  3.842  0.000
   354C     0.01237  0.01802   1.094  2.893  0.000
   355C    -0.00486 -0.01349   1.074  2.931  0.000
   356C    -0.02534 -0.07866   1.078  2.947  0.000
   357C    -0.03511 -0.08428   1.061  2.974  0.000
   358C     0.06775  0.12299   1.080  2.852  0.000
   359N    -0.19021 -0.45613   1.283  3.907  0.000
   360C     0.00728 -0.08377   1.089  2.903  0.000
   361C     0.00731 -0.08378   1.089  2.903  0.000
   362C    -0.03494 -0.08416   1.061  2.974  0.000
   363C    -0.02423 -0.07761   1.080  2.944  0.000
   364C     0.05820  0.12610   1.117  2.825  0.000
   365C    -0.03761 -0.08367   1.085  2.952  0.000
   366C    -0.03986 -0.08529   1.089  2.951  0.000
   367C     0.06333  0.13416   1.130  2.807  0.000
   368N    -0.28502 -0.47112   1.293  3.992  0.000
   369H     0.03250  0.09059   0.967  0.000  0.000
   370H     0.02659  0.08549   0.973  0.000  0.000
   371H     0.16189  0.36980   0.838  0.000  0.000
   372H     0.02067  0.07867   0.979  0.000  0.000
   373H     0.02504  0.08552   0.975  0.000  0.000
   374H     0.03501  0.09722   0.965  0.000  0.000
   375H     0.02573  0.08767   0.974  0.000  0.000
   376H     0.03024  0.09096   0.970  0.000  0.000
   377H     0.02625  0.08829   0.974  0.000  0.000
   378H     0.02970  0.09035   0.970  0.000  0.000
   379H     0.03452  0.09672   0.965  0.000  0.000
   380H     0.02517  0.08563   0.975  0.000  0.000
   381H     0.02004  0.07806   0.980  0.000  0.000
   382H     0.01668  0.07551   0.983  0.000  0.000
   383H     0.02182  0.07983   0.978  0.000  0.000
   384H     0.03258  0.09066   0.967  0.000  0.000
   385H     0.02666  0.08557   0.973  0.000  0.000
   386H     0.16189  0.36980   0.838  0.000  0.000
   387H     0.02070  0.07869   0.979  0.000  0.000
   388H     0.02509  0.08556   0.975  0.000  0.000
   389H     0.02974  0.09040   0.970  0.000  0.000
   390H     0.02615  0.08818   0.974  0.000  0.000
   391H     0.03452  0.09672   0.965  0.000  0.000
   392H     0.03031  0.09103   0.970  0.000  0.000
   393H     0.03498  0.09719   0.965  0.000  0.000
   394H     0.02572  0.08765   0.974  0.000  0.000
   395H     0.02514  0.08560   0.975  0.000  0.000
   396H     0.02002  0.07805   0.980  0.000  0.000
   397H     0.01662  0.07544   0.983  0.000  0.000
   398H     0.02175  0.07975   0.978  0.000  0.000
   399C     0.01597  0.02318   1.085  2.899  0.000
   400C     0.06565  0.13058   1.110  2.825  0.000
   401C    -0.03476 -0.07918   1.078  2.957  0.000
   402C    -0.03261 -0.07760   1.075  2.958  0.000
   403C     0.06110  0.12440   1.098  2.841  0.000
   404N    -0.15642 -0.50875   1.314  3.842  0.000
   405C     0.01235  0.01800   1.094  2.893  0.000
   406C    -0.00489 -0.01353   1.074  2.931  0.000
   407C    -0.02535 -0.07867   1.078  2.947  0.000
   408C    -0.03511 -0.08427   1.061  2.974  0.000
   409C     0.06778  0.12304   1.080  2.852  0.000
   410N    -0.19014 -0.45609   1.283  3.907  0.000
   411C     0.00731 -0.08380   1.089  2.903  0.000
   412C     0.00728 -0.08375   1.089  2.903  0.000
   413C    -0.03493 -0.08415   1.061  2.974  0.000
   414C    -0.02424 -0.07762   1.080  2.944  0.000
   415C     0.05835  0.12625   1.117  2.825  0.000
   416C    -0.03753 -0.08358   1.085  2.952  0.000
   417C    -0.03972 -0.08515   1.089  2.951  0.000
   418N    -0.28500 -0.47109   1.293  3.992  0.000
   419C     0.06342  0.13426   1.130  2.807  0.000
   420C     0.01590  0.02311   1.085  2.899  0.000
   421C     0.06568  0.13061   1.110  2.825  0.000
   422C    -0.03477 -0.07919   1.078  2.957  0.000
   423C    -0.03259 -0.07757   1.075  2.958  0.000
   424C     0.06109  0.12438   1.098  2.841  0.000
   425N    -0.15645 -0.50877   1.314  3.842  0.000
   426C     0.01238  0.01803   1.094  2.893  0.000
   427C    -0.00489 -0.01352   1.074  2.931  0.000
   428C    -0.02534 -0.07867   1.078  2.947  0.000
   429C    -0.03510 -0.08426   1.061  2.974  0.000
   430C     0.06778  0.12303   1.080  2.852  0.000
   431N    -0.19015 -0.45608   1.283  3.907  0.000
   432C     0.00729 -0.08374   1.089  2.903  0.000
   433C     0.00731 -0.08378   1.089  2.903  0.000
   434C    -0.03493 -0.08415   1.061  2.974  0.000
   435C    -0.02423 -0.07761   1.080  2.944  0.000
   436C     0.05833  0.12624   1.117  2.825  0.000
   437C    -0.03754 -0.08360   1.085  2.952  0.000
   438C    -0.03974 -0.08516   1.089  2.951  0.000
   439C     0.06339  0.13423   1.130  2.807  0.000
   440N    -0.28496 -0.47105   1.293  3.992  0.000
   441H     0.03267  0.09076   0.967  0.000  0.000
   442H     0.02674  0.08564   0.973  0.000  0.000
   443H     0.16195  0.36986   0.838  0.000  0.000
   444H     0.02072  0.07872   0.979  0.000  0.000
   445H     0.02512  0.08560   0.975  0.000  0.000
   446H     0.03506  0.09728   0.965  0.000  0.000
   447H     0.02575  0.08769   0.974  0.000  0.000
   448H     0.03030  0.09102   0.970  0.000  0.000
   449H     0.02625  0.08828   0.974  0.000  0.000
   450H     0.02974  0.09039   0.970  0.000  0.000
   451H     0.03456  0.09676   0.965  0.000  0.000
   452H     0.02521  0.08567   0.975  0.000  0.000
   453H     0.02007  0.07809   0.980  0.000  0.000
   454H     0.01678  0.07560   0.983  0.000  0.000
   455H     0.02191  0.07992   0.978  0.000  0.000
   456H     0.03268  0.09076   0.967  0.000  0.000
   457H     0.02676  0.08566   0.973  0.000  0.000
   458H     0.16195  0.36986   0.838  0.000  0.000
   459H     0.02073  0.07872   0.979  0.000  0.000
   460H     0.02513  0.08561   0.975  0.000  0.000
   461H     0.02976  0.09040   0.970  0.000  0.000
   462H     0.02623  0.08826   0.974  0.000  0.000
   463H     0.03455  0.09675   0.965  0.000  0.000
   464H     0.03031  0.09103   0.970  0.000  0.000
   465H     0.03505  0.09726   0.965  0.000  0.000
   466H     0.02575  0.08768   0.974  0.000  0.000
   467H     0.02521  0.08567   0.975  0.000  0.000
   468H     0.02006  0.07809   0.980  0.000  0.000
   469H     0.01676  0.07558   0.983  0.000  0.000
   470H     0.02191  0.07992   0.978  0.000  0.000
   471C     0.01591  0.02312   1.085  2.899  0.000
   472C     0.06568  0.13061   1.110  2.825  0.000
   473C    -0.03476 -0.07918   1.078  2.957  0.000
   474C    -0.03259 -0.07757   1.075  2.958  0.000
   475C     0.06109  0.12439   1.098  2.841  0.000
   476N    -0.15645 -0.50877   1.314  3.842  0.000
   477C     0.01238  0.01803   1.094  2.893  0.000
   478C    -0.00488 -0.01352   1.074  2.931  0.000
   479C    -0.02535 -0.07867   1.078  2.947  0.000
   480C    -0.03510 -0.08426   1.061  2.974  0.000
   481C     0.06777  0.12302   1.080  2.852  0.000
   482N    -0.19016 -0.45608   1.283  3.907  0.000
   483C     0.00730 -0.08379   1.089  2.903  0.000
   484C     0.00728 -0.08376   1.089  2.903  0.000
   485C    -0.03492 -0.08414   1.061  2.974  0.000
   486C    -0.02424 -0.07761   1.080  2.944  0.000
   487C     0.05834  0.12624   1.117  2.825  0.000
   488C    -0.03754 -0.08360   1.085  2.952  0.000
   489C    -0.03973 -0.08516   1.089  2.951  0.000
   490N    -0.28496 -0.47105   1.293  3.992  0.000
   491C     0.06340  0.13423   1.130  2.807  0.000
   492C     0.01598  0.02319   1.085  2.899  0.000
   493C     0.06565  0.13057   1.110  2.825  0.000
   494C    -0.03476 -0.07918   1.078  2.957  0.000
   495C    -0.03261 -0.07760   1.075  2.958  0.000
   496C     0.06110  0.12439   1.098  2.841  0.000
   497N    -0.15643 -0.50875   1.314  3.842  0.000
   498C     0.01235  0.01800   1.094  2.893  0.000
   499C    -0.00489 -0.01352   1.074  2.931  0.000
   500C    -0.02534 -0.07866   1.078  2.947  0.000
   501C    -0.03511 -0.08426   1.061  2.974  0.000
   502C     0.06778  0.12304   1.080  2.852  0.000
   503N    -0.19014 -0.45608   1.283  3.907  0.000
   504C     0.00728 -0.08374   1.089  2.903  0.000
   505C     0.00731 -0.08379   1.089  2.903  0.000
   506C    -0.03493 -0.08415   1.061  2.974  0.000
   507C    -0.02424 -0.07762   1.080  2.944  0.000
   508C     0.05835  0.12625   1.117  2.825  0.000
   509C    -0.03753 -0.08359   1.085  2.952  0.000
   510C    -0.03973 -0.08515   1.089  2.951  0.000
   511C     0.06342  0.13425   1.130  2.807  0.000
   512N    -0.28500 -0.47109   1.293  3.992  0.000
   513H     0.03268  0.09076   0.967  0.000  0.000
   514H     0.02676  0.08566   0.973  0.000  0.000
   515H     0.16195  0.36986   0.838  0.000  0.000
   516H     0.02073  0.07873   0.979  0.000  0.000
   517H     0.02513  0.08560   0.975  0.000  0.000
   518H     0.03503  0.09724   0.965  0.000  0.000
   519H     0.02576  0.08770   0.974  0.000  0.000
   520H     0.03031  0.09102   0.970  0.000  0.000
   521H     0.02621  0.08823   0.974  0.000  0.000
   522H     0.02975  0.09041   0.970  0.000  0.000
   523H     0.03457  0.09677   0.965  0.000  0.000
   524H     0.02521  0.08567   0.975  0.000  0.000
   525H     0.02006  0.07809   0.980  0.000  0.000
   526H     0.01677  0.07559   0.983  0.000  0.000
   527H     0.02191  0.07992   0.978  0.000  0.000
   528H     0.03267  0.09076   0.967  0.000  0.000
   529H     0.02674  0.08564   0.973  0.000  0.000
   530H     0.16194  0.36986   0.838  0.000  0.000
   531H     0.02072  0.07872   0.979  0.000  0.000
   532H     0.02513  0.08560   0.975  0.000  0.000
   533H     0.02974  0.09039   0.970  0.000  0.000
   534H     0.02626  0.08830   0.974  0.000  0.000
   535H     0.03454  0.09674   0.965  0.000  0.000
   536H     0.03030  0.09102   0.970  0.000  0.000
   537H     0.03508  0.09729   0.965  0.000  0.000
   538H     0.02574  0.08767   0.974  0.000  0.000
   539H     0.02521  0.08567   0.975  0.000  0.000
   540H     0.02007  0.07810   0.980  0.000  0.000
   541H     0.01678  0.07561   0.983  0.000  0.000
   542H     0.02191  0.07992   0.978  0.000  0.000
   543C     0.01570  0.02291   1.085  2.900  0.000
   544C     0.06566  0.13058   1.110  2.825  0.000
   545C    -0.03488 -0.07930   1.078  2.957  0.000
   546C    -0.03265 -0.07763   1.075  2.958  0.000
   547C     0.06097  0.12426   1.098  2.841  0.000
   548N    -0.15650 -0.50882   1.314  3.842  0.000
   549C     0.01236  0.01801   1.094  2.893  0.000
   550C    -0.00485 -0.01349   1.074  2.931  0.000
   551C    -0.02534 -0.07866   1.078  2.947  0.000
   552C    -0.03511 -0.08428   1.061  2.974  0.000
   553C     0.06774  0.12298   1.080  2.852  0.000
   554N    -0.19021 -0.45613   1.283  3.907  0.000
   555C     0.00731 -0.08378   1.089  2.903  0.000
   556C     0.00728 -0.08377   1.089  2.903  0.000
   557C    -0.03494 -0.08415   1.061  2.974  0.000
   558C    -0.02424 -0.07761   1.080  2.944  0.000
   559C     0.05820  0.12610   1.117  2.825  0.000
   560C    -0.03761 -0.08367   1.085  2.952  0.000
   561C    -0.03985 -0.08528   1.089  2.951  0.000
   562N    -0.28503 -0.47112   1.293  3.992  0.000
   563C     0.06333  0.13416   1.130  2.807  0.000
   564C     0.01577  0.02298   1.085  2.899  0.000
   565C     0.06557  0.13050   1.110  2.825  0.000
   566C    -0.03492 -0.07934   1.078  2.957  0.000
   567C    -0.03272 -0.07770   1.075  2.958  0.000
   568C     0.06097  0.12427   1.098  2.841  0.000
   569N    -0.15646 -0.50878   1.314  3.842  0.000
   570C     0.01231  0.01796   1.094  2.893  0.000
   571C    -0.00488 -0.01351   1.074  2.931  0.000
   572C    -0.02535 -0.07866   1.078  2.947  0.000
   573C    -0.03515 -0.08431   1.061  2.974  0.000
   574C     0.06775  0.12302   1.080  2.852  0.000
   575N    -0.19016 -0.45612   1.283  3.907  0.000
   576C     0.00730 -0.08372   1.089  2.903  0.000
   577C     0.00732 -0.08378   1.089  2.903  0.000
   578C    -0.03496 -0.08417   1.061  2.974  0.000
   579C    -0.02424 -0.07762   1.080  2.944  0.000
   580C     0.05824  0.12614   1.117  2.825  0.000
   581C    -0.03757 -0.08363   1.085  2.952  0.000
   582C    -0.03981 -0.08523   1.089  2.951  0.000
   583C     0.06339  0.13423   1.130  2.807  0.000
   584N    -0.28510 -0.47118   1.293  3.992  0.000
   585H     0.03258  0.09066   0.967  0.000  0.000
   586H     0.02667  0.08557   0.973  0.000  0.000
   587H     0.16189  0.36980   0.838  0.000  0.000
   588H     0.02070  0.07869   0.979  0.000  0.000
   589H     0.02509  0.08556   0.975  0.000  0.000
   590H     0.03497  0.09717   0.965  0.000  0.000
   591H     0.02573  0.08767   0.974  0.000  0.000
   592H     0.03031  0.09103   0.970  0.000  0.000
   593H     0.02613  0.08815   0.974  0.000  0.000
   594H     0.02974  0.09040   0.970  0.000  0.000
   595H     0.03453  0.09673   0.965  0.000  0.000
   596H     0.02514  0.08560   0.975  0.000  0.000
   597H     0.02002  0.07805   0.980  0.000  0.000
   598H     0.01662  0.07544   0.983  0.000  0.000
   599H     0.02175  0.07976   0.978  0.000  0.000
   600H     0.03250  0.09059   0.967  0.000  0.000
   601H     0.02660  0.08549   0.973  0.000  0.000
   602H     0.16189  0.36980   0.838  0.000  0.000
   603H     0.02066  0.07866   0.979  0.000  0.000
   604H     0.02504  0.08552   0.975  0.000  0.000
   605H     0.02970  0.09035   0.970  0.000  0.000
   606H     0.02627  0.08830   0.974  0.000  0.000
   607H     0.03451  0.09670   0.965  0.000  0.000
   608H     0.03024  0.09096   0.970  0.000  0.000
   609H     0.03503  0.09724   0.965  0.000  0.000
   610H     0.02573  0.08766   0.974  0.000  0.000
   611H     0.02517  0.08562   0.975  0.000  0.000
   612H     0.02003  0.07806   0.980  0.000  0.000
   613H     0.01668  0.07551   0.983  0.000  0.000
   614H     0.02182  0.07983   0.978  0.000  0.000
   615C     0.01561  0.02282   1.085  2.900  0.000
   616C     0.06560  0.13053   1.110  2.825  0.000
   617C    -0.03498 -0.07940   1.078  2.957  0.000
   618C    -0.03276 -0.07774   1.075  2.958  0.000
   619C     0.06084  0.12412   1.098  2.841  0.000
   620N    -0.15654 -0.50885   1.314  3.842  0.000
   621C     0.01228  0.01793   1.094  2.893  0.000
   622C    -0.00482 -0.01347   1.074  2.931  0.000
   623C    -0.02534 -0.07866   1.078  2.947  0.000
   624C    -0.03512 -0.08428   1.061  2.974  0.000
   625C     0.06769  0.12293   1.080  2.852  0.000
   626N    -0.19029 -0.45620   1.283  3.907  0.000
   627C     0.00731 -0.08378   1.089  2.903  0.000
   628C     0.00727 -0.08377   1.089  2.903  0.000
   629C    -0.03498 -0.08419   1.061  2.974  0.000
   630C    -0.02427 -0.07764   1.080  2.944  0.000
   631C     0.05804  0.12595   1.117  2.825  0.000
   632C    -0.03774 -0.08379   1.085  2.952  0.000
   633C    -0.04007 -0.08550   1.089  2.951  0.000
   634N    -0.28523 -0.47132   1.293  3.992  0.000
   635C     0.06325  0.13407   1.130  2.807  0.000
   636C     0.01516  0.02238   1.084  2.901  0.000
   637C     0.06549  0.13041   1.110  2.825  0.000
   638C    -0.03524 -0.07966   1.078  2.958  0.000
   639C    -0.03287 -0.07785   1.075  2.958  0.000
   640C     0.06073  0.12403   1.098  2.842  0.000
   641N    -0.15659 -0.50891   1.314  3.842  0.000
   642C     0.01231  0.01796   1.094  2.893  0.000
   643C    -0.00483 -0.01347   1.074  2.931  0.000
   644C    -0.02537 -0.07868   1.078  2.947  0.000
   645C    -0.03519 -0.08434   1.061  2.974  0.000
   646C     0.06771  0.12297   1.080  2.852  0.000
   647N    -0.19020 -0.45615   1.283  3.907  0.000
   648C     0.00729 -0.08374   1.089  2.903  0.000
   649C     0.00730 -0.08379   1.089  2.903  0.000
   650C    -0.03495 -0.08417   1.061  2.974  0.000
   651C    -0.02422 -0.07760   1.080  2.944  0.000
   652C     0.05809  0.12599   1.117  2.825  0.000
   653C    -0.03766 -0.08371   1.085  2.952  0.000
   654C    -0.03989 -0.08531   1.089  2.951  0.000
   655C     0.06335  0.13419   1.130  2.807  0.000
   656N    -0.28514 -0.47123   1.293  3.992  0.000
   657H     0.03252  0.09061   0.967  0.000  0.000
   658H     0.02656  0.08547   0.973  0.000  0.000
   659H     0.16181  0.36972   0.838  0.000  0.000
   660H     0.02067  0.07866   0.979  0.000  0.000
   661H     0.02505  0.08552   0.975  0.000  0.000
   662H     0.03493  0.09714   0.965  0.000  0.000
   663H     0.02566  0.08760   0.974  0.000  0.000
   664H     0.03035  0.09107   0.970  0.000  0.000
   665H     0.02603  0.08805   0.974  0.000  0.000
   666H     0.02975  0.09040   0.970  0.000  0.000
   667H     0.03445  0.09666   0.966  0.000  0.000
   668H     0.02503  0.08549   0.975  0.000  0.000
   669H     0.01994  0.07797   0.980  0.000  0.000
   670H     0.01642  0.07524   0.984  0.000  0.000
   671H     0.02144  0.07945   0.979  0.000  0.000
   672H     0.03216  0.09024   0.968  0.000  0.000
   673H     0.02637  0.08527   0.974  0.000  0.000
   674H     0.16182  0.36973   0.838  0.000  0.000
   675H     0.02057  0.07856   0.979  0.000  0.000
   676H     0.02493  0.08541   0.975  0.000  0.000
   677H     0.02964  0.09029   0.970  0.000  0.000
   678H     0.02629  0.08833   0.974  0.000  0.000
   679H     0.03447  0.09667   0.966  0.000  0.000
   680H     0.03012  0.09084   0.970  0.000  0.000
   681H     0.03495  0.09716   0.965  0.000  0.000
   682H     0.02568  0.08762   0.974  0.000  0.000
   683H     0.02515  0.08561   0.975  0.000  0.000
   684H     0.02005  0.07807   0.980  0.000  0.000
   685H     0.01658  0.07541   0.983  0.000  0.000
   686H     0.02177  0.07978   0.978  0.000  0.000
   687C     0.01606  0.02328   1.085  2.899  0.000
   688C     0.06558  0.13050   1.110  2.825  0.000
   689C    -0.03478 -0.07920   1.078  2.957  0.000
   690C    -0.03281 -0.07779   1.075  2.958  0.000
   691C     0.06096  0.12425   1.098  2.841  0.000
   692N    -0.15645 -0.50876   1.314  3.842  0.000
   693C     0.01205  0.01771   1.094  2.894  0.000
   694C    -0.00487 -0.01351   1.074  2.931  0.000
   695C    -0.02537 -0.07869   1.078  2.947  0.000
   696C    -0.03511 -0.08427   1.061  2.974  0.000
   697C     0.06767  0.12291   1.080  2.852  0.000
   698N    -0.19031 -0.45623   1.283  3.907  0.000
   699C     0.00731 -0.08378   1.089  2.903  0.000
   700C     0.00725 -0.08379   1.089  2.903  0.000
   701C    -0.03504 -0.08425   1.061  2.974  0.000
   702C    -0.02435 -0.07773   1.080  2.944  0.000
   703C     0.05812  0.12607   1.117  2.825  0.000
   704C    -0.03777 -0.08382   1.085  2.952  0.000
   705C    -0.04024 -0.08566   1.089  2.951  0.000
   706N    -0.28557 -0.47166   1.293  3.993  0.000
   707C     0.06317  0.13396   1.130  2.807  0.000
   708C     0.01436  0.02157   1.084  2.902  0.000
   709C     0.06546  0.13036   1.110  2.825  0.000
   710C    -0.03547 -0.07989   1.078  2.958  0.000
   711C    -0.03290 -0.07787   1.075  2.958  0.000
   712C     0.06068  0.12399   1.098  2.842  0.000
   713N    -0.15681 -0.50912   1.314  3.843  0.000
   714C     0.01233  0.01798   1.095  2.893  0.000
   715C    -0.00483 -0.01347   1.074  2.931  0.000
   716C    -0.02546 -0.07877   1.078  2.947  0.000
   717C    -0.03524 -0.08440   1.061  2.974  0.000
   718C     0.06772  0.12296   1.080  2.852  0.000
   719N    -0.19016 -0.45609   1.283  3.907  0.000
   720C     0.00728 -0.08376   1.089  2.903  0.000
   721C     0.00727 -0.08381   1.089  2.903  0.000
   722C    -0.03487 -0.08409   1.061  2.974  0.000
   723C    -0.02418 -0.07756   1.080  2.944  0.000
   724C     0.05810  0.12600   1.117  2.825  0.000
   725C    -0.03771 -0.08376   1.085  2.952  0.000
   726C    -0.03976 -0.08518   1.089  2.951  0.000
   727C     0.06339  0.13423   1.130  2.807  0.000
   728N    -0.28498 -0.47108   1.293  3.992  0.000
   729H     0.03277  0.09085   0.967  0.000  0.000
   730H     0.02668  0.08558   0.973  0.000  0.000
   731H     0.16179  0.36970   0.838  0.000  0.000
   732H     0.02070  0.07869   0.979  0.000  0.000
   733H     0.02512  0.08559   0.975  0.000  0.000
   734H     0.03501  0.09722   0.965  0.000  0.000
   735H     0.02568  0.08762   0.974  0.000  0.000
   736H     0.03050  0.09122   0.969  0.000  0.000
   737H     0.02590  0.08793   0.974  0.000  0.000
   738H     0.02983  0.09048   0.970  0.000  0.000
   739H     0.03450  0.09670   0.966  0.000  0.000
   740H     0.02493  0.08539   0.975  0.000  0.000
   741H     0.01982  0.07784   0.980  0.000  0.000
   742H     0.01638  0.07519   0.984  0.000  0.000
   743H     0.02113  0.07913   0.979  0.000  0.000
   744H     0.03186  0.08994   0.968  0.000  0.000
   745H     0.02633  0.08521   0.974  0.000  0.000
   746H     0.16183  0.36975   0.838  0.000  0.000
   747H     0.02040  0.07838   0.980  0.000  0.000
   748H     0.02477  0.08524   0.975  0.000  0.000
   749H     0.02966  0.09031   0.970  0.000  0.000
   750H     0.02642  0.08845   0.974  0.000  0.000
   751H     0.03457  0.09677   0.965  0.000  0.000
   752H     0.02996  0.09067   0.970  0.000  0.000
   753H     0.03495  0.09716   0.965  0.000  0.000
   754H     0.02564  0.08757   0.974  0.000  0.000
   755H     0.02530  0.08576   0.975  0.000  0.000
   756H     0.02017  0.07820   0.980  0.000  0.000
   757H     0.01667  0.07551   0.983  0.000  0.000
   758H     0.02200  0.08001   0.978  0.000  0.000

Wiberg/Mayer (AO) data.
largest (>0.10) Wiberg bond orders for each atom

 ---------------------------------------------------------------------------
     #   Z sym  total        # sym  WBO       # sym  WBO       # sym  WBO
 ---------------------------------------------------------------------------
     1   6 C    3.814 --    41 C    1.385     2 C    1.372    43 H    0.996
     2   6 C    3.925 --     1 C    1.372     3 C    1.241     6 N    1.230
     3   6 C    3.838 --     4 C    1.597     2 C    1.241    44 H    0.993
     4   6 C    3.825 --     3 C    1.597     5 C    1.254    45 H    0.999
     5   6 C    3.898 --     7 C    1.340     4 C    1.254     6 N    1.230
     6   7 N    3.247 --     5 C    1.230     2 C    1.230    46 H    0.961
     7   6 C    3.843 --    17 C    1.366     5 C    1.340     8 C    1.057
     8   6 C    3.879 --    16 C    1.410     9 C    1.409     7 C    1.057
     9   6 C    3.869 --    10 C    1.472     8 C    1.409    47 H    0.989
    10   6 C    3.847 --     9 C    1.472    11 C    1.376    48 H    0.992
    11   6 C    3.907 --    10 C    1.376    15 C    1.375    12 N    1.141
    12   7 N    3.009 --    11 C    1.141    13 C    0.966    14 C    0.965
    13   6 C    3.908 --    51 H    1.003    50 H    1.002    49 H    0.999
                            12 N    0.966
    14   6 C    3.909 --    53 H    1.003    54 H    1.002    52 H    0.999
                            12 N    0.965
    15   6 C    3.848 --    16 C    1.472    11 C    1.375    55 H    0.992
    16   6 C    3.866 --    15 C    1.472     8 C    1.410    56 H    0.989
    17   6 C    3.924 --     7 C    1.366    20 N    1.356    18 C    1.164
    18   6 C    3.839 --    19 C    1.690    17 C    1.164    57 H    0.999
    19   6 C    3.851 --    18 C    1.690    21 C    1.168    58 H    1.000
    20   7 N    2.568 --    21 C    1.414    17 C    1.356
    21   6 C    3.943 --    20 N    1.414    22 C    1.287    19 C    1.168
    22   6 C    3.848 --    23 C    1.288    21 C    1.287   148 C    1.221
    23   6 C    3.905 --    22 C    1.288    24 C    1.268    27 N    1.251
    24   6 C    3.833 --    25 C    1.583    23 C    1.268    59 H    0.999
    25   6 C    3.818 --    24 C    1.583    26 C    1.260    60 H    0.998
    26   6 C    3.894 --    28 C    1.344    25 C    1.260    27 N    1.222
    27   7 N    3.259 --    23 C    1.251    26 C    1.222    61 H    0.960
    28   6 C    3.830 --    38 C    1.353    26 C    1.344    29 C    1.058
    29   6 C    3.879 --    37 C    1.409    30 C    1.408    28 C    1.058
    30   6 C    3.868 --    31 C    1.473    29 C    1.408    62 H    0.989
    31   6 C    3.847 --    30 C    1.473    32 C    1.375    63 H    0.992
    32   6 C    3.906 --    31 C    1.375    36 C    1.375    33 N    1.141
    33   7 N    3.010 --    32 C    1.141    35 C    0.966    34 C    0.965
    34   6 C    3.908 --    66 H    1.003    64 H    1.002    65 H    0.999
                            33 N    0.965
    35   6 C    3.908 --    67 H    1.003    68 H    1.002    69 H    0.999
                            33 N    0.966
    36   6 C    3.847 --    37 C    1.472    32 C    1.375    70 H    0.992
    37   6 C    3.866 --    36 C    1.472    29 C    1.409    71 H    0.989
    38   6 C    3.944 --    42 N    1.383    28 C    1.353    39 C    1.156
    39   6 C    3.843 --    40 C    1.705    38 C    1.156    72 H    1.000
    40   6 C    3.862 --    39 C    1.705    41 C    1.148    73 H    0.993
    41   6 C    3.968 --     1 C    1.385    42 N    1.374    40 C    1.148
    42   7 N    2.555 --    38 C    1.383    41 C    1.374
    43   1 H    1.033 --     1 C    0.996
    44   1 H    1.016 --     3 C    0.993
    45   1 H    1.034 --     4 C    0.999
    46   1 H    1.083 --     6 N    0.961
    47   1 H    1.054 --     9 C    0.989
    48   1 H    1.039 --    10 C    0.992
    49   1 H    1.026 --    13 C    0.999
    50   1 H    1.035 --    13 C    1.002
    51   1 H    1.055 --    13 C    1.003
    52   1 H    1.027 --    14 C    0.999
    53   1 H    1.056 --    14 C    1.003
    54   1 H    1.035 --    14 C    1.002
    55   1 H    1.039 --    15 C    0.992
    56   1 H    1.050 --    16 C    0.989
    57   1 H    1.040 --    18 C    0.999
    58   1 H    1.031 --    19 C    1.000
    59   1 H    1.026 --    24 C    0.999
    60   1 H    1.034 --    25 C    0.998
    61   1 H    1.087 --    27 N    0.960
    62   1 H    1.053 --    30 C    0.989
    63   1 H    1.039 --    31 C    0.992
    64   1 H    1.035 --    34 C    1.002
    65   1 H    1.026 --    34 C    0.999
    66   1 H    1.056 --    34 C    1.003
    67   1 H    1.056 --    35 C    1.003
    68   1 H    1.035 --    35 C    1.002
    69   1 H    1.026 --    35 C    0.999
    70   1 H    1.039 --    36 C    0.992
    71   1 H    1.050 --    37 C    0.989
    72   1 H    1.040 --    39 C    1.000
    73   1 H    1.019 --    40 C    0.993
    74   6 C    3.814 --   114 C    1.385    75 C    1.372   116 H    0.996
    75   6 C    3.925 --    74 C    1.372    76 C    1.242    79 N    1.230
    76   6 C    3.838 --    77 C    1.597    75 C    1.242   117 H    0.993
    77   6 C    3.825 --    76 C    1.597    78 C    1.254   118 H    0.999
    78   6 C    3.898 --    80 C    1.340    77 C    1.254    79 N    1.230
    79   7 N    3.247 --    78 C    1.230    75 C    1.230   119 H    0.961
    80   6 C    3.843 --    90 C    1.366    78 C    1.340    81 C    1.057
    81   6 C    3.879 --    89 C    1.410    82 C    1.409    80 C    1.057
    82   6 C    3.869 --    83 C    1.472    81 C    1.409   120 H    0.989
    83   6 C    3.847 --    82 C    1.472    84 C    1.375   121 H    0.992
    84   6 C    3.907 --    83 C    1.375    88 C    1.375    85 N    1.141
    85   7 N    3.009 --    84 C    1.141    86 C    0.966    87 C    0.965
    86   6 C    3.908 --   124 H    1.003   123 H    1.002   122 H    0.999
                            85 N    0.966
    87   6 C    3.909 --   126 H    1.003   127 H    1.002   125 H    0.999
                            85 N    0.965
    88   6 C    3.848 --    89 C    1.472    84 C    1.375   128 H    0.992
    89   6 C    3.866 --    88 C    1.472    81 C    1.410   129 H    0.989
    90   6 C    3.924 --    80 C    1.366    93 N    1.356    91 C    1.164
    91   6 C    3.839 --    92 C    1.690    90 C    1.164   130 H    0.999
    92   6 C    3.850 --    91 C    1.690    94 C    1.168   131 H    1.000
    93   7 N    2.568 --    94 C    1.414    90 C    1.356
    94   6 C    3.943 --    93 N    1.414    95 C    1.287    92 C    1.168
    95   6 C    3.848 --    96 C    1.288    94 C    1.287   182 C    1.221
    96   6 C    3.905 --    95 C    1.288    97 C    1.268   100 N    1.251
    97   6 C    3.833 --    98 C    1.583    96 C    1.268   132 H    0.999
    98   6 C    3.818 --    97 C    1.583    99 C    1.260   133 H    0.998
    99   6 C    3.894 --   101 C    1.344    98 C    1.260   100 N    1.223
   100   7 N    3.259 --    96 C    1.251    99 C    1.223   134 H    0.960
   101   6 C    3.830 --   111 C    1.353    99 C    1.344   102 C    1.059
   102   6 C    3.879 --   110 C    1.409   103 C    1.408   101 C    1.059
   103   6 C    3.868 --   104 C    1.473   102 C    1.408   135 H    0.989
   104   6 C    3.847 --   103 C    1.473   105 C    1.375   136 H    0.992
   105   6 C    3.906 --   104 C    1.375   109 C    1.375   106 N    1.141
   106   7 N    3.010 --   105 C    1.141   108 C    0.966   107 C    0.965
   107   6 C    3.908 --   139 H    1.003   137 H    1.002   138 H    0.999
                           106 N    0.965
   108   6 C    3.908 --   140 H    1.003   141 H    1.002   142 H    0.999
                           106 N    0.966
   109   6 C    3.847 --   110 C    1.472   105 C    1.375   143 H    0.992
   110   6 C    3.866 --   109 C    1.472   102 C    1.409   144 H    0.989
   111   6 C    3.944 --   115 N    1.383   101 C    1.353   112 C    1.156
   112   6 C    3.843 --   113 C    1.705   111 C    1.156   145 H    1.000
   113   6 C    3.862 --   112 C    1.705   114 C    1.148   146 H    0.993
   114   6 C    3.968 --    74 C    1.385   115 N    1.374   113 C    1.148
   115   7 N    2.555 --   111 C    1.383   114 C    1.374
   116   1 H    1.033 --    74 C    0.996
   117   1 H    1.016 --    76 C    0.993
   118   1 H    1.034 --    77 C    0.999
   119   1 H    1.083 --    79 N    0.961
   120   1 H    1.053 --    82 C    0.989
   121   1 H    1.039 --    83 C    0.992
   122   1 H    1.026 --    86 C    0.999
   123   1 H    1.035 --    86 C    1.002
   124   1 H    1.055 --    86 C    1.003
   125   1 H    1.027 --    87 C    0.999
   126   1 H    1.056 --    87 C    1.003
   127   1 H    1.035 --    87 C    1.002
   128   1 H    1.039 --    88 C    0.992
   129   1 H    1.050 --    89 C    0.989
   130   1 H    1.040 --    91 C    0.999
   131   1 H    1.031 --    92 C    1.000
   132   1 H    1.026 --    97 C    0.999
   133   1 H    1.034 --    98 C    0.998
   134   1 H    1.087 --   100 N    0.960
   135   1 H    1.053 --   103 C    0.989
   136   1 H    1.039 --   104 C    0.992
   137   1 H    1.035 --   107 C    1.002
   138   1 H    1.026 --   107 C    0.999
   139   1 H    1.056 --   107 C    1.003
   140   1 H    1.056 --   108 C    1.003
   141   1 H    1.035 --   108 C    1.002
   142   1 H    1.026 --   108 C    0.999
   143   1 H    1.039 --   109 C    0.992
   144   1 H    1.050 --   110 C    0.989
   145   1 H    1.040 --   112 C    1.000
   146   1 H    1.019 --   113 C    0.993
   147   6 C    3.803 --   148 C    2.499   149 C    1.330
   148   6 C    3.801 --   147 C    2.499    22 C    1.221   150 C    0.182
   149   6 C    3.798 --   150 C    2.496   147 C    1.330
   150   6 C    3.804 --   149 C    2.496   183 C    1.225   148 C    0.182
   151   6 C    3.798 --   152 C    2.490   153 C    1.335
   152   6 C    3.801 --   151 C    2.490   204 C    1.229   154 C    0.180
   153   6 C    3.798 --   154 C    2.490   151 C    1.335
   154   6 C    3.801 --   153 C    2.490   255 C    1.229   152 C    0.180
   155   6 C    3.798 --   156 C    2.490   157 C    1.335
   156   6 C    3.801 --   155 C    2.490   276 C    1.229   158 C    0.181
   157   6 C    3.799 --   158 C    2.490   155 C    1.335
   158   6 C    3.801 --   157 C    2.490   327 C    1.228   156 C    0.181
   159   6 C    3.799 --   160 C    2.491   161 C    1.335
   160   6 C    3.801 --   159 C    2.491   348 C    1.228   162 C    0.181
   161   6 C    3.799 --   162 C    2.491   159 C    1.335
   162   6 C    3.801 --   161 C    2.491   399 C    1.228   160 C    0.181
   163   6 C    3.799 --   164 C    2.492   165 C    1.334
   164   6 C    3.801 --   163 C    2.492   420 C    1.228   166 C    0.181
   165   6 C    3.799 --   166 C    2.492   163 C    1.334
   166   6 C    3.801 --   165 C    2.492   471 C    1.228   164 C    0.181
   167   6 C    3.799 --   168 C    2.491   169 C    1.334
   168   6 C    3.801 --   167 C    2.491   492 C    1.228   170 C    0.181
   169   6 C    3.799 --   170 C    2.491   167 C    1.334
   170   6 C    3.801 --   169 C    2.491   543 C    1.228   168 C    0.181
   171   6 C    3.799 --   172 C    2.490   173 C    1.335
   172   6 C    3.801 --   171 C    2.490   564 C    1.228   174 C    0.181
   173   6 C    3.798 --   174 C    2.490   171 C    1.335
   174   6 C    3.801 --   173 C    2.490   615 C    1.229   172 C    0.181
   175   6 C    3.798 --   176 C    2.490   177 C    1.335
   176   6 C    3.801 --   175 C    2.490   636 C    1.229   178 C    0.180
   177   6 C    3.798 --   178 C    2.490   175 C    1.335
   178   6 C    3.801 --   177 C    2.490   687 C    1.229   176 C    0.180
   179   6 C    3.798 --   180 C    2.496   181 C    1.331
   180   6 C    3.804 --   179 C    2.496   708 C    1.225   182 C    0.182
   181   6 C    3.803 --   182 C    2.498   179 C    1.331
   182   6 C    3.801 --   181 C    2.498    95 C    1.221   180 C    0.182
   183   6 C    3.829 --   223 C    1.284   184 C    1.281   150 C    1.225
   184   6 C    3.906 --   183 C    1.281   185 C    1.273   188 N    1.252
   185   6 C    3.828 --   186 C    1.576   184 C    1.273   225 H    0.999
   186   6 C    3.819 --   185 C    1.576   187 C    1.267   226 H    0.999
   187   6 C    3.886 --   189 C    1.335   186 C    1.267   188 N    1.222
   188   7 N    3.249 --   184 C    1.252   187 C    1.222   227 H    0.962
   189   6 C    3.833 --   199 C    1.369   187 C    1.335   190 C    1.058
   190   6 C    3.879 --   191 C    1.409   198 C    1.409   189 C    1.058
   191   6 C    3.865 --   192 C    1.472   190 C    1.409   228 H    0.989
   192   6 C    3.847 --   191 C    1.472   193 C    1.375   229 H    0.992
   193   6 C    3.906 --   197 C    1.375   192 C    1.375   194 N    1.141
   194   7 N    3.009 --   193 C    1.141   196 C    0.966   195 C    0.965
   195   6 C    3.908 --   231 H    1.003   230 H    1.002   232 H    0.999
                           194 N    0.965
   196   6 C    3.908 --   233 H    1.003   235 H    1.002   234 H    0.999
                           194 N    0.966
   197   6 C    3.846 --   198 C    1.472   193 C    1.375   236 H    0.992
   198   6 C    3.869 --   197 C    1.472   190 C    1.409   237 H    0.989
   199   6 C    3.923 --   189 C    1.369   202 N    1.354   200 C    1.165
   200   6 C    3.839 --   201 C    1.689   199 C    1.165   238 H    0.999
   201   6 C    3.848 --   200 C    1.689   203 C    1.170   239 H    1.000
   202   7 N    2.552 --   203 C    1.417   199 C    1.354
   203   6 C    3.944 --   202 N    1.417   204 C    1.283   201 C    1.170
   204   6 C    3.829 --   203 C    1.283   205 C    1.280   152 C    1.229
   205   6 C    3.906 --   204 C    1.280   206 C    1.274   209 N    1.252
   206   6 C    3.829 --   207 C    1.575   205 C    1.274   240 H    0.999
   207   6 C    3.818 --   206 C    1.575   208 C    1.267   241 H    0.999
   208   6 C    3.886 --   210 C    1.333   207 C    1.267   209 N    1.224
   209   7 N    3.251 --   205 C    1.252   208 C    1.224   242 H    0.962
   210   6 C    3.832 --   220 C    1.371   208 C    1.333   211 C    1.058
   211   6 C    3.879 --   212 C    1.409   219 C    1.409   210 C    1.058
   212   6 C    3.865 --   213 C    1.473   211 C    1.409   243 H    0.989
   213   6 C    3.847 --   212 C    1.473   214 C    1.375   244 H    0.992
   214   6 C    3.906 --   218 C    1.375   213 C    1.375   215 N    1.141
   215   7 N    3.009 --   214 C    1.141   216 C    0.966   217 C    0.965
   216   6 C    3.909 --   246 H    1.003   247 H    1.002   245 H    0.999
                           215 N    0.966
   217   6 C    3.908 --   250 H    1.003   249 H    1.002   248 H    0.999
                           215 N    0.965
   218   6 C    3.846 --   219 C    1.472   214 C    1.375   251 H    0.992
   219   6 C    3.869 --   218 C    1.472   211 C    1.409   252 H    0.989
   220   6 C    3.924 --   210 C    1.371   224 N    1.353   221 C    1.164
   221   6 C    3.840 --   222 C    1.690   220 C    1.164   253 H    0.999
   222   6 C    3.848 --   221 C    1.690   223 C    1.169   254 H    1.000
   223   6 C    3.945 --   224 N    1.416   183 C    1.284   222 C    1.169
   224   7 N    2.550 --   223 C    1.416   220 C    1.353
   225   1 H    1.027 --   185 C    0.999
   226   1 H    1.035 --   186 C    0.999
   227   1 H    1.084 --   188 N    0.962
   228   1 H    1.050 --   191 C    0.989
   229   1 H    1.039 --   192 C    0.992
   230   1 H    1.035 --   195 C    1.002
   231   1 H    1.056 --   195 C    1.003
   232   1 H    1.027 --   195 C    0.999
   233   1 H    1.056 --   196 C    1.003
   234   1 H    1.026 --   196 C    0.999
   235   1 H    1.036 --   196 C    1.002
   236   1 H    1.039 --   197 C    0.992
   237   1 H    1.053 --   198 C    0.989
   238   1 H    1.040 --   200 C    0.999
   239   1 H    1.031 --   201 C    1.000
   240   1 H    1.027 --   206 C    0.999
   241   1 H    1.035 --   207 C    0.999
   242   1 H    1.084 --   209 N    0.962
   243   1 H    1.050 --   212 C    0.989
   244   1 H    1.039 --   213 C    0.992
   245   1 H    1.026 --   216 C    0.999
   246   1 H    1.056 --   216 C    1.003
   247   1 H    1.036 --   216 C    1.002
   248   1 H    1.027 --   217 C    0.999
   249   1 H    1.035 --   217 C    1.002
   250   1 H    1.056 --   217 C    1.003
   251   1 H    1.039 --   218 C    0.992
   252   1 H    1.053 --   219 C    0.989
   253   1 H    1.040 --   221 C    0.999
   254   1 H    1.031 --   222 C    1.000
   255   6 C    3.829 --   295 C    1.283   256 C    1.280   154 C    1.229
   256   6 C    3.906 --   255 C    1.280   257 C    1.273   260 N    1.252
   257   6 C    3.829 --   258 C    1.575   256 C    1.273   297 H    0.999
   258   6 C    3.818 --   257 C    1.575   259 C    1.267   298 H    0.999
   259   6 C    3.886 --   261 C    1.334   258 C    1.267   260 N    1.223
   260   7 N    3.250 --   256 C    1.252   259 C    1.223   299 H    0.962
   261   6 C    3.832 --   271 C    1.370   259 C    1.334   262 C    1.058
   262   6 C    3.879 --   263 C    1.409   270 C    1.409   261 C    1.058
   263   6 C    3.865 --   264 C    1.473   262 C    1.409   300 H    0.989
   264   6 C    3.847 --   263 C    1.473   265 C    1.375   301 H    0.992
   265   6 C    3.906 --   269 C    1.375   264 C    1.375   266 N    1.141
   266   7 N    3.009 --   265 C    1.141   268 C    0.966   267 C    0.965
   267   6 C    3.908 --   303 H    1.003   302 H    1.002   304 H    0.999
                           266 N    0.965
   268   6 C    3.909 --   305 H    1.003   307 H    1.002   306 H    0.999
                           266 N    0.966
   269   6 C    3.846 --   270 C    1.472   265 C    1.375   308 H    0.992
   270   6 C    3.869 --   269 C    1.472   262 C    1.409   309 H    0.989
   271   6 C    3.923 --   261 C    1.370   274 N    1.353   272 C    1.165
   272   6 C    3.839 --   273 C    1.689   271 C    1.165   310 H    0.999
   273   6 C    3.848 --   272 C    1.689   275 C    1.169   311 H    1.000
   274   7 N    2.551 --   275 C    1.417   271 C    1.353
   275   6 C    3.945 --   274 N    1.417   276 C    1.283   273 C    1.169
   276   6 C    3.829 --   275 C    1.283   277 C    1.280   156 C    1.229
   277   6 C    3.906 --   276 C    1.280   278 C    1.273   281 N    1.252
   278   6 C    3.829 --   279 C    1.575   277 C    1.273   312 H    0.999
   279   6 C    3.818 --   278 C    1.575   280 C    1.267   313 H    0.999
   280   6 C    3.886 --   282 C    1.334   279 C    1.267   281 N    1.223
   281   7 N    3.250 --   277 C    1.252   280 C    1.223   314 H    0.962
   282   6 C    3.832 --   292 C    1.370   280 C    1.334   283 C    1.058
   283   6 C    3.879 --   284 C    1.409   291 C    1.409   282 C    1.058
   284   6 C    3.865 --   285 C    1.473   283 C    1.409   315 H    0.989
   285   6 C    3.847 --   284 C    1.473   286 C    1.375   316 H    0.992
   286   6 C    3.906 --   290 C    1.376   285 C    1.375   287 N    1.141
   287   7 N    3.009 --   286 C    1.141   288 C    0.966   289 C    0.965
   288   6 C    3.909 --   318 H    1.003   319 H    1.002   317 H    0.999
                           287 N    0.966
   289   6 C    3.908 --   322 H    1.003   321 H    1.002   320 H    0.999
                           287 N    0.965
   290   6 C    3.846 --   291 C    1.472   286 C    1.376   323 H    0.992
   291   6 C    3.869 --   290 C    1.472   283 C    1.409   324 H    0.989
   292   6 C    3.923 --   282 C    1.370   296 N    1.353   293 C    1.165
   293   6 C    3.839 --   294 C    1.689   292 C    1.165   325 H    0.999
   294   6 C    3.848 --   293 C    1.689   295 C    1.169   326 H    1.000
   295   6 C    3.944 --   296 N    1.417   255 C    1.283   294 C    1.169
   296   7 N    2.551 --   295 C    1.417   292 C    1.353
   297   1 H    1.027 --   257 C    0.999
   298   1 H    1.035 --   258 C    0.999
   299   1 H    1.084 --   260 N    0.962
   300   1 H    1.050 --   263 C    0.989
   301   1 H    1.039 --   264 C    0.992
   302   1 H    1.035 --   267 C    1.002
   303   1 H    1.056 --   267 C    1.003
   304   1 H    1.027 --   267 C    0.999
   305   1 H    1.056 --   268 C    1.003
   306   1 H    1.026 --   268 C    0.999
   307   1 H    1.036 --   268 C    1.002
   308   1 H    1.039 --   269 C    0.992
   309   1 H    1.053 --   270 C    0.989
   310   1 H    1.040 --   272 C    0.999
   311   1 H    1.031 --   273 C    1.000
   312   1 H    1.027 --   278 C    0.999
   313   1 H    1.035 --   279 C    0.999
   314   1 H    1.084 --   281 N    0.962
   315   1 H    1.050 --   284 C    0.989
   316   1 H    1.039 --   285 C    0.992
   317   1 H    1.026 --   288 C    0.999
   318   1 H    1.056 --   288 C    1.003
   319   1 H    1.036 --   288 C    1.002
   320   1 H    1.027 --   289 C    0.999
   321   1 H    1.035 --   289 C    1.002
   322   1 H    1.056 --   289 C    1.003
   323   1 H    1.039 --   290 C    0.992
   324   1 H    1.053 --   291 C    0.989
   325   1 H    1.040 --   293 C    0.999
   326   1 H    1.031 --   294 C    1.000
   327   6 C    3.831 --   367 C    1.283   328 C    1.280   158 C    1.228
   328   6 C    3.906 --   327 C    1.280   329 C    1.273   332 N    1.252
   329   6 C    3.829 --   330 C    1.575   328 C    1.273   369 H    0.999
   330   6 C    3.818 --   329 C    1.575   331 C    1.267   370 H    0.999
   331   6 C    3.887 --   333 C    1.334   330 C    1.267   332 N    1.223
   332   7 N    3.251 --   328 C    1.252   331 C    1.223   371 H    0.962
   333   6 C    3.832 --   343 C    1.370   331 C    1.334   334 C    1.058
   334   6 C    3.878 --   335 C    1.409   342 C    1.409   333 C    1.058
   335   6 C    3.865 --   336 C    1.473   334 C    1.409   372 H    0.989
   336   6 C    3.847 --   335 C    1.473   337 C    1.375   373 H    0.992
   337   6 C    3.906 --   341 C    1.375   336 C    1.375   338 N    1.141
   338   7 N    3.009 --   337 C    1.141   340 C    0.966   339 C    0.965
   339   6 C    3.908 --   375 H    1.003   374 H    1.002   376 H    0.999
                           338 N    0.965
   340   6 C    3.908 --   377 H    1.003   379 H    1.002   378 H    0.999
                           338 N    0.966
   341   6 C    3.846 --   342 C    1.472   337 C    1.375   380 H    0.992
   342   6 C    3.869 --   341 C    1.472   334 C    1.409   381 H    0.989
   343   6 C    3.924 --   333 C    1.370   346 N    1.353   344 C    1.164
   344   6 C    3.839 --   345 C    1.689   343 C    1.164   382 H    0.999
   345   6 C    3.849 --   344 C    1.689   347 C    1.169   383 H    1.000
   346   7 N    2.552 --   347 C    1.416   343 C    1.353
   347   6 C    3.945 --   346 N    1.416   348 C    1.284   345 C    1.169
   348   6 C    3.831 --   347 C    1.284   349 C    1.280   160 C    1.228
   349   6 C    3.906 --   348 C    1.280   350 C    1.273   353 N    1.252
   350   6 C    3.829 --   351 C    1.576   349 C    1.273   384 H    0.999
   351   6 C    3.819 --   350 C    1.576   352 C    1.267   385 H    0.999
   352   6 C    3.887 --   354 C    1.334   351 C    1.267   353 N    1.223
   353   7 N    3.250 --   349 C    1.252   352 C    1.223   386 H    0.962
   354   6 C    3.832 --   364 C    1.370   352 C    1.334   355 C    1.058
   355   6 C    3.878 --   356 C    1.409   363 C    1.409   354 C    1.058
   356   6 C    3.865 --   357 C    1.473   355 C    1.409   387 H    0.989
   357   6 C    3.847 --   356 C    1.473   358 C    1.375   388 H    0.992
   358   6 C    3.906 --   362 C    1.375   357 C    1.375   359 N    1.141
   359   7 N    3.009 --   358 C    1.141   360 C    0.966   361 C    0.965
   360   6 C    3.909 --   390 H    1.003   391 H    1.002   389 H    0.999
                           359 N    0.966
   361   6 C    3.908 --   394 H    1.003   393 H    1.002   392 H    0.999
                           359 N    0.965
   362   6 C    3.846 --   363 C    1.472   358 C    1.375   395 H    0.992
   363   6 C    3.869 --   362 C    1.472   355 C    1.409   396 H    0.989
   364   6 C    3.923 --   354 C    1.370   368 N    1.354   365 C    1.165
   365   6 C    3.839 --   366 C    1.689   364 C    1.165   397 H    0.999
   366   6 C    3.849 --   365 C    1.689   367 C    1.169   398 H    1.000
[...]
   463   1 H    1.036 --   432 C    1.002
   464   1 H    1.027 --   433 C    0.999
   465   1 H    1.035 --   433 C    1.002
   466   1 H    1.056 --   433 C    1.003
   467   1 H    1.039 --   434 C    0.992
   468   1 H    1.053 --   435 C    0.989
   469   1 H    1.040 --   437 C    0.999
   470   1 H    1.031 --   438 C    1.000
   471   6 C    3.832 --   511 C    1.284   472 C    1.281   166 C    1.228
   472   6 C    3.906 --   471 C    1.281   473 C    1.273   476 N    1.252
   473   6 C    3.830 --   474 C    1.576   472 C    1.273   513 H    0.999
   474   6 C    3.819 --   473 C    1.576   475 C    1.267   514 H    0.999
   475   6 C    3.887 --   477 C    1.334   474 C    1.267   476 N    1.223
   476   7 N    3.251 --   472 C    1.252   475 C    1.223   515 H    0.962
   477   6 C    3.832 --   487 C    1.370   475 C    1.334   478 C    1.058
   478   6 C    3.878 --   479 C    1.409   486 C    1.409   477 C    1.058
   479   6 C    3.865 --   480 C    1.473   478 C    1.409   516 H    0.989
   480   6 C    3.847 --   479 C    1.473   481 C    1.375   517 H    0.992
   481   6 C    3.906 --   485 C    1.375   480 C    1.375   482 N    1.141
   482   7 N    3.009 --   481 C    1.141   484 C    0.966   483 C    0.965
   483   6 C    3.908 --   519 H    1.003   518 H    1.002   520 H    0.999
                           482 N    0.965
   484   6 C    3.909 --   521 H    1.003   523 H    1.002   522 H    0.999
                           482 N    0.966
   485   6 C    3.846 --   486 C    1.472   481 C    1.375   524 H    0.992
   486   6 C    3.869 --   485 C    1.472   478 C    1.409   525 H    0.989
   487   6 C    3.924 --   477 C    1.370   490 N    1.354   488 C    1.165
   488   6 C    3.839 --   489 C    1.689   487 C    1.165   526 H    0.999
   489   6 C    3.849 --   488 C    1.689   491 C    1.169   527 H    1.000
   490   7 N    2.552 --   491 C    1.416   487 C    1.354
   491   6 C    3.945 --   490 N    1.416   492 C    1.284   489 C    1.169
   492   6 C    3.832 --   491 C    1.284   493 C    1.281   168 C    1.228
   493   6 C    3.906 --   492 C    1.281   494 C    1.273   497 N    1.252
   494   6 C    3.828 --   495 C    1.576   493 C    1.273   528 H    0.999
   495   6 C    3.819 --   494 C    1.576   496 C    1.267   529 H    0.999
   496   6 C    3.887 --   498 C    1.334   495 C    1.267   497 N    1.223
   497   7 N    3.251 --   493 C    1.252   496 C    1.223   530 H    0.962
   498   6 C    3.832 --   508 C    1.370   496 C    1.334   499 C    1.058
   499   6 C    3.878 --   507 C    1.409   500 C    1.409   498 C    1.058
   500   6 C    3.865 --   501 C    1.473   499 C    1.409   531 H    0.989
   501   6 C    3.847 --   500 C    1.473   502 C    1.374   532 H    0.992
   502   6 C    3.906 --   506 C    1.375   501 C    1.374   503 N    1.141
   503   7 N    3.009 --   502 C    1.141   504 C    0.966   505 C    0.965
   504   6 C    3.908 --   534 H    1.003   535 H    1.002   533 H    0.999
                           503 N    0.966
   505   6 C    3.908 --   538 H    1.003   537 H    1.002   536 H    0.999
                           503 N    0.965
   506   6 C    3.846 --   507 C    1.472   502 C    1.375   539 H    0.992
   507   6 C    3.868 --   506 C    1.472   499 C    1.409   540 H    0.989
   508   6 C    3.924 --   498 C    1.370   512 N    1.354   509 C    1.164
   509   6 C    3.839 --   510 C    1.689   508 C    1.164   541 H    0.999
   510   6 C    3.849 --   509 C    1.689   511 C    1.169   542 H    1.000
   511   6 C    3.945 --   512 N    1.416   471 C    1.284   510 C    1.169
   512   7 N    2.552 --   511 C    1.416   508 C    1.354
   513   1 H    1.026 --   473 C    0.999
   514   1 H    1.035 --   474 C    0.999
   515   1 H    1.084 --   476 N    0.962
   516   1 H    1.050 --   479 C    0.989
   517   1 H    1.039 --   480 C    0.992
   518   1 H    1.035 --   483 C    1.002
   519   1 H    1.056 --   483 C    1.003
   520   1 H    1.027 --   483 C    0.999
   521   1 H    1.056 --   484 C    1.003
   522   1 H    1.026 --   484 C    0.999
   523   1 H    1.036 --   484 C    1.002
   524   1 H    1.039 --   485 C    0.992
   525   1 H    1.053 --   486 C    0.989
   526   1 H    1.040 --   488 C    0.999
   527   1 H    1.031 --   489 C    1.000
   528   1 H    1.026 --   494 C    0.999
   529   1 H    1.035 --   495 C    0.999
   530   1 H    1.084 --   497 N    0.962
   531   1 H    1.050 --   500 C    0.989
   532   1 H    1.039 --   501 C    0.992
   533   1 H    1.026 --   504 C    0.999
   534   1 H    1.056 --   504 C    1.003
   535   1 H    1.036 --   504 C    1.002
   536   1 H    1.027 --   505 C    0.999
   537   1 H    1.035 --   505 C    1.002
   538   1 H    1.056 --   505 C    1.003
   539   1 H    1.039 --   506 C    0.992
   540   1 H    1.053 --   507 C    0.989
   541   1 H    1.040 --   509 C    0.999
   542   1 H    1.031 --   510 C    1.000
   543   6 C    3.831 --   583 C    1.284   544 C    1.281   170 C    1.228
   544   6 C    3.906 --   543 C    1.281   545 C    1.273   548 N    1.252
   545   6 C    3.829 --   546 C    1.576   544 C    1.273   585 H    0.999
   546   6 C    3.819 --   545 C    1.576   547 C    1.267   586 H    0.999
   547   6 C    3.887 --   549 C    1.334   546 C    1.267   548 N    1.223
   548   7 N    3.250 --   544 C    1.252   547 C    1.223   587 H    0.962
   549   6 C    3.832 --   559 C    1.370   547 C    1.334   550 C    1.058
   550   6 C    3.878 --   551 C    1.409   558 C    1.409   549 C    1.058
   551   6 C    3.865 --   552 C    1.473   550 C    1.409   588 H    0.989
   552   6 C    3.847 --   551 C    1.473   553 C    1.375   589 H    0.992
   553   6 C    3.906 --   557 C    1.375   552 C    1.375   554 N    1.141
   554   7 N    3.009 --   553 C    1.141   556 C    0.966   555 C    0.965
   555   6 C    3.908 --   591 H    1.003   590 H    1.002   592 H    0.999
                           554 N    0.965
   556   6 C    3.909 --   593 H    1.003   595 H    1.002   594 H    0.999
                           554 N    0.966
   557   6 C    3.846 --   558 C    1.472   553 C    1.375   596 H    0.992
   558   6 C    3.869 --   557 C    1.472   550 C    1.409   597 H    0.989
   559   6 C    3.924 --   549 C    1.370   562 N    1.354   560 C    1.165
   560   6 C    3.839 --   561 C    1.689   559 C    1.165   598 H    0.999
   561   6 C    3.849 --   560 C    1.689   563 C    1.169   599 H    1.000
   562   7 N    2.552 --   563 C    1.416   559 C    1.354
   563   6 C    3.945 --   562 N    1.416   564 C    1.284   561 C    1.169
   564   6 C    3.831 --   563 C    1.284   565 C    1.280   172 C    1.228
   565   6 C    3.906 --   564 C    1.280   566 C    1.273   569 N    1.252
   566   6 C    3.829 --   567 C    1.575   565 C    1.273   600 H    0.999
   567   6 C    3.818 --   566 C    1.575   568 C    1.267   601 H    0.999
   568   6 C    3.887 --   570 C    1.334   567 C    1.267   569 N    1.223
   569   7 N    3.251 --   565 C    1.252   568 C    1.223   602 H    0.962
   570   6 C    3.832 --   580 C    1.370   568 C    1.334   571 C    1.058
   571   6 C    3.878 --   579 C    1.409   572 C    1.409   570 C    1.058
   572   6 C    3.865 --   573 C    1.473   571 C    1.409   603 H    0.989
   573   6 C    3.847 --   572 C    1.473   574 C    1.374   604 H    0.992
   574   6 C    3.906 --   578 C    1.375   573 C    1.374   575 N    1.141
   575   7 N    3.009 --   574 C    1.141   576 C    0.966   577 C    0.965
   576   6 C    3.908 --   606 H    1.003   607 H    1.002   605 H    0.999
                           575 N    0.966
   577   6 C    3.908 --   610 H    1.003   609 H    1.002   608 H    0.999
                           575 N    0.965
   578   6 C    3.846 --   579 C    1.472   574 C    1.375   611 H    0.992
   579   6 C    3.869 --   578 C    1.472   571 C    1.409   612 H    0.989
   580   6 C    3.924 --   570 C    1.370   584 N    1.353   581 C    1.164
   581   6 C    3.839 --   582 C    1.689   580 C    1.164   613 H    0.999
   582   6 C    3.849 --   581 C    1.689   583 C    1.169   614 H    1.000
   583   6 C    3.945 --   584 N    1.416   543 C    1.284   582 C    1.169
   584   7 N    2.552 --   583 C    1.416   580 C    1.353
   585   1 H    1.027 --   545 C    0.999
   586   1 H    1.035 --   546 C    0.999
   587   1 H    1.084 --   548 N    0.962
   588   1 H    1.050 --   551 C    0.989
   589   1 H    1.039 --   552 C    0.992
   590   1 H    1.035 --   555 C    1.002
   591   1 H    1.056 --   555 C    1.003
   592   1 H    1.027 --   555 C    0.999
   593   1 H    1.056 --   556 C    1.003
   594   1 H    1.026 --   556 C    0.999
   595   1 H    1.036 --   556 C    1.002
   596   1 H    1.039 --   557 C    0.992
   597   1 H    1.053 --   558 C    0.989
   598   1 H    1.040 --   560 C    0.999
   599   1 H    1.031 --   561 C    1.000
   600   1 H    1.027 --   566 C    0.999
   601   1 H    1.035 --   567 C    0.999
   602   1 H    1.084 --   569 N    0.962
   603   1 H    1.050 --   572 C    0.989
   604   1 H    1.039 --   573 C    0.992
   605   1 H    1.026 --   576 C    0.999
   606   1 H    1.056 --   576 C    1.003
   607   1 H    1.036 --   576 C    1.002
   608   1 H    1.027 --   577 C    0.999
   609   1 H    1.035 --   577 C    1.002
   610   1 H    1.056 --   577 C    1.003
   611   1 H    1.039 --   578 C    0.992
   612   1 H    1.053 --   579 C    0.989
   613   1 H    1.040 --   581 C    0.999
   614   1 H    1.031 --   582 C    1.000
   615   6 C    3.829 --   655 C    1.283   616 C    1.280   174 C    1.229
   616   6 C    3.906 --   615 C    1.280   617 C    1.273   620 N    1.252
   617   6 C    3.829 --   618 C    1.575   616 C    1.273   657 H    0.999
   618   6 C    3.818 --   617 C    1.575   619 C    1.267   658 H    0.999
   619   6 C    3.886 --   621 C    1.334   618 C    1.267   620 N    1.223
   620   7 N    3.250 --   616 C    1.252   619 C    1.223   659 H    0.962
   621   6 C    3.832 --   631 C    1.370   619 C    1.334   622 C    1.058
   622   6 C    3.879 --   623 C    1.409   630 C    1.409   621 C    1.058
   623   6 C    3.865 --   624 C    1.472   622 C    1.409   660 H    0.989
   624   6 C    3.847 --   623 C    1.472   625 C    1.375   661 H    0.992
   625   6 C    3.906 --   629 C    1.375   624 C    1.375   626 N    1.141
   626   7 N    3.009 --   625 C    1.141   628 C    0.966   627 C    0.965
   627   6 C    3.908 --   663 H    1.003   662 H    1.002   664 H    0.999
                           626 N    0.965
   628   6 C    3.909 --   665 H    1.003   667 H    1.002   666 H    0.999
                           626 N    0.966
   629   6 C    3.846 --   630 C    1.472   625 C    1.375   668 H    0.992
   630   6 C    3.869 --   629 C    1.472   622 C    1.409   669 H    0.989
   631   6 C    3.923 --   621 C    1.370   634 N    1.353   632 C    1.165
   632   6 C    3.839 --   633 C    1.689   631 C    1.165   670 H    0.999
   633   6 C    3.848 --   632 C    1.689   635 C    1.169   671 H    1.000
   634   7 N    2.551 --   635 C    1.417   631 C    1.353
   635   6 C    3.944 --   634 N    1.417   636 C    1.283   633 C    1.169
   636   6 C    3.829 --   635 C    1.283   637 C    1.280   176 C    1.229
   637   6 C    3.906 --   636 C    1.280   638 C    1.274   641 N    1.252
   638   6 C    3.829 --   639 C    1.575   637 C    1.274   672 H    0.999
   639   6 C    3.818 --   638 C    1.575   640 C    1.267   673 H    0.999
   640   6 C    3.886 --   642 C    1.334   639 C    1.267   641 N    1.223
   641   7 N    3.250 --   637 C    1.252   640 C    1.223   674 H    0.962
   642   6 C    3.832 --   652 C    1.370   640 C    1.334   643 C    1.058
   643   6 C    3.879 --   644 C    1.409   651 C    1.409   642 C    1.058
   644   6 C    3.865 --   645 C    1.473   643 C    1.409   675 H    0.989
   645   6 C    3.847 --   644 C    1.473   646 C    1.375   676 H    0.992
   646   6 C    3.906 --   650 C    1.375   645 C    1.375   647 N    1.141
   647   7 N    3.009 --   646 C    1.141   648 C    0.966   649 C    0.965
   648   6 C    3.909 --   678 H    1.003   679 H    1.002   677 H    0.999
                           647 N    0.966
   649   6 C    3.908 --   682 H    1.003   681 H    1.002   680 H    0.999
                           647 N    0.965
   650   6 C    3.846 --   651 C    1.472   646 C    1.375   683 H    0.992
   651   6 C    3.869 --   650 C    1.472   643 C    1.409   684 H    0.989
   652   6 C    3.923 --   642 C    1.370   656 N    1.353   653 C    1.165
   653   6 C    3.839 --   654 C    1.689   652 C    1.165   685 H    0.999
   654   6 C    3.848 --   653 C    1.689   655 C    1.169   686 H    1.000
   655   6 C    3.945 --   656 N    1.417   615 C    1.283   654 C    1.169
   656   7 N    2.552 --   655 C    1.417   652 C    1.353
   657   1 H    1.027 --   617 C    0.999
   658   1 H    1.035 --   618 C    0.999
   659   1 H    1.084 --   620 N    0.962
   660   1 H    1.050 --   623 C    0.989
   661   1 H    1.039 --   624 C    0.992
   662   1 H    1.035 --   627 C    1.002
   663   1 H    1.056 --   627 C    1.003
   664   1 H    1.027 --   627 C    0.999
   665   1 H    1.056 --   628 C    1.003
   666   1 H    1.026 --   628 C    0.999
   667   1 H    1.036 --   628 C    1.002
   668   1 H    1.039 --   629 C    0.992
   669   1 H    1.053 --   630 C    0.989
   670   1 H    1.040 --   632 C    0.999
   671   1 H    1.031 --   633 C    1.000
   672   1 H    1.027 --   638 C    0.999
   673   1 H    1.035 --   639 C    0.999
   674   1 H    1.084 --   641 N    0.962
   675   1 H    1.050 --   644 C    0.989
   676   1 H    1.039 --   645 C    0.992
   677   1 H    1.026 --   648 C    0.999
   678   1 H    1.056 --   648 C    1.003
   679   1 H    1.036 --   648 C    1.002
   680   1 H    1.027 --   649 C    0.999
   681   1 H    1.035 --   649 C    1.002
   682   1 H    1.056 --   649 C    1.003
   683   1 H    1.039 --   650 C    0.992
   684   1 H    1.053 --   651 C    0.989
   685   1 H    1.040 --   653 C    0.999
   686   1 H    1.031 --   654 C    1.000
   687   6 C    3.829 --   727 C    1.283   688 C    1.280   178 C    1.229
   688   6 C    3.906 --   687 C    1.280   689 C    1.274   692 N    1.252
   689   6 C    3.829 --   690 C    1.575   688 C    1.274   729 H    0.999
   690   6 C    3.818 --   689 C    1.575   691 C    1.267   730 H    0.999
   691   6 C    3.886 --   693 C    1.333   690 C    1.267   692 N    1.224
   692   7 N    3.251 --   688 C    1.252   691 C    1.224   731 H    0.962
   693   6 C    3.832 --   703 C    1.371   691 C    1.333   694 C    1.058
   694   6 C    3.879 --   695 C    1.409   702 C    1.409   693 C    1.058
   695   6 C    3.865 --   696 C    1.473   694 C    1.409   732 H    0.989
   696   6 C    3.847 --   695 C    1.473   697 C    1.375   733 H    0.992
   697   6 C    3.906 --   701 C    1.376   696 C    1.375   698 N    1.141
   698   7 N    3.009 --   697 C    1.141   700 C    0.966   699 C    0.965
   699   6 C    3.908 --   735 H    1.003   734 H    1.002   736 H    0.999
                           698 N    0.965
   700   6 C    3.909 --   737 H    1.003   739 H    1.002   738 H    0.999
                           698 N    0.966
   701   6 C    3.846 --   702 C    1.472   697 C    1.376   740 H    0.992
   702   6 C    3.869 --   701 C    1.472   694 C    1.409   741 H    0.989
   703   6 C    3.924 --   693 C    1.371   706 N    1.353   704 C    1.164
   704   6 C    3.840 --   705 C    1.690   703 C    1.164   742 H    0.999
   705   6 C    3.848 --   704 C    1.690   707 C    1.169   743 H    1.000
   706   7 N    2.550 --   707 C    1.416   703 C    1.353
   707   6 C    3.945 --   706 N    1.416   708 C    1.284   705 C    1.169
   708   6 C    3.829 --   707 C    1.284   709 C    1.281   180 C    1.225
   709   6 C    3.906 --   708 C    1.281   710 C    1.272   713 N    1.252
   710   6 C    3.828 --   711 C    1.576   709 C    1.272   744 H    0.999
   711   6 C    3.819 --   710 C    1.576   712 C    1.267   745 H    0.999
   712   6 C    3.886 --   714 C    1.335   711 C    1.267   713 N    1.222
   713   7 N    3.250 --   709 C    1.252   712 C    1.222   746 H    0.962
   714   6 C    3.833 --   724 C    1.369   712 C    1.335   715 C    1.058
   715   6 C    3.879 --   716 C    1.409   723 C    1.409   714 C    1.058
   716   6 C    3.865 --   717 C    1.472   715 C    1.409   747 H    0.989
   717   6 C    3.847 --   716 C    1.472   718 C    1.375   748 H    0.992
   718   6 C    3.906 --   722 C    1.375   717 C    1.375   719 N    1.141
   719   7 N    3.009 --   718 C    1.141   720 C    0.966   721 C    0.965
   720   6 C    3.908 --   750 H    1.003   751 H    1.002   749 H    0.999
                           719 N    0.966
   721   6 C    3.908 --   754 H    1.003   753 H    1.002   752 H    0.999
                           719 N    0.965
   722   6 C    3.846 --   723 C    1.472   718 C    1.375   755 H    0.992
   723   6 C    3.869 --   722 C    1.472   715 C    1.409   756 H    0.989
   724   6 C    3.923 --   714 C    1.369   728 N    1.354   725 C    1.165
   725   6 C    3.839 --   726 C    1.689   724 C    1.165   757 H    0.999
   726   6 C    3.848 --   725 C    1.689   727 C    1.170   758 H    1.000
   727   6 C    3.944 --   728 N    1.416   687 C    1.283   726 C    1.170
   728   7 N    2.552 --   727 C    1.416   724 C    1.354
   729   1 H    1.027 --   689 C    0.999
   730   1 H    1.035 --   690 C    0.999
   731   1 H    1.084 --   692 N    0.962
   732   1 H    1.050 --   695 C    0.989
   733   1 H    1.039 --   696 C    0.992
   734   1 H    1.035 --   699 C    1.002
   735   1 H    1.056 --   699 C    1.003
   736   1 H    1.027 --   699 C    0.999
   737   1 H    1.056 --   700 C    1.003
   738   1 H    1.026 --   700 C    0.999
   739   1 H    1.036 --   700 C    1.002
   740   1 H    1.039 --   701 C    0.992
   741   1 H    1.053 --   702 C    0.989
   742   1 H    1.040 --   704 C    0.999
   743   1 H    1.031 --   705 C    1.000
   744   1 H    1.027 --   710 C    0.999
   745   1 H    1.035 --   711 C    0.999
   746   1 H    1.084 --   713 N    0.962
   747   1 H    1.050 --   716 C    0.989
   748   1 H    1.039 --   717 C    0.992
   749   1 H    1.026 --   720 C    0.999
   750   1 H    1.056 --   720 C    1.003
   751   1 H    1.036 --   720 C    1.002
   752   1 H    1.027 --   721 C    0.999
   753   1 H    1.035 --   721 C    1.002
   754   1 H    1.056 --   721 C    1.003
   755   1 H    1.039 --   722 C    0.992
   756   1 H    1.053 --   723 C    0.989
   757   1 H    1.040 --   725 C    0.999
   758   1 H    1.031 --   726 C    1.000
 ---------------------------------------------------------------------------

Topologies differ in total number of bonds
Writing topology from bond orders to xtbtopo.mol

 dipole moment from electron density (au)
     X       Y       Z   
-427.4806  -2.5894   0.0276  total (Debye): 1086.567


           -------------------------------------------------
          | TOTAL ENERGY            -1354.213073641343 Eh   |
          | GRADIENT NORM               0.136948235606 Eh/α |
          | HOMO-LUMO GAP               0.039107713752 eV   |
           -------------------------------------------------
########################################################################
[WARNING] Runtime exception occurred
-1- restart_readRestart: Dimension missmatch in restart file.
########################################################################

------------------------------------------------------------------------
 * finished run on 2022/07/28 at 18:57:50.134     
------------------------------------------------------------------------
 total:
 * wall-time:     0 d,  0 h,  7 min, 39.024 sec
 *  cpu-time:     0 d,  0 h,  7 min, 35.444 sec
 * ratio c/w:     0.992 speedup
 SCF:
 * wall-time:     0 d,  0 h,  7 min, 35.984 sec
 *  cpu-time:     0 d,  0 h,  7 min, 32.531 sec
 * ratio c/w:     0.992 speedup

