82
 energy: -140.383988948101 gnorm: 0.935319950321 xtb: 6.5.1 (b24c23e)
C            1.38119800000000       -0.00242800000000       -0.00083800000000
C            2.11563100000000       -1.37958600000000       -0.07272400000000
C            1.52848600000000       -2.62325000000000       -0.13764000000000
C            2.58040400000000       -3.57914800000000       -0.18754200000000
C            3.76885600000000       -2.88196300000000       -0.15115300000000
N            3.47716300000000       -1.54628400000000       -0.08142600000000
C            5.20021200000000       -3.50028500000000       -0.18343900000000
C            6.32277300000000       -2.75547800000000       -0.14455600000000
C            7.60775900000000       -3.40794400000000       -0.17862500000000
C            8.54504300000000       -2.46671600000000       -0.12948800000000
N            6.54460400000000       -1.41326100000000       -0.07447900000000
C            7.89398200000000       -1.16884800000000       -0.06172700000000
C            8.59074400000000       -0.00109600000000       -0.00076700000000
C            7.81607900000000        1.39119200000000        0.07192100000000
C            8.37965700000000        2.65173100000000        0.13773400000000
C            7.32163300000000        3.59588800000000        0.18702300000000
C            6.14372200000000        2.88595900000000        0.14995100000000
N            6.44907000000000        1.54882300000000        0.08014200000000
C            4.71092500000000        3.51052100000000        0.18254800000000
C            3.59340400000000        2.76091300000000        0.14341400000000
C            2.28963500000000        3.38563400000000        0.17601900000000
C            1.37315200000000        2.42158100000000        0.12569400000000
C            2.06720700000000        1.15594400000000        0.05963100000000
N            3.40328900000000        1.41717100000000        0.07327000000000
H            0.29848100000000        0.00578900000000       -0.00041200000000
H            0.46780900000000       -2.82091700000000       -0.14795700000000
H            2.48113900000000       -4.65221100000000       -0.24355800000000
H            4.15718900000000       -0.79024500000000       -0.04196300000000
H            5.27825400000000       -4.57971800000000       -0.23979700000000
H            7.77272000000000       -4.46885900000000       -0.23401600000000
H            9.60308200000000       -2.65411400000000       -0.13927500000000
H            9.43503100000000        2.87650600000000        0.14947400000000
H            7.41006000000000        4.66998500000000        0.24310000000000
H            5.77036800000000        0.79098100000000        0.04057600000000
H            4.62969300000000        4.58940100000000        0.23886600000000
H            2.10366100000000        4.44279000000000        0.23120100000000
H            0.30627100000000        2.55098100000000        0.13244500000000
C           27.76145700000000        0.00021500000000       -0.00100800000000
C           27.02702300000000        1.35675200000000       -0.24908300000000
C           27.61416900000000        2.58179300000000       -0.47311000000000
C           26.56225100000000        3.52337700000000       -0.64530600000000
C           25.37379900000000        2.83663100000000       -0.51972100000000
N           25.66549100000000        1.52095300000000       -0.27911200000000
C           23.94244300000000        3.44569300000000       -0.63111300000000
C           22.81988200000000        2.71203900000000       -0.49694200000000
C           21.53489600000000        3.35473400000000       -0.61448600000000
C           20.59761200000000        2.42760000000000       -0.44493100000000
N           22.59805100000000        1.38992300000000       -0.25514700000000
C           21.24867300000000        1.14916900000000       -0.21112500000000
C           20.55191100000000       -0.00109600000000       -0.00076700000000
C           21.32657600000000       -1.37253400000000        0.25004500000000
C           20.76299700000000       -2.61419600000000        0.47712800000000
C           21.82102100000000       -3.54421500000000        0.64720800000000
C           22.99893300000000       -2.84491800000000        0.51931100000000
N           22.69358400000000       -1.52780600000000        0.27843300000000
C           24.43173000000000       -3.46012800000000        0.63181200000000
C           25.54925100000000       -2.72174600000000        0.49677600000000
C           26.85302000000000       -3.33711300000000        0.60930600000000
C           27.76950300000000       -2.38749600000000        0.43564300000000
C           27.07544800000000       -1.14081100000000        0.20765900000000
N           25.73936600000000       -1.39812500000000        0.25471800000000
H           28.84417300000000       -0.00787900000000        0.00046900000000
H           28.67484500000000        2.77650000000000       -0.50871600000000
H           26.66151600000000        4.58037100000000       -0.83860500000000
H           24.98546600000000        0.77623500000000       -0.14292400000000
H           23.86440000000000        4.50896000000000       -0.82557000000000
H           21.36993500000000        4.39976000000000       -0.80560600000000
H           19.53957300000000        2.61219200000000       -0.47869300000000
H           19.70762300000000       -2.83560500000000        0.51762500000000
H           21.73259500000000       -4.60222600000000        0.84070200000000
H           23.37228700000000       -0.78131300000000        0.14191200000000
H           24.51296200000000       -4.52285200000000        0.82615800000000
H           27.03899400000000       -4.37843900000000        0.79973700000000
H           28.83638400000000       -2.51495900000000        0.45894900000000
C           10.08946700000000        0.01014000000000        0.00709300000000
C           11.54769300000000       -0.01169600000000       -0.01078000000000
C           12.68162100000000       -0.03245000000000       -0.01227100000000
C           14.04300300000000       -0.04504000000000       -0.01446200000000
C           15.31722200000000       -0.03473300000000       -0.01922700000000
C           16.50568400000000       -0.01593500000000       -0.02538300000000
C           17.85804500000000        0.00884900000000       -0.00951500000000
C           18.95831300000000        0.01014000000000        0.00709300000000
82
 energy: -140.603543528435 gnorm: 0.348701902605 xtb: 6.5.1 (b24c23e)
C            1.40672435651922       -0.03556242179695       -0.00256729606627
C            2.11190688118606       -1.36194905105017       -0.07180354594264
C            1.53323050092566       -2.62734130318184       -0.13785452113690
C            2.57606651196544       -3.57520667114655       -0.18733631110638
C            3.78580544298700       -2.88377164312961       -0.15124454621662
N            3.47788918648717       -1.54430855957592       -0.08132279102338
C            5.16736951934089       -3.47493579657751       -0.18212482614547
C            6.32422607372252       -2.74609431076018       -0.14411185190003
C            7.61120607811994       -3.41416797878785       -0.17895512473299
C            8.55451311278293       -2.46826349323360       -0.12953095310813
N            6.54648387197574       -1.39664802768221       -0.07363394477917
C            7.89479403902794       -1.17186198172960       -0.06168320703388
C            8.61201739830761        0.03182301747705        0.00094269870877
C            7.82712309418270        1.37475087573079        0.07101628312182
C            8.37770870508843        2.65307073303225        0.13780127982879
C            7.32628578714472        3.59066384646521        0.18675054592809
C            6.12745672898286        2.88665139138858        0.14998597699488
N            6.45291332677684        1.54563324589369        0.07995235493449
C            4.74594117028580        3.48691043659874        0.18131821634714
C            3.59337218109824        2.75335465831930        0.14301933744551
C            2.28628784077104        3.39265471259613        0.17638503708486
C            1.36627496208269        2.42475646048594        0.12585940553144
C            2.07468553701445        1.15633559721315        0.05965055737861
N            3.41270820577638        1.40711699481382        0.07274650474943
H            0.31505824271107       -0.00984277655452       -0.00122762482400
H            0.47138505817911       -2.82419971785565       -0.14812836247180
H            2.47773447458916       -4.64922856018499       -0.24340227681696
H            4.15651553473657       -0.79052892645608       -0.04197797693003
H            5.26245737458395       -4.56292067107954       -0.23890915508083
H            7.77064576254872       -4.47544767845821       -0.23436463882334
H            9.61251535393619       -2.64922577539914       -0.13901781877198
H            9.43334009010073        2.87772903536531        0.14954286183338
H            7.41361665813364        4.66611860860870        0.24289828775156
H            5.77377189891108        0.79077553456826        0.04056007719313
H            4.64695033110002        4.57365331320012        0.23804571495970
H            2.10540378241663        4.45015060390973        0.23158519431169
H            0.29919020064596        2.54894104729795        0.13233852746145
C           27.73571889921907        0.03323598804098       -0.00704628595542
C           27.03071773564116        1.33897065940529       -0.24583205095690
C           27.60934935882317        2.58608630387170       -0.47389594497819
C           26.56701968341529        3.51943224049125       -0.64458614720723
C           25.35637690733544        2.83846644036280       -0.52005330351633
N           25.66459437612454        1.51900461527928       -0.27875516888817
C           23.97681903355676        3.42181284299320       -0.62674708153356
C           22.81927367416209        2.70300068360593       -0.49535630612412
C           21.53065559135870        3.36015584875761       -0.61550213256586
C           20.58817569631120        2.42847425698453       -0.44501189101775
N           22.60321279934942        1.37762756993188       -0.25303983278814
C           21.25410216246366        1.15110990668609       -0.21116169634135
C           20.57327669342818       -0.03378199615944        0.00632452453077
C           21.31860904004249       -1.35526956459965        0.24695087928255
C           20.76509305149273       -2.61581700976451        0.47743275859972
C           21.81558710962281       -3.53899367443202        0.64624705174687
C           23.01596244343147       -2.84581095962040        0.51945194126841
N           22.69147614837719       -1.52537208277484        0.27789622717043
C           24.39628905826710       -3.43685456014057        0.62755997761440
C           25.54927304527085       -2.71406031133276        0.49537006081533
C           26.85632820253315       -3.34399811798308        0.61056363041911
C           27.77636473317889       -2.39057443235195        0.43620518098587
C           27.06777915059867       -1.14116029160290        0.20772075124464
N           25.72998122882393       -1.38833633862162        0.25293177956565
H           28.82747938576463        0.00763232272136       -0.00236698504074
H           28.67125015972322        2.77981322564937       -0.50932184601451
H           26.66509267024637        4.57740228874415       -0.83806219883158
H           24.98602356924205        0.77652525528337       -0.14297719356229
H           23.88057784125257        4.49297010145145       -0.82263188613826
H           21.37162174730722        4.40588755145166       -0.80673806391313
H           19.53028683156430        2.60729910248805       -0.47778506692979
H           19.70944967238303       -2.83696652901199        0.51788394054988
H           21.72874077395920       -4.59840239468036        0.84000201778844
H           23.36978152782340       -0.78136017066016        0.14191539441980
H           24.49557365998506       -4.50731420061899        0.82332472004585
H           27.03723002273485       -4.38567595062708        0.80106031590210
H           28.84345810910000       -2.51293435098381        0.45857878665335
C           10.08145356038353        0.01831765575380        0.00682935110990
C           11.43040808084847       -0.01018965059141       -0.01034085971860
C           12.70720623370856       -0.03277361039175       -0.01181688049616
C           13.99750679217249       -0.04505623124436       -0.01476416598422
C           15.28702679453568       -0.03446781570287       -0.01919906368160
C           16.51615185336582       -0.01402843625079       -0.02545948901461
C           17.84397934569882        0.00506536586088       -0.00951761157215
C           19.07536427022765       -0.00052231399192        0.00831877440362
82
 energy: -140.687714731192 gnorm: 0.129087698690 xtb: 6.5.1 (b24c23e)
C            1.44907057714890       -0.07788998569283       -0.00477860589943
C            2.11329837622561       -1.34209760666994       -0.07076972142873
C            1.54315835721475       -2.63181543338980       -0.13809232932034
C            2.57222481673274       -3.56605131430823       -0.18686145179093
C            3.80569663298669       -2.87837137056246       -0.15096599647855
N            3.48124941333479       -1.53840919100501       -0.08101686968272
C            5.12844743900215       -3.42722092181145       -0.17965810569855
C            6.32763989406855       -2.72531833498983       -0.14308338548534
C            7.61310254094348       -3.41302286609418       -0.17893661503503
C            8.56696820972899       -2.46522004653689       -0.12929068464698
N            6.55832783780958       -1.37212247630257       -0.07226120195166
C            7.90674633538386       -1.16614190864957       -0.06086558674762
C            8.63725202688751        0.06829727740173        0.00393083697333
C            7.84745115985640        1.35045409902337        0.06978511778808
C            8.37780557932374        2.65364533860024        0.13779848767433
C            7.33553511880091        3.57793043011728        0.18606931148491
C            6.11558929861333        2.87608263568849        0.14940165296161
N            6.46583068322847        1.53306150453229        0.07921360569523
C            4.79452365568067        3.44299970323991        0.17902964126747
C            3.59856862182647        2.74069455597150        0.14235810404467
C            2.28956603552798        3.39569115159694        0.17654148694015
C            1.36406119541808        2.42298275262846        0.12576439934798
C            2.08642418845460        1.15325369922964        0.05948683934467
N            3.42332404115527        1.39526497095414        0.07212845434311
H            0.35252594319922       -0.04217600114786       -0.00291758984989
H            0.48033951990665       -2.82942519575627       -0.14840504544356
H            2.47315375016893       -4.64110851100899       -0.24298230128399
H            4.15866545897509       -0.78633761866604       -0.04176207399806
H            5.23183965093259       -4.52093371288798       -0.23671161829646
H            7.76265151327693       -4.47886993721321       -0.23459156675711
H            9.62714653916267       -2.64030047895859       -0.13851737186819
H            9.43225550353299        2.88168020248593        0.14976571200674
H            7.41995305985510        4.65513729113092        0.24232576390740
H            5.78342493313359        0.78284951640226        0.04013492182563
H            4.68517537167702        4.53491368505767        0.23603241099975
H            2.11380647413567        4.45677959934885        0.23193028257729
H            0.29355766721276        2.54153986006231        0.13195034055222
C           27.69322421822623        0.07499099572678       -0.01468275469240
C           27.02930876109913        1.31946146347354       -0.24226522575172
C           27.59957053369133        2.59052540303888       -0.47471011785660
C           26.57144439658359        3.51057126018403       -0.64296373435873
C           25.33690907097417        2.83379469260925       -0.51920066207628
N           25.66126714613634        1.51358010608526       -0.27776309600429
C           24.01780760320762        3.37749651730831       -0.61867782031417
C           22.81865696307705        2.68560697253838       -0.49228005968732
C           21.53027447209704        3.36023863185864       -0.61553101665419
C           20.57904211297152        2.42538963612486       -0.44424903354680
N           22.59844236088323        1.35788243528240       -0.24945641217566
C           21.25056938206084        1.14843461482331       -0.21025029102365
C           20.56521974228263       -0.07237166342865        0.01396656541962
C           21.30577625728062       -1.33173929153726        0.24283904217855
C           20.76767609013082       -2.61523303664918        0.47742076678914
C           21.80732850891849       -3.52643745217450        0.64392674148483
C           23.03025922172915       -2.83741790177052        0.51786848260972
N           22.68426282274081       -1.51549012702405        0.27602499630184
C           24.34888743598239       -3.39482957109692        0.61985736635221
C           25.54449054414224       -2.70195083348405        0.49314935915410
C           26.85336838375583       -3.34705968715426        0.61112077951717
C           27.77869885123730       -2.38876399789245        0.43587038552863
C           27.05597433046086       -1.13813232429891        0.20716414608126
N           25.71933056285348       -1.37689369346990        0.25083963070894
H           28.78986453654982        0.03948887989714       -0.00819394757076
H           28.66244262182517        2.78482702806588       -0.51024040732086
H           26.66999916380517        4.56954204571260       -0.83662491930394
H           24.98378797314840        0.77276619399141       -0.14229289401801
H           23.91237826063925        4.45380933699580       -0.81544046542468
H           21.37951073694133        4.40987505372965       -0.80751922699372
H           19.51812296070530        2.59682458842361       -0.47582159479019
H           19.71239137899212       -2.83888503803418        0.51826746444306
H           21.72213116153903       -4.58746785039019        0.83797787998359
H           23.36415383917627       -0.77498392770897        0.14073016040315
H           24.45822881976868       -4.47008232885172        0.81652918471399
H           27.02905937103128       -4.39224923786077        0.80225878861490
H           28.84918137507686       -2.50554725423845        0.45722457959892
C           10.10517387366437        0.03626942548621        0.00355116704252
C           11.33326949776569       -0.00340653245433       -0.00910481382834
C           12.68160986823499       -0.02928752188751       -0.00997943644189
C           13.93354782334669       -0.04252285872075       -0.01579292345130
C           15.27221806395516       -0.03161985755315       -0.01808823149346
C           16.53153710665668       -0.00957578725516       -0.02440686868000
C           17.87678357035048       -0.00889449561978       -0.00867074651170
C           19.12973480378169       -0.03280437262054        0.01224096497309
82
 energy: -140.713145108673 gnorm: 0.065500975105 xtb: 6.5.1 (b24c23e)
C            1.48659174260777       -0.10398942491313       -0.00612997698950
C            2.12674791393327       -1.33415368738392       -0.07034528932358
C            1.55663841841987       -2.63506424402047       -0.13825610052329
C            2.57546387975499       -3.55456314738016       -0.18625694214580
C            3.81748060516726       -2.85900920474092       -0.14994300787093
N            3.49085009595945       -1.52437249519541       -0.08027183111259
C            5.11014169256380       -3.37707134256368       -0.17702841296185
C            6.33177760804081       -2.69768879063625       -0.14142390643455
C            7.61259403078450       -3.39777575543251       -0.17819552399565
C            8.57361144509583       -2.45149527097881       -0.12841333330780
N            6.56053090566651       -1.34925257397577       -0.07010016476863
C            7.90417016282678       -1.15568522263340       -0.05950773187648
C            8.60422881702361        0.09550720999425        0.00713952397177
C            7.86575054900207        1.33613501298486        0.06985577808929
C            8.38962868751472        2.65156948364271        0.13781679258638
C            7.35266376599408        3.55851511108496        0.18501140876609
C            6.12749266913669        2.84616985215779        0.14785777264251
N            6.48704958521462        1.50762346103904        0.07823501715847
C            4.83703138771137        3.38997719794395        0.17621244980601
C            3.61331149595199        2.71907517433371        0.14122405512796
C            2.30793739704230        3.38691832521064        0.17609540207146
C            1.37620207452740        2.41404975785678        0.12531017826291
C            2.10233457575675        1.14611921764439        0.05912626162026
N            3.43653835357447        1.37786559575570        0.07122429853846
H            0.39523368682164       -0.08567770172645       -0.00517837903338
H            0.49480430419900       -2.83541622333242       -0.14871371253056
H            2.47548025784262       -4.62905457928087       -0.24235084867405
H            4.16637333246442       -0.77084832050625       -0.04094563342356
H            5.19705520306744       -4.46663991685673       -0.23396424334549
H            7.74944947045517       -4.46830344865116       -0.23430219588082
H            9.63868292559072       -2.61876121307293       -0.13730190061017
H            9.44188920429243        2.88564931387656        0.15003314857163
H            7.43042671820055        4.63564045204641        0.24120265404625
H            5.80517644946878        0.75703349440506        0.03900090584021
H            4.74787930130760        4.47911402111948        0.23310476063439
H            2.13913075388529        4.45235826654191        0.23170892197702
H            0.30200629178612        2.52778617916742        0.13124368263361
C           27.65583581123137        0.10032303161648       -0.01930720827258
C           27.01621028201195        1.31213552507151       -0.24092015653607
C           27.58730862525312        2.59360752258557       -0.47526757471130
C           26.56983831743193        3.49991557618653       -0.64100910640038
C           25.32703602109525        2.81596685653526       -0.51595760608575
N           25.65226623801712        1.50073594851016       -0.27541813164865
C           24.03753332184795        3.33032089141711       -0.61009158220919
C           22.81638282278989        2.66086052249153       -0.48776079464535
C           21.53349427049805        3.34764060936904       -0.61319393455586
C           20.57534250574744        2.41344872273981       -0.44173237519433
N           22.59484912038890        1.33545151450182       -0.24520993744646
C           21.25167297167965        1.14086445377863       -0.20867462923886
C           20.57248948414436       -0.09579772035243        0.01801387140616
C           21.29495194163202       -1.31812544587891        0.24070467590124
C           20.76106370460002       -2.61149867217039        0.47698201458130
C           21.79354988502286       -3.50803236547659        0.64056323604285
C           23.02236573554044       -2.81084992165698        0.51295123817006
N           22.67028384696993       -1.49284386219677        0.27193855527870
C           24.31016614295415       -3.34626167668657        0.61091660978263
C           25.53176539295992       -2.68239186026779        0.48955229579564
C           26.83702359877476       -3.33898330743095        0.60964552541146
C           27.76778211397335       -2.37993219737008        0.43425855471002
C           27.04052457767057       -1.13150131055235        0.20595539149832
N           25.70658612447688       -1.36101933222936        0.24792832815084
H           28.74721470686509        0.08218962423231       -0.01599485693264
H           28.64918647173607        2.79016883526636       -0.51121083981377
H           26.66922421804703        4.55828806697590       -0.83456121613963
H           24.97614886610298        0.75885695622526       -0.13975443715427
H           23.94956511723139        4.40291325281561       -0.80612265185361
H           21.39415370825254        4.40150759058792       -0.80611381009754
H           19.50961967031801        2.57558289518163       -0.47169885459349
H           19.70742767737875       -2.83891253822170        0.51841676516161
H           21.71242653881819       -4.56873068450720        0.83447614159069
H           23.34990850566324       -0.75211533094620        0.13653899133347
H           24.39937279294303       -4.41855314839058        0.80711724510098
H           27.00572373680999       -4.38837293560319        0.80154913071517
H           28.84191083861494       -2.49145268753339        0.45465112482123
C           10.05355674368511        0.08082302205315       -0.00483285732605
C           11.30051769860649        0.01109125121766       -0.00949612407573
C           12.67765965778611       -0.02033619173939       -0.00528170423637
C           13.91870311181863       -0.03662216301821       -0.01544922822063
C           15.28055838951007       -0.02890740853187       -0.01522976787632
C           16.53433624531492       -0.01072066312824       -0.02231510568633
C           17.89758395330918       -0.03883984300173       -0.00749937415910
C           19.14779673582360       -0.08602196599260        0.02097129212194
82
 energy: -140.722668789517 gnorm: 0.036701324671 xtb: 6.5.1 (b24c23e)
C            1.50069363900279       -0.10727828638523       -0.00631942881162
C            2.14389005001669       -1.33303801115263       -0.07031161781691
C            1.57328532211359       -2.63732244859303       -0.13839292552533
C            2.59264025677130       -3.54435570868184       -0.18573669260107
C            3.83064632292121       -2.83231643841361       -0.14861050666936
N            3.50319042641283       -1.50524272050752       -0.07931679664115
C            5.12444849122927       -3.33874299415255       -0.17500855901172
C            6.35018921524243       -2.66843133366744       -0.14008666959982
C            7.62174141936172       -3.37772059012950       -0.17661839399472
C            8.59044082332792       -2.43870024739263       -0.12725431904347
N            6.58087700583520       -1.32523788696076       -0.07083134914167
C            7.92360662669401       -1.14634273410431       -0.06213352983226
C            8.61024983076143        0.10314055781942        0.00010732544215
C            7.89502097038806        1.32502347047875        0.06691870885386
C            8.41767286284820        2.64477338589912        0.13740254174917
C            7.37796951652775        3.53512824310622        0.18406483817128
C            6.15861122721938        2.80488712328795        0.14607275842493
N            6.52216341993912        1.47441354031151        0.07631417574445
C            4.87140481994950        3.34380914702630        0.17401118453113
C            3.63666966632807        2.69334006370540        0.13994442792803
C            2.34037750146943        3.37345577412976        0.17539247103337
C            1.39980756132450        2.40769877238156        0.12495948157065
C            2.11632086808034        1.14044583851724        0.05882199105411
N            3.45132342191750        1.35593423179612        0.07009863617565
H            0.41484652506697       -0.10989817602464       -0.00646137765394
H            0.51309283921825       -2.84139458222042       -0.14903935001275
H            2.49790965599915       -4.61833423456971       -0.24179407625652
H            4.17377828903631       -0.74625437673513       -0.03966114507879
H            5.19237585814477       -4.42354477947514       -0.23147101852743
H            7.74068280166741       -4.45060638092114       -0.23275347835165
H            9.65706818708702       -2.59978548257681       -0.13586288855297
H            9.46820043072771        2.88512634330806        0.14977497414086
H            7.44395106674069        4.61181287718364        0.24025707626899
H            5.84705071558413        0.71718448489938        0.03656016423485
H            4.81152502809473        4.42961419947660        0.23051763549623
H            2.18415681619150        4.44145035524695        0.23114596143481
H            0.32504930831392        2.52035315359970        0.13083021800317
C           27.64207653138872        0.10345078016725       -0.01990471859985
C           27.00006554180308        1.31155832861730       -0.24084109568521
C           27.57333605282227        2.59545835746204       -0.47562860562174
C           26.55632849208380        3.49098829073732       -0.63940305054131
C           25.31720304796984        2.79219918628029       -0.51163262136131
N           25.64115743407164        1.48398536731042       -0.27238311200236
C           24.02622818420249        3.29644064630319       -0.60389616131147
C           22.80197439344980        2.63501492316203       -0.48292327938183
C           21.52790176791141        3.32898750272225       -0.60973028576748
C           20.56371329323056        2.39967604867975       -0.43903073422038
N           22.57906194475327        1.31238779190970       -0.24066020991351
C           21.23756614695914        1.13130240624890       -0.20680873423115
C           20.55918801681483       -0.10248289434060        0.01872245364828
C           21.27309703310279       -1.30970643301139        0.23921165298634