142
 energy: -217.089282903876 gnorm: 0.451491646737 xtb: 6.5.1 (b24c23e)
C           11.08145600000000       -0.04330000000000        0.10259600000000
C           11.81005500000000        1.23676800000000        0.61564600000000
C           11.19993000000000        2.34323600000000        1.16112500000000
C           12.22152600000000        3.28928900000000        1.43427200000000
C           13.42145700000000        2.72953900000000        1.04128000000000
N           13.16318900000000        1.45978600000000        0.58857700000000
C           14.84499300000000        3.42783500000000        1.07230200000000
C           15.97331400000000        2.71525600000000        0.80673700000000
C           17.27711200000000        3.34430200000000        0.75481600000000
C           18.17773900000000        2.41826600000000        0.44797000000000
N           16.16881100000000        1.38713600000000        0.53149500000000
C           17.49896200000000        1.14514100000000        0.30466100000000
C           18.16629100000000        0.00019000000000        0.00005400000000
C           17.39170400000000       -1.38105300000000       -0.10918500000000
C           17.93927500000000       -2.63766400000000        0.06396200000000
C           16.91468700000000       -3.58729600000000       -0.17246800000000
C           15.76711100000000       -2.88477500000000       -0.47093400000000
C           14.35437600000000       -3.51000500000000       -0.83348000000000
C           14.32294400000000       -4.89641000000000       -1.35390500000000
C           13.95963100000000       -5.96100700000000       -0.51941600000000
C           13.94018200000000       -7.27493200000000       -1.00330400000000
C           13.50865400000000       -8.40156000000000       -0.11550700000000
C           14.27516800000000       -7.51293600000000       -2.34400700000000
C           14.65780300000000       -6.46050200000000       -3.18784400000000
C           14.98814900000000       -6.71238700000000       -4.62697000000000
C           14.66980800000000       -5.15326300000000       -2.68498100000000
C           13.22914800000000       -2.76420300000000       -0.67971200000000
C           11.90480900000000       -3.26383800000000       -1.00485100000000
C           11.02026500000000       -2.30799100000000       -0.73645800000000
C           11.74483500000000       -1.16278700000000       -0.24203900000000
N           13.06653500000000       -1.48200400000000       -0.23347000000000
N           16.05441600000000       -1.54295200000000       -0.37910600000000
C           14.88412500000000        4.88359800000000        1.35146100000000
C           15.15475900000000        5.34768700000000        2.64449300000000
C           15.18304700000000        6.72041400000000        2.91996200000000
C           15.51964400000000        7.20086400000000        4.29810200000000
C           14.95340300000000        7.63000100000000        1.87768200000000
C           14.66467800000000        7.18109400000000        0.58085300000000
C           14.44650900000000        8.15385700000000       -0.53736700000000
C           14.64219700000000        5.80429300000000        0.32537900000000
H           10.00270300000000       -0.00928100000000        0.00880500000000
H           10.14065200000000        2.46272600000000        1.32817300000000
H           12.09360200000000        4.27800000000000        1.84952600000000
H           13.86484300000000        0.79428500000000        0.27231400000000
H           17.48830000000000        4.38569500000000        0.92084200000000
H           19.23029200000000        2.60373200000000        0.33720300000000
H           18.96544300000000       -2.85189000000000        0.32073400000000
H           17.00321900000000       -4.66281200000000       -0.13248600000000
H           13.68688800000000       -5.73931400000000        0.51104400000000
H           12.45553900000000       -8.64031500000000       -0.29759500000000
H           14.11437700000000       -9.29509400000000       -0.30318400000000
H           13.63113200000000       -8.14202700000000        0.94187300000000
H           14.23757700000000       -8.52712300000000       -2.73341900000000
H           15.73296600000000       -5.99578000000000       -4.98746800000000
H           15.40979000000000       -7.71386500000000       -4.76213600000000
H           14.08608700000000       -6.62342400000000       -5.23959900000000
H           14.94347800000000       -4.31252800000000       -3.32034000000000
H           11.67481700000000       -4.23762500000000       -1.39826200000000
H            9.95555400000000       -2.36782100000000       -0.87082400000000
H           15.36710400000000       -0.79658900000000       -0.44601400000000
H           15.35055800000000        4.61617000000000        3.42674900000000
H           15.13004600000000        6.51422900000000        5.05726100000000
H           15.07484900000000        8.18264100000000        4.48975000000000
H           16.60454800000000        7.27826100000000        4.41288300000000
H           14.99975100000000        8.69737500000000        2.07702900000000
H           14.03226400000000        9.09559700000000       -0.16226000000000
H           15.39439800000000        8.36235200000000       -1.04205900000000
H           13.73529200000000        7.75549300000000       -1.26830400000000
H           14.44131900000000        5.42435500000000       -0.67495400000000
C           32.29248900000000       -0.01408000000000        0.11052000000000
C           31.56389000000000       -1.37797900000000       -0.09337600000000
C           32.17401500000000       -2.60844100000000       -0.18158600000000
C           31.15241800000000       -3.56288700000000       -0.42378300000000
C           29.95248700000000       -2.88128400000000       -0.48016600000000
N           30.21075500000000       -1.55677200000000       -0.22940100000000
C           28.52895200000000       -3.49959400000000       -0.80615900000000
C           27.40063000000000       -2.75047100000000       -0.67536400000000
C           26.09683300000000       -3.26711600000000       -1.03795400000000
C           25.19620600000000       -2.31292200000000       -0.83495200000000
N           27.20513400000000       -1.46523700000000       -0.24196300000000
C           25.87498200000000       -1.14180000000000       -0.31547200000000
C           25.20765300000000        0.00019000000000        0.00005400000000
C           25.98224000000000        1.24740700000000        0.60355600000000
C           25.43467000000000        2.24441000000000        1.38779900000000
C           26.45925799999999        3.18339500000000        1.66349200000000
C           27.60683400000000        2.72788900000000        1.05101100000000
C           29.01956800000000        3.45062200000000        1.05398300000000
C           29.05099999999999        4.91001700000000        1.30523300000000
C           29.41431400000000        5.40721200000000        2.56322200000000
C           29.43376200000000        6.78559800000000        2.80938800000000
C           29.86529000000000        7.30939700000000        4.14472000000000
C           29.09877600000000        7.66829500000000        1.77257800000000
C           28.71614200000000        7.18631900000000        0.51266600000000
C           28.38579600000000        8.13071800000000       -0.60207300000000
C           28.70413700000000        5.80411800000000        0.28625200000000
C           30.14479700000000        2.72930400000000        0.80992300000000
C           31.46913500000000        3.32475000000000        0.78172900000000
C           32.35368000000000        2.36425300000000        0.53048100000000
C           31.62911000000000        1.12615600000000        0.37863700000000
N           30.30740900000000        1.39731500000000        0.54729500000000
N           27.31952900000000        1.52348700000000        0.45239800000000
C           28.48982000000000       -4.89696400000000       -1.30066300000000
C           28.21918600000000       -5.95069300000000       -0.41920600000000
C           28.19089700000000       -7.27453600000000       -0.87494700000000
C           27.85430100000000       -8.38538100000000        0.07169300000000
C           28.42054100000000       -7.53298500000000       -2.23395500000000
C           28.70926600000000       -6.49043900000000       -3.12635700000000
C           28.92743500000000       -6.76504500000000       -4.58281700000000
C           28.73174800000000       -5.17318000000000       -2.65130300000000
H           33.37124200000000        0.00394200000000        0.01239100000000
H           33.23329300000000       -2.79595200000000       -0.09778500000000
H           31.28034299999999       -4.62593600000000       -0.56489000000000
H           29.50910100000000       -0.82266600000000       -0.16614300000000
H           25.88564500000000       -4.24972600000000       -1.42076200000000
H           24.14365200000000       -2.41702500000000       -1.02423900000000
H           24.40850100000000        2.29957400000000        1.71761900000000
H           26.37072500000000        4.09138200000000        2.24132600000000
H           29.68705599999999        4.69532100000000        3.34052800000000
H           30.91840600000000        7.60743400000000        4.10818900000000
H           29.25956700000000        8.17534000000000        4.43414700000000
H           29.74281200000000        6.55124900000000        4.92614200000000
H           29.13636700000000        8.74027600000000        1.94885600000000
H           27.64097900000000        7.69439200000000       -1.27520400000000
H           27.96415400000000        9.06329100000000       -0.21279700000000
H           29.28785700000000        8.36342900000000       -1.17572300000000
H           28.43046700000000        5.39952200000000       -0.68679300000000
H           31.69912800000000        4.36388500000000        0.93414700000000
H           33.41839100000000        2.48376700000000        0.44474600000000
H           28.00684100000000        0.91316600000000        0.01760800000000
H           28.02338700000000       -5.71456300000000        0.62543900000000
H           28.24389800000000       -8.17631700000000        1.07373200000000
H           28.29909600000000       -9.32948400000000       -0.25888700000000
H           26.76939600000000       -8.51016000000000        0.13165100000000
H           28.37419300000000       -8.55484900000000       -2.60113100000000
H           29.34168100000000       -7.76727600000000       -4.73484300000000
H           27.97954600000000       -6.69001800000000       -5.12370100000000
H           29.63865300000000       -6.05199600000000       -5.01238100000000
H           28.93262600000000       -4.33994000000000       -3.32266700000000
C           20.94971000000000        0.01262600000000        0.00249500000000
C           19.69743900000000       -0.00655400000000       -0.00185300000000
C           22.26337800000000        0.01186100000000        0.00442800000000
C           23.76651100000000       -0.00655400000000       -0.00185300000000
142
 energy: -217.216313831633 gnorm: 0.282344503926 xtb: 6.5.1 (b24c23e)
C           11.12042413703829       -0.00577446371329        0.11821548652836
C           11.81114686423042        1.22068253845046        0.61012598563360
C           11.20812753262214        2.35062542870512        1.15658363929999
C           12.22188260572886        3.28847501829663        1.42601144737080
C           13.44217883515298        2.73129948285663        1.04006183844122
N           13.16715425144583        1.46021663310961        0.58351960955005
C           14.80830628165339        3.39402345396830        1.06740355328653
C           15.97344103966575        2.69996643456225        0.80032199378010
C           17.27736928385503        3.35241361455402        0.75537572306630
C           18.18922275806510        2.42157187606354        0.44827307578420
N           16.16928273701000        1.36772769609205        0.51696394157152
C           17.50483659779200        1.14461944286434        0.30363289159226
C           18.19508159776257       -0.04162590974884        0.02429967185564
C           17.40905121532773       -1.36181431721996       -0.10584904901100
C           17.93983497475029       -2.63896916639601        0.05304382780336
C           16.91830524844734       -3.57991279087097       -0.18019342722798
C           15.75152704166734       -2.88126324032121       -0.47387113885962
C           14.39550198476197       -3.48192997682483       -0.82207805594602
C           14.34391387837788       -4.88407133734218       -1.34324838942117
C           13.96238254633888       -5.95275308070779       -0.52138479369271
C           13.93736790619008       -7.26330787859909       -1.00646181373341
C           13.51205048497040       -8.39900547251064       -0.11556313458514
C           14.27599364542816       -7.50396025336086       -2.34029081632911
C           14.65176850190436       -6.45385145657746       -3.18041571271024
C           14.99045820451343       -6.71221332493169       -4.62349362877261
C           14.67433994167416       -5.15002554513835       -2.67675423273139
C           13.23369001589901       -2.75339758832637       -0.68028627110991
C           11.90634897276894       -3.27378937414452       -1.00777888893549
C           11.01617333587388       -2.31123488369383       -0.73862099132398
C           11.75990555936148       -1.16095855139837       -0.24418519938045
N           13.08456266842982       -1.47107387254117       -0.23176028823586
N           16.06283925037564       -1.53668891353786       -0.38245164811597
C           14.86563626990755        4.86624361345072        1.35187636767260
C           15.15179809048408        5.34139653759799        2.63799445118784
C           15.18620802839417        6.71235005101702        2.91098410586093
C           15.51586769040516        7.19981810265590        4.29594502307437
C           14.95234889148893        7.62033726190452        1.87599304934309
C           14.67014054541137        7.17087937049353        0.58422981746999
C           14.44398547748825        8.15179516849966       -0.53445817602010
C           14.63828999388730        5.79634418033552        0.33041658272895
H           10.03359401698822        0.01691153362938        0.02620761166622
H           10.14837104167940        2.46872445041217        1.32932502733127
H           12.09139535497872        4.27403545249760        1.84758297698075
H           13.86614758187358        0.79495288075511        0.27171838557571
H           17.47966160366349        4.39609894530882        0.92417225992459
H           19.24363628298439        2.59803369296767        0.33548617555627
H           18.96300880301628       -2.85644316926965        0.31734809074819
H           17.00655638892439       -4.65582156676980       -0.13333450189406
H           13.68962084246487       -5.74202907428733        0.50885457491592
H           12.46051146297090       -8.64077999559423       -0.29651136937797
H           14.11085818476288       -9.29337138419930       -0.30661732790768
H           13.62864892401531       -8.13941266101718        0.93924593140800
H           14.24004165597937       -8.51955225068179       -2.72977740723000
H           15.72897179881881       -5.99399148203121       -4.98668041000107
H           15.40517770792979       -7.71376144548275       -4.76028441350462
H           14.09037382455248       -6.62384979019565       -5.23834174024059
H           14.94555120458426       -4.31701690356879       -3.31950895876953
H           11.68228630352100       -4.24999878806869       -1.40084350456121
H            9.94844572354714       -2.36414114949373       -0.86954637012633
H           15.37458114529555       -0.79429267256870       -0.44601916460602
H           15.34777933690251        4.61962149882169        3.42595898065102
H           15.13370276100354        6.51263769402946        5.05452781337954
H           15.07759956943618        8.18239579771536        4.48597271961952
H           16.60019944656554        7.27780373410788        4.41385596674903
H           14.99710996127982        8.68907962554711        2.07610624518954
H           14.03662535100729        9.09412430318110       -0.16025663449159
H           15.38998337440940        8.36203554538186       -1.04122077711367
H           13.73947687934957        7.75332051854254       -1.26816356430752
H           14.43929620580322        5.42742196697391       -0.67197839920815
C           32.25364316183616       -0.05417530760280        0.10505345584003
C           31.56283879815539       -1.36146801394683       -0.09001022749887
C           32.16582173744118       -2.61243806134395       -0.18916327902665
C           31.15182652084848       -3.55803993299763       -0.43046298157338
C           29.93188866618454       -2.88213283712216       -0.48198006717206
N           30.20689455794145       -1.55455151574583       -0.23404753211682
C           28.56468382566215       -3.46720976840150       -0.79318440342435
C           27.39979453013993       -2.73373625813101       -0.67300312305324
C           26.09713329047548       -3.27525079176939       -1.04187088436439
C           25.18459205018054       -2.31697765087174       -0.83729205900108
N           27.19990131361981       -1.43889254497811       -0.24403167352006
C           25.86501768935815       -1.14238037262918       -0.31689096826961
C           25.15490768829686        0.02273267106240        0.04281666312942
C           25.96236323000554        1.23003608471809        0.59663667013141
C           25.43388315536243        2.25083107041604        1.37952165272556
C           26.45601465613994        3.18088890289779        1.65314507158384
C           27.62190973151762        2.72600244679799        1.04661314099332
C           28.97858578920277        3.42060275572903        1.04958498632236
C           29.03006882705569        4.89394450979395        1.30814505655952
C           29.41157139798906        5.40106183924959        2.55732855180127
C           29.43656978566715        6.77714543470040        2.80078089373830
C           29.86189080620223        7.30721294133267        4.14337407929222
C           29.09794997970010        7.65866569483513        1.77124816023931
C           28.72217045952828        7.17681939129437        0.51571554358996
C           28.38348707827110        8.12880952751909       -0.59916093381541
C           28.69959280930753        5.79716193011922        0.29170334782576
C           30.14027166661281        2.72033425717321        0.80408297237689
C           31.46761500479708        3.33483940188804        0.78423064939715
C           32.35778590623561        2.36818604048740        0.53025890713846
C           31.61413025083737        1.12568493718443        0.37588072242227
N           30.28937708609420        1.38695870331763        0.54328847930064
N           27.30951322297533        1.51944410280070        0.44582903327621
C           28.50807637564923       -4.88183388730193       -1.29148082947665
C           28.22215649360064       -5.94181407519869       -0.42162477458179
C           28.18777010273307       -7.26294208711316       -0.87860667473784
C           27.85808890662915       -8.38333742291863        0.07034898771975
C           28.42160010997911       -7.52373066094343       -2.23050961766369
C           28.70380941417021       -6.48324485007327       -3.11823294730210
C           28.92995831615998       -6.76470493619788       -4.57922769591643
C           28.73562225266390       -5.16872459136634       -2.64287137869245
H           33.34043528590958       -0.02735662625260        0.01414508154374
H           33.22557239068206       -2.80167338835162       -0.09982389889899
H           31.28240529427349       -4.62154425855605       -0.56459296469683
H           29.50790584592957       -0.82289352455810       -0.16700910421172
H           25.89482588494500       -4.26103060486214       -1.42332143088356
H           24.13003621265973       -2.41177562200428       -1.02303973574372
H           24.41065133528140        2.30531678972351        1.71708642461911
H           26.36766398353137        4.08582157513565        2.23696106566114
H           29.68432427959816        4.69876262049794        3.34000154295357
H           30.91343032768548        7.60728501733494        4.10935603732833
H           29.26308527657751        8.17558256647537        4.43030942367408
H           29.74529478584727        6.55031821756352        4.92255328359789
H           29.13390229245694        8.73189803288452        1.94817456483726
H           27.64497264696905        7.69245105772377       -1.27542798880940
H           27.96876703507551        9.06226348547472       -0.21125020994342
H           29.28357092837529        8.36316124918681       -1.17442320758646
H           28.42839215737155        5.40298154610322       -0.68382341888849
H           31.69167041978694        4.37588434211301        0.93816462475458
H           33.42550870414528        2.47996862890576        0.44399141116532
H           27.99817769790911        0.91084799382955        0.01623291017160
H           28.02614420503509       -5.71709962566921        0.62303393101323
H           28.24024175840531       -8.17355392701116        1.07217655288329
H           28.29634543448172       -9.32732711820100       -0.26203209242273
H           26.77375749104918       -8.51023700311897        0.13271228035026
H           28.37683668865143       -8.54717690620179       -2.59771955336192
H           29.33731202439834       -7.76699487682120       -4.73234310443728
H           27.98396593917630       -6.69016117603415       -5.12279764537642
H           29.63446659074338       -6.05018553288624       -5.01115714609598
H           28.93463316406126       -4.34404250237910       -3.32166156688415
C           20.97763357926650        0.00505823183344       -0.00090201976704
C           19.69888139483650       -0.02515765168677       -0.00479789070961
C           22.34095200527698        0.01663492150887        0.00338318531758
C           23.69871366952280        0.01589417742053        0.00712904153481
142
 energy: -217.272562125246 gnorm: 0.214776998394 xtb: 6.5.1 (b24c23e)
C           11.17267776528015        0.04063082325748        0.13775920987156
C           11.81537658941567        1.19748328645874        0.59952006866374
C           11.22291128738802        2.36261737404857        1.15026492239482
C           12.22123918532139        3.28469315673668        1.41451945499232
C           13.47548419287560        2.73471051996240        1.03510415653733
N           13.17575373570380        1.45894005249666        0.58207934901185
C           14.76132273249028        3.34909401315064        1.05933503044199
C           15.97598261532647        2.68236106695856        0.78969170658643
C           17.27506204793682        3.35515032201064        0.75549585024964
C           18.19960646502784        2.42204001852182        0.44970295583141
N           16.17742188565045        1.34849615727336        0.50246249436373
C           17.51594411061204        1.14462792133119        0.29564611043562
C           18.22703251517765       -0.08253498829739        0.03230670624348
C           17.43619440318470       -1.33261240020589       -0.10063069037333
C           17.94067149190773       -2.64399100634261        0.04003831280191
C           16.92781877628956       -3.56847038265094       -0.19178263842415
C           15.73183234843285       -2.87408502031417       -0.47980739737749
C           14.45082992637982       -3.44219444449738       -0.80633933015461
C           14.36675274443349       -4.86725496945691       -1.32943348750089
C           13.96857177081283       -5.94091441682504       -0.52092135996742
C           13.93547073186865       -7.24920548540844       -1.00795860985822
C           13.51418641236143       -8.39400258101035       -0.11533486014684
C           14.27628292149706       -7.49423249354194       -2.33644471316685
C           14.64715033670977       -6.44474891943268       -3.17208624726322
C           14.99159594608332       -6.70979673406218       -4.61945495125945
C           14.68041710256528       -5.14344180798455       -2.66604454917182
C           13.23950971721049       -2.74197657540105       -0.68383957143507
C           11.91293140216425       -3.27978744454934       -1.00988605935936
C           11.01701374320530       -2.31102652548390       -0.73994625370583
C           11.77536551256647       -1.15970035694169       -0.24878166913586
N           13.09894507860046       -1.46184476110013       -0.23525400217636
N           16.07637367745583       -1.52528904526966       -0.37684622007456
C           14.84899295737905        4.84413836082722        1.35176248389334
C           15.14673666376007        5.33113444551733        2.63126580671335
C           15.18824764387584        6.70133970283142        2.90226546699483
C           15.51325193549713        7.19631014514411        4.29300965425817
C           14.95185170776294        7.60989909077228        1.87409191821105
C           14.67414243141808        7.15792495598363        0.58693198334723
C           14.44251460555451        8.14727118051853       -0.53218003145735
C           14.63364585482430        5.78433108509479        0.33549016254820
H           10.07586095689177        0.04194800385187        0.04906796375024
H           10.16143313321753        2.47603308544180        1.32955473751252
H           12.08891851630870        4.26767648670949        1.84390151242102
H           13.87178375897486        0.79272472118047        0.27215401065108
H           17.46586593135309        4.40161686550375        0.92748370466651
H           19.25591607672997        2.58878826081470        0.33325311576150
H           18.96141835909587       -2.86434259173874        0.31232391060951
H           17.01176740672519       -4.64562177509888       -0.13578900390405
H           13.69305547066115       -5.74410813922692        0.50960604341251
H           12.46414112975450       -8.63973300404181       -0.29631124156752
H           14.10853065972450       -9.28794447039568       -0.31191898296636
H           13.62675215710546       -8.13524102464559        0.93731184336750
H           14.24301630302212       -8.51082178693256       -2.72538261707952
H           15.72538903898785       -5.99102404426985       -4.98482782330805
H           15.39994817780732       -7.71224878690121       -4.75475590453543
H           14.09299517415420       -6.62345460125314       -5.23656511640743
H           14.95067496468982       -4.31986626905129       -3.31890809798322
H           11.69537981747210       -4.25914661288433       -1.40117498822196
H            9.94646361999484       -2.35634499127866       -0.86575481057670
H           15.38439119822875       -0.78745003209498       -0.44222485157701
H           15.34429812310167        4.62117709370842        3.42736027804540
H           15.13653605391527        6.50955487890919        5.05132585702477
H           15.07946810352903        8.17994428535836        4.47856480827488
H           16.59719678805099        7.27645462117707        4.41372413454299
H           14.99394851730192        8.67936275940709        2.07509975439093
H           14.04133444780607        9.08932079154325       -0.15570042061374
H           15.38714556982693        8.36058152034073       -1.04017408051901
H           13.74306719689889        7.74951695379364       -1.26787023171608
H           14.43491535468486        5.42929356419283       -0.67050063017191
C           32.20142787560555       -0.10405976307640        0.09848285198086
C           31.55858285507442       -1.33607585168620       -0.08746964533444
C           32.15097989969014       -2.61953606083271       -0.20068230175747
C           31.15220890183954       -3.54890867487393       -0.43845325566094
C           29.89847403626825       -2.88233711416614       -0.48792006055372
N           30.19822833957785       -1.55256655542054       -0.23466296288772
C           28.61078599932851       -3.42369422037036       -0.77740801393396
C           27.39645232471048       -2.71223206117355       -0.67312442487658
C           26.09893174249315       -3.27723324042192       -1.04303610826137
C           25.17287013161977       -2.31830519618211       -0.83581964298842
N           27.18951928825022       -1.41318758613834       -0.24585747591979
C           25.85131420578676       -1.13761002127019       -0.32221474895792
C           25.11341020172922        0.05086203774708        0.06952981883023
C           25.93127337455797        1.20149154225338        0.58634050324760
C           25.43150581114725        2.26188146029330        1.37107135424730
C           26.44595509037999        3.17662866021490        1.63764230058404
C           27.64007921851401        2.72167487974902        1.03737284660159
C           28.92256664959077        3.37782274039132        1.04285484012551
C           29.00685659466776        4.87212289334770        1.31153680945016
C           29.40530375174589        5.39046114937608        2.55165878442001
C           29.43847111298135        6.76562605145239        2.79230706643545
C           29.85974929506425        7.30273621309632        4.14099804837411
C           29.09765760193355        7.64826889535926        1.76963552636899
C           28.72680342884973        7.16467950130371        0.51829360669607
C           28.38235375951382        8.12465328509959       -0.59689028326723
C           28.69345315907897        5.78595867892796        0.29761133100892
C           30.13416509711152        2.71214727455281        0.79519380039103
C           31.46084022733216        3.34104468350777        0.78547523493684