716
 energy: -1094.784675125955 gnorm: 0.000523047986 xtb: 6.5.1 (b24c23e)
C          119.34150621151487       -0.14032668751735       -0.02242371748648
C          119.95963708663953       -1.38309175898796       -0.07421472136131
C          119.32787960855254       -2.65761163880969       -0.13035374794929
C          120.30639991621970       -3.61092958863984       -0.16846093263372
C          121.56709422662115       -2.94878608125762       -0.13622772099417
N          121.30725085959631       -1.60897605780455       -0.08002005004575
C          122.83221640132304       -3.54077539068709       -0.15551684085157
C          122.86218986166386       -5.03181670327170       -0.22148382890288
C          122.88169167047346       -5.67393399774146       -1.46290464701321
C          122.88050894952192       -4.86106135773456       -2.73013311590097
C          122.90391729529371       -7.06282107845244       -1.51372245434325
C          122.90792853037266       -7.82073136890838       -0.34738882237011
C          122.91051983188524       -9.32409825689621       -0.41471225597030
C          122.88885115932142       -7.17109856094010        0.88257468928802
C          122.86642597893365       -5.78334307525327        0.95707167084369
C          122.84851311345302       -5.08794303716909        2.29226667483802
C          124.04903553327648       -2.86178087913419       -0.12073371704736
C          125.33811679965716       -3.52967487547218       -0.13904475036379
C          126.27255594270855       -2.55712790955277       -0.09765660835730
N          124.22135172295629       -1.51184807280096       -0.06836437240686
C          125.55219466982732       -1.29873471923882       -0.05513784638860
C          126.19789010535990       -0.04552339937441       -0.01537660709191
C          125.55392023693203        1.20554557223656        0.02483901983462
C          126.17955973510760        2.48012608462626        0.07023867165699
C          125.19707883413707        3.43059267698170        0.11027104813087
C          123.94051166743979        2.76345064766717        0.08966433561411
N          124.20836248887575        1.42080845893673        0.03690966101993
C          122.67665665804867        3.35533576724547        0.11905681247537
C          122.63957121469132        4.84592106083990        0.18334156917967
C          122.62007433227673        5.59566848556188       -0.99624279939967
C          122.63911868878604        4.89859586685760       -2.33053881511941
C          122.58135801518009        6.98316182366894       -0.92358655613150
C          122.56245747815223        7.63440532640210        0.30549804887794
C          122.49819862921480        9.13646812596546        0.37085777150210
C          122.58127970420266        6.87828866301085        1.47288106746353
C          122.62000147170400        5.48972236341606        1.42393455938274
C          122.63932080053094        4.67883238292228        2.69229537431520
C          121.45875473023216        2.67313083682173        0.09455214606499
C          120.16338308996886        3.33420669238968        0.12445574378136
C          119.23517402945581        2.35688763693793        0.08413403607358
C          119.96323466377741        1.10088143038435        0.03028226325839
N          121.29929966185034        1.32952646277284        0.03844423318496
H          118.25644911115671       -0.14929589405290       -0.02386810239479
H          118.26044842331052       -2.81069022716036       -0.13988663495256
H          120.17886507035271       -4.68056618677414       -0.21457092762987
H          122.01633305487920       -0.88440578427328       -0.04746379216803
H          121.98165925777454       -4.24372974328945       -2.78386466915040
H          122.91315892600781       -5.50699842809062       -3.60698908328287
H          123.74468464106504       -4.19462127729708       -2.75345202676976
H          122.91997288543686       -7.56085513873347       -2.47767798278602
H          121.88377556766223       -9.69761429439552       -0.41604104536712
H          123.39890349451855       -9.67170801649303       -1.32533589700351
H          123.42476021633495       -9.75060166170238        0.44690205154215
H          122.89314034991331       -7.75427672358765        1.79767086432987
H          121.94515453551836       -4.48309393474779        2.39256243457297
H          122.87718646443278       -5.81004889967454        3.10769309400034
H          123.70804150701247       -4.42141064764359        2.38389630206160
H          125.47911577005777       -4.59794941778330       -0.17821509825353
H          127.34655319766583       -2.65375776707677       -0.09577790901481
H          127.24609325768643        2.63785377043288        0.07270210884229
H          125.32118110945356        4.50071071424961        0.15092219203224
H          123.50198543058850        0.69297401114577        0.01256644664306
H          122.60802460382183        5.61956336434802       -3.14687456379024
H          123.54364464702944        4.29561097422537       -2.43075595920774
H          121.78093548869607        4.23004687363344       -2.42068106271533
H          122.56638134955277        7.56487910928958       -1.83949642388360
H          122.96956488196720        9.50657382556799        1.28160425241462
H          121.45583099910229        9.46381879050831        0.37076638393193
H          122.99382877296158        9.58445581355219       -0.49075112776926
H          122.56628972973130        7.37759758897180        2.43619546073660
H          122.61029348129308        5.32587545713241        3.56846290754492
H          121.78009135620407        4.00634564775324        2.72488365112927
H          123.54292980317267        4.06794655236248        2.73837028463210
H          120.01690019831297        4.40169142104270        0.16955511609379
H          118.15992453382607        2.44473488451459        0.08910515954179
C          254.94750265118108        0.09130258282052       -0.04147489269969
C          254.32937782950296        1.32762116263323       -0.17829538577952
C          254.96120152191986        2.59625212617799       -0.31238468994701
C          253.98274060483314        3.54409069395819       -0.42207209683301
C          252.72204578079646        2.88422263629282       -0.35893409873824
N          252.98178704463626        1.55139385132895       -0.21109465868018
C          251.45698382114401        3.47193480593027       -0.43494090429069
C          251.42778125072169        4.95535954576954       -0.59946923245189
C          251.43682284319843        5.51592301716876       -1.87982858474263
C          251.46696292037194        4.62281926489521       -3.09148976019680
C          251.41607120313310        6.89863806936257       -2.02075489071726
C          251.38572125972374        7.73028128343843       -0.90621171426028
C          251.38557882385578        9.22618943765786       -1.07025195260172
C          251.37630369232258        7.16144526928516        0.36325715170511
C          251.39656274380582        5.78146184446190        0.52773260987390
C          251.38371324799536        5.17391153662012        1.90516725170431
C          250.24008672910534        2.79541597659583       -0.37002349161696
C          248.95111891916335        3.45783053379746       -0.45851145625129
C          248.01658495835667        2.49008072175095       -0.35385189458089
N          250.06754721089578        1.45317419500263       -0.21607611459673
C          248.73681733576115        1.24021620011946       -0.20127493920385
C          248.09093984190397       -0.00477337743364       -0.05191832906718
C          248.73511717819653       -1.24724343620966        0.10101537939552
C          248.10938698438909       -2.51377156852649        0.25014945615117
C          249.09182176112304       -3.45910503427334        0.35744659864820
C          250.34837102128412       -2.79656604083685        0.27730984089494
N          250.08060166869757       -1.46158840512603        0.12418811201705
C          251.61216537819828       -3.38609345630917        0.33944963989498
C          251.64869066494268       -4.86911914219636        0.50256436499527
C          251.65705547425151       -5.69454014903754       -0.62556978495642
C          251.62727199195055       -5.08639869133623       -2.00250145407416
C          251.69463695381327       -7.07433425548350       -0.46258186248383
C          251.72321049025592       -7.64375065424663        0.80631196754121
C          251.78573843342164       -9.13847270717420        0.96904700912859
C          251.71555886175929       -6.81280231339494        1.92179240967741
C          251.67826463231665       -5.43031177608033        1.78239205486566
C          251.67092613413539       -4.53796712467577        2.99494018247311
C          252.83014654613035       -2.70812005459466        0.26156178774164
C          254.12544732357310       -3.36613236708075        0.33266626412994
C          255.05373494664607       -2.39376134186059        0.22708310830389
C          254.32577451216343       -1.14394712012644        0.09091912776435
N          252.98969355887061       -1.37133939735253        0.11509861033428
H          256.03255317652861        0.10068546847137       -0.03872210573148
H          256.02862108617757        2.74939922275637       -0.32196905719474
H          254.11038035328323        4.60852925511408       -0.53691315296976
H          252.27267083414355        0.82993705144393       -0.13686620276648
H          252.37132314481070        4.01118459334985       -3.08921024005700
H          251.44559406004672        5.21038815592168       -4.00881532921787
H          250.60844111378901        3.94875320308429       -3.08679828505560
H          251.42217815063833        7.33335584008981       -3.01498385985524
H          252.41225509727275        9.59990222581384       -1.07025710896202
H          250.91998102597816        9.51402677868959       -2.01308930644393
H          250.85051881698107        9.70669180785347       -0.25076100124469
H          251.35135765798404        7.80249995400552        1.23843711309702
H          252.28047383261676        4.57136729134409        2.06224379699178
H          251.34433198955315        5.94747947179139        2.67146870992843
H          250.51769347191126        4.51993482325556        2.02265480628602
H          248.81025586135252        4.51947724873912       -0.58380368968921
H          246.94260456841798        2.58488431147376       -0.37402896279361
H          247.04285790361806       -2.67018444917377        0.27050932995403
H          248.96760786620823       -4.52279959474404        0.48122996851301
H          250.78702027906576       -0.73849343650371        0.03811618952485
H          251.65262681492732       -5.85932108835999       -2.77004075836070
H          250.72150670133004       -4.49155967739147       -2.13507767554375
H          252.48419058118589       -4.42494278594973       -2.14292013703586
H          251.70094229730668       -7.71478030808972       -1.33853918593933
H          251.32351044457121       -9.44724129404709        1.90692465814907
H          252.82750211302735       -9.46757116078326        0.97926573222565
H          251.28019480868474       -9.64058132461893        0.14379501578656
H          251.73815877723041       -7.24801662113593        2.91556286870175
H          251.70515612759905       -5.12624017200387        3.91141915474542
H          252.53214273823042       -3.86747618527634        2.97674653336969
H          250.76931034993922       -3.92255813435058        3.00770481165586
H          254.27181782883176       -4.42834519062920        0.44796952864701
H          256.12897662848610       -2.48130813109620        0.23662116206824
C          131.40078009396987       -0.00938680529238       -0.02519442506985
C          130.17220774449322       -0.01320152210505       -0.02119314272807
C          128.82747689862720       -0.02026069368023       -0.01718208402194
C          127.60342017903862       -0.03075959631962       -0.01759254631437
C          132.74536698439675       -0.01224579887038       -0.02904239259338
C          133.96964311494347       -0.01520698757486       -0.03552865439848
C          147.50306581275626       -0.06597541652730       -0.06562920634143
C          146.27375164367066       -0.06420452604252       -0.06435177893643
C          144.93037982614624       -0.06194097282979       -0.06309347150639
C          143.70547866012893       -0.05940604445218       -0.06050761729956
C          148.84640447667721       -0.06857882792497       -0.06633791203814
C          150.07132949693747       -0.06839950467426       -0.06844309876533
C          163.60508691934254       -0.06127001382106       -0.06563273020561
C          162.37573304913457       -0.06158333641884       -0.06495215129755
C          161.03243551836854       -0.06105157478309       -0.06495916157514
C          159.80747515342790       -0.06282575086860       -0.06347829148419
C          164.94839178511907       -0.06184618451701       -0.06571618830126
C          166.17337035936382       -0.06088809780266       -0.06720574363402
C          179.70779899893986       -0.05784013663274       -0.06375489718460
C          178.47840005763720       -0.05847542844319       -0.06373870441940
C          177.13507912240348       -0.05786845472097       -0.06394244540982
C          175.91011095480965       -0.05956335338879       -0.06287901495022
C          181.05112373954623       -0.05878642372120       -0.06379533802012
C          182.27610290899497       -0.05833284142801       -0.06547604499418
C          195.81105367184776       -0.05852551460268       -0.06445173152485
C          194.58167304910435       -0.05875415087070       -0.06391416210027
C          193.23835779458511       -0.05779700498472       -0.06381736648856
C          192.01338901817951       -0.06022696727406       -0.06369616447976
C          197.15436866962588       -0.05864834119290       -0.06367194859339
C          198.37934601112019       -0.05752671137479       -0.06563419584261
C          211.91383189081384       -0.05775818020556       -0.06564094488406
C          210.68447748940324       -0.05829399374070       -0.06574476414647
C          209.34118185461352       -0.05800202360703       -0.06638070033621
C          208.11622383542462       -0.05998127305342       -0.06532840145285
C          213.25713735304907       -0.05907475111117       -0.06510090927538
C          214.48209602668030       -0.05884557421231       -0.06662202384803
C          228.01592840632509       -0.08309944060257       -0.07814663187540
C          226.78661317110115       -0.08184650108271       -0.07715580824581
C          225.44329048497198       -0.07840377445327       -0.07691100228267
C          224.21836178870049       -0.07681595022432       -0.07438712638852
C          229.35926732768743       -0.08601120639771       -0.07867398479447
C          230.58419124258185       -0.08713137150725       -0.08137643728592
C          244.11730680119948       -0.05095247695767       -0.05941926894198
C          242.88863723212143       -0.06383589796048       -0.06361889764409
C          241.54439141686055       -0.07336180690914       -0.06591649303695
C          240.31997909681337       -0.08100215526054       -0.06803081109761
C          245.46166725045347       -0.03710596517003       -0.05412867046766
C          246.68581546095453       -0.02101948820482       -0.05363804635773
C          135.37422909000421       -0.02310587736107       -0.03886796534246
C          136.00475367027352       -0.97048080249323        0.79085980369320
C          135.36965105935391       -1.91793610835491        1.63524386409544
C          136.34642932951286       -2.63576789328735        2.27036229965877
C          137.60649511134122       -2.14576884933263        1.83050122600265
N          137.34899406560751       -1.14116673289737        0.93656141040899
C          138.86614765152581       -2.59839936675355        2.23372584931558
C          138.87548013779198       -3.70952177306316        3.23113589938823
C          138.87685780739608       -5.03807222290039        2.79598519446620
C          138.87018854250778       -5.34669402009118        1.32247949666438
C          138.88585216497037       -6.06375523170287        3.73358828866403
C          138.89258578215288       -5.78628214075489        5.09703925669804
C          138.92293430593745       -6.90816692797917        6.09951078877152
C          138.89189936840825       -4.46097428816079        5.51830761909202
C          138.88291570442996       -3.41888073455830        4.59817856803601
C          138.88223792626300       -1.98688024803421        5.06286226860528
C          140.09571969235108       -2.11171896075490        1.79614000484267
C          141.37013894964207       -2.63061670802460        2.25976373909851
C          142.32574395372058       -1.92254196834911        1.62221708308030
N          140.29756733130716       -1.10941749336854        0.89600942482963
C          141.63265600347330       -0.97460107831721        0.77194709045274
C          142.30229227701432       -0.05346234198196       -0.06046456818677
C          141.67109825062266        0.88265322468728       -0.90312541926538
C          142.30592374490183        1.82026335731682       -1.75845298486416
C          141.32890831851344        2.53388155315999       -2.39796183745822
C          140.06896768461891        2.05159657486162       -1.94919870257204
N          140.32706868565086        1.05412522111662       -1.04709035658229
C          138.80958633288296        2.50814827400082       -2.34798893047999
C          138.80254450226863        3.61128845153032       -3.35419872754042
C          138.78709787528587        3.30872861565783       -4.71867860411939
C          138.77021283747686        1.87277743972325       -5.17066526737614
C          138.78509357841625        4.34268074232161       -5.64784624128646
C          138.79713306946837        5.67168901408533       -5.23822268878900
C          138.81631208175006        6.78391323711555       -6.25167453771880
C          138.81129502528435        5.96100416817268       -3.87739684539448
C          138.81361076201466        4.94348065206016       -2.93076475722386
C          138.82626576844402        5.26500340789636       -1.46005080719478
C          137.57976474960469        2.03188348071189       -1.89870266316453
C          136.30538544366240        2.55930463727371       -2.35281940921717
C          135.34989769624886        1.85771535465844       -1.70798333982557
C          136.04286460365665        0.90383980353300       -0.86427360623012
N          137.37847554159444        1.03166138002536       -0.99697244308518
H          134.30210132471353       -2.02810574016754        1.73752780733629
H          136.21418191217961       -3.43474230636190        2.98185983315588
H          138.05722967403128       -0.59928933862378        0.45287967240806
H          137.97938054695663       -4.92723279583504        0.85095263103372
H          139.74320479072702       -4.90430108821281        0.83909278145432
H          138.88263877802498       -6.42245449425959        1.15010577817663
H          138.88666006224176       -7.09504795090303        3.39606737305836
H          138.52934305672935       -6.58147967357998        7.06215335245919
H          138.33639284295842       -7.75756488032867        5.74796825270789
H          139.95124213059447       -7.24577585509671        6.24832621984702
H          138.89742681789355       -4.23459757694191        6.57952170725859
H          137.98945692049082       -1.47172774500123        4.70308517826835
H          138.90296446340511       -1.93074298308364        6.15077691263423
H          139.75310233699275       -1.46022563062766        4.66821385401200
H          141.48834697902024       -3.42825061087307        2.97553764532035
H          143.39747015096023       -2.01230498083251        1.70066048497784
H          143.37341911818976        1.92731583549624       -1.86451277962089
H          141.46098520042182        3.32568080355253       -3.11745918622465
H          139.61910664874921        0.51842973866643       -0.55616448454969
H          138.74739092259540        1.80726214487870       -6.25800922221231
H          137.89360016147410        1.36009958332206       -4.77036131690093
H          139.65718566237572        1.35016722844292       -4.80735831723200
H          138.77232860991325        4.10717229681624       -6.70700891077912
H          138.38083983816026        6.45764094306563       -7.19628964861642
H          139.84600878106582        7.09609846439564       -6.44114067762469
H          138.26237723760912        7.64968904697755       -5.88763143176769
H          138.81902815007143        6.99515084502672       -3.54882128989340
H          139.72317793423946        4.85642724069489       -0.99042590900814
H          138.80697106520381        6.34211650341565       -1.29699960065433
H          137.95966242983999        4.82032345103315       -0.96741753994992
H          136.18725205985035        3.35779142005635       -3.06766392332536
H          134.27822316466853        1.95436488748539       -1.77855732475336
C          151.47446158943373       -0.06993483871438       -0.06739414221041
C          152.10797972036093       -0.99544154537528        0.78542614173080
C          151.47550483648521       -1.92980487709785        1.64580126388179
C          152.45440913129042       -2.63352977678322        2.29365959987293
C          153.71294322923652       -2.14723192479194        1.84588151987667
N          153.45248699391129       -1.15814816174508        0.93541386661164
C          154.97388215415680       -2.59171759548414        2.25440821179068
C          154.98524816950075       -3.69098478186153        3.26483265477260
C          154.98549148302681       -5.02442620322933        2.84479981749059
C          154.97727624543541       -5.34986572748573        1.37491992360883
C          154.99467542156691       -6.03936066288051        3.79399387595385
C          155.00260214274510       -5.74640347809565        5.15420670697011
C          155.03219950767314       -6.85697289386247        6.16921006639141
C          155.00348136995993       -4.41639338258509        5.56035506635478
C          154.99441346883580       -3.38479957206530        4.62844359025567
C          154.99490210917850       -1.94760150246261        5.07675694486042
C          156.20236179028677       -2.10833284953110        1.81023573025304
C          157.47789128499497       -2.61951885122068        2.27916520514747
C          158.43196124221160       -1.91598974349969        1.63425851638103
N          156.40203123008163       -1.11531059937485        0.89928090124252
C          157.73684150512133       -0.97841937854394        0.77430033964962
C          158.40438572862075       -0.06223362125549       -0.06536048323320
C          157.77078477363509        0.86444177534117       -0.91685678899939
C          158.40321400441357        1.80048364387664       -1.77547305500041
C          157.42427581191890        2.50329469850335       -2.42421001413012
C          156.16573429069132        2.01488215950489       -1.97867314884784
N          156.42630298564777        1.02573423973019       -1.06822099606693
C          154.90492112202620        2.45698056243997       -2.38992431925056
C          154.89484425612338        3.55426770355440       -3.40251304633967
C          154.89493494112293        3.24501726696294       -4.76554756400961
C          154.89978998783809        1.80680443647925       -5.21057288636713
C          154.88770515094603        4.27443825904373       -5.69972694553696
C          154.87937187952636        5.60545001084829       -5.29651550449839
C          154.89203527950320        6.71297155983787       -6.31520124357166
C          154.87897469587000        5.90141044509955       -3.93706021841689
C          154.88609563796135        4.88853815816231       -2.98549431082496
C          154.88249065327432        5.21732702805386       -1.51634382842141
C          153.67632574090371        1.97252663065299       -1.94702580062026
C          152.40082755456723        2.48083019565093       -2.41905713788175
C          151.44677770334226        1.77840826862605       -1.77287248844890
C          152.14189648015000        0.84407063162153       -0.90943281638819
N          153.47677473849180        0.98178143868663       -1.03367552170240
H          150.40827357303729       -2.04205162428601        1.74910323202871
H          152.32429352527535       -3.42071826898960        3.01854976765565
H          154.15910914582912       -0.62249883315795        0.44250065118176
H          154.08601557329945       -4.93579163804407        0.89951134278197
H          155.84982000477081       -4.91312073972590        0.88559187187285
H          154.98946587477730       -6.42752301326662        1.21486241760254
H          154.99443650081096       -7.07442435342164        3.46822388588246
H          154.64218216791471       -6.51823973712281        7.12913340494905
H          154.44201486620514       -7.70838423829318        5.82878018904066
H          156.05981052996938       -7.19621657277365        6.31906860114417
H          155.01006712516272       -4.17795053047468        6.61891357065168
H          154.10136950203216       -1.43651242389785        4.71306083904721
H          155.01798443596417       -1.87906759581105        6.16391055228252
H          155.86493997534751       -1.42557353052404        4.67423792201712
H          157.59785218681765       -3.40939259624678        3.00320445104421
H          159.50387765899438       -2.00249127474500        1.71371649513203
H          159.47043384531887        1.91424649718426       -1.87720596078888
H          157.55435531176073        3.29128136913978       -3.14824134492000
H          155.71972530652349        0.48879891986558       -0.57664210450687
H          154.88635304051829        1.73576897165074       -6.29772551472571
H          154.02665155547618        1.28493606354864       -4.81456974885337
H          155.79047405630766        1.29731831370365       -4.83781704791246
H          154.88664625588746        4.03375155281354       -6.75779961761919
H          154.46444299904311        6.37771637005979       -7.26027628810787
H          155.91935371706819        7.03483181626666       -6.50134362275987
H          154.32747819710343        7.57470669633347       -5.95796039341522
H          154.87107175893402        6.93711985661621       -3.61345448861001
H          155.77869046943712        4.81915354863378       -1.03655289543036
H          154.85198891614885        6.29500403888169       -1.35883384959191
H          154.01543284157540        4.76728307527571       -1.02940040129885
H          152.28087113546295        3.26813040267463       -3.14589488687540
H          150.37486267675931        1.86348652815313       -1.85386076505490
C          167.57646598011345       -0.06294907162026       -0.06627412532695
C          168.20975159342200       -0.98810131672849        0.78715806458777
C          167.57705829771518       -1.92168491889181        1.64821904239205
C          168.55580200309856       -2.62565229150978        2.29604475726883
C          169.81446588227124       -2.14025154520868        1.84762501836462
N          169.55421088233618       -1.15142548501407        0.93678953903816
C          171.07522965002002       -2.58526211846149        2.25609323156446
C          171.08575585857599       -3.68414403805428        3.26695779138603
C          171.08563739446916       -5.01774283612081        2.84745376345021
C          171.07864415910964       -5.34379013353903        1.37770297169374
C          171.09308156964477       -6.03231797714283        3.79706913889427
C          171.09960172625563       -5.73883990955725        5.15715967011111
C          171.12698476587337       -6.84890679168917        6.17277303071951
C          171.10107391079003       -4.40865062019878        5.56278602623030
C          171.09372797326915       -3.37742465981720        4.63046961745844
C          171.09441610410772       -1.94004827004156        5.07820793527120
C          172.30398147651852       -2.10269671295342        1.81170808448172
C          173.57924281554961       -2.61407123747772        2.28114137877765
C          174.53368491428208       -1.91125059489488        1.63599084969068
N          172.50415744598439       -1.11029698924549        0.90020069817719
C          173.83906249215150       -0.97400537731274        0.77529349229933
C          174.50701149687592       -0.05849547488561       -0.06477416805296
C          173.87368194600640        0.86790440020861       -0.91681593836541
C          174.50633745060605        1.80356758780270       -1.77565354628908
C          173.52756518897564        2.50629108602197       -2.42475801924380
C          172.26890975392232        2.01822327525379       -1.97919519000071
N          172.52922469389853        1.02931975349859       -1.06843534114965
C          171.00820442754721        2.46049427636233       -2.39071598615006
C          170.99831207716738        3.55783868010432       -3.40325077285034
C          170.99792957837587        3.24893436999466       -4.76635771757255
C          171.00286743560483        1.81084282782756       -5.21177842411095
C          170.98994338234820        4.27860772457856       -5.70025734677815
C          170.98134736707820        5.60951997633402       -5.29669987566179
C          170.99278059102105        6.71729074965457       -6.31512633864819
C          170.98177575599968        5.90512944063299       -3.93717281302944
C          170.98964905451851        4.89200851117276       -2.98588166631748
C          170.98689424520867        5.22040496663208       -1.51664216117750