      -----------------------------------------------------------      
     |                   =====================                   |     
     |                           x T B                           |     
     |                   =====================                   |     
     |                         S. Grimme                         |     
     |          Mulliken Center for Theoretical Chemistry        |     
     |                    University of Bonn                     |     
      -----------------------------------------------------------      

   * xtb version 6.5.1 (b24c23e) compiled by 'conda@728c89f4b128' on 2022-07-12

   xtb is free software: you can redistribute it and/or modify it under
   the terms of the GNU Lesser General Public License as published by
   the Free Software Foundation, either version 3 of the License, or
   (at your option) any later version.
   
   xtb is distributed in the hope that it will be useful,
   but WITHOUT ANY WARRANTY; without even the implied warranty of
   MERCHANTABILITY or FITNESS FOR A PARTICULAR PURPOSE.  See the
   GNU Lesser General Public License for more details.
   
   Cite this work as:
   * C. Bannwarth, E. Caldeweyher, S. Ehlert, A. Hansen, P. Pracht,
     J. Seibert, S. Spicher, S. Grimme, WIREs Comput. Mol. Sci., 2020, 11,
     e01493. DOI: 10.1002/wcms.1493
   
   for GFN2-xTB:
   * C. Bannwarth, S. Ehlert and S. Grimme., J. Chem. Theory Comput., 2019,
     15, 1652-1671. DOI: 10.1021/acs.jctc.8b01176
   for GFN1-xTB:
   * S. Grimme, C. Bannwarth, P. Shushkov, J. Chem. Theory Comput., 2017,
     13, 1989-2009. DOI: 10.1021/acs.jctc.7b00118
   for GFN0-xTB:
   * P. Pracht, E. Caldeweyher, S. Ehlert, S. Grimme, ChemRxiv, 2019, preprint.
     DOI: 10.26434/chemrxiv.8326202.v1
   for GFN-FF:
   * S. Spicher and S. Grimme, Angew. Chem. Int. Ed., 2020, 59, 15665-15673.
     DOI: 10.1002/anie.202004239
   
   for ALPB and GBSA implicit solvation:
   * S. Ehlert, M. Stahn, S. Spicher, S. Grimme, J. Chem. Theory Comput.,
     2021, 17, 4250-4261. DOI: 10.1021/acs.jctc.1c00471
   
   for DFT-D4:
   * E. Caldeweyher, C. Bannwarth and S. Grimme, J. Chem. Phys., 2017,
     147, 034112. DOI: 10.1063/1.4993215
   * E. Caldeweyher, S. Ehlert, A. Hansen, H. Neugebauer, S. Spicher,
     C. Bannwarth and S. Grimme, J. Chem. Phys., 2019, 150, 154122.
     DOI: 10.1063/1.5090222
   * E. Caldeweyher, J.-M. Mewes, S. Ehlert and S. Grimme, Phys. Chem. Chem. Phys.
     2020, 22, 8499-8512. DOI: 10.1039/D0CP00502A
   
   for sTDA-xTB:
   * S. Grimme and C. Bannwarth, J. Chem. Phys., 2016, 145, 054103.
     DOI: 10.1063/1.4959605
   
   in the mass-spec context:
   * V. Asgeirsson, C. Bauer and S. Grimme, Chem. Sci., 2017, 8, 4879.
     DOI: 10.1039/c7sc00601b
   * J. Koopman and S. Grimme, ACS Omega 2019, 4, 12, 15120-15133.
     DOI: 10.1021/acsomega.9b02011
   
   for metadynamics refer to:
   * S. Grimme, J. Chem. Theory Comput., 2019, 155, 2847-2862
     DOI: 10.1021/acs.jctc.9b00143
   
   for SPH calculations refer to:
   * S. Spicher and S. Grimme, J. Chem. Theory Comput., 2021, 17, 1701-1714
     DOI: 10.1021/acs.jctc.0c01306
   
   with help from (in alphabetical order)
   P. Atkinson, C. Bannwarth, F. Bohle, G. Brandenburg, E. Caldeweyher
   M. Checinski, S. Dohm, S. Ehlert, S. Ehrlich, I. Gerasimov, C. Hölzer
   A. Katbashev, J. Koopman, C. Lavigne, S. Lehtola, F. März, M. Müller,
   F. Musil, H. Neugebauer, J. Pisarek, C. Plett, P. Pracht, F. Pultar,
   J. Seibert, P. Shushkov, S. Spicher, M. Stahn, M. Steiner, T. Strunk,
   J. Stückrath, T. Rose, and J. Unsleber
   
 * started run on 2022/07/31 at 02:55:16.624     

           -------------------------------------------------
          |                Calculation Setup                |
           -------------------------------------------------

          program call               : xtb xtbopt.xyz --gfn 1 --vipea
          hostname                   : cx3-15-11.cx3.hpc.ic.ac.uk
          coordinate file            : xtbopt.xyz
          omp threads                :                     1

   ID    Z sym.   atoms
    1    6 C      1-5, 7-10, 12-20, 22-26, 28-32, 35, 36, 38-42, 44, 74-78,
                  80-83, 85-93, 95-99, 101-105, 108, 109, 111-115, 117,
                  147-191, 193-196, 198-206, 208-212, 214-218, 221, 222,
                  224-228, 230, 259-263, 265-268, 270-278, 280-284, 286-290,
                  293, 294, 296-300, 302, 331-335, 337-340, 342-350, 352-356,
                  358-362, 365, 366, 368-372, 374, 403-407, 409-412, 414-422,
                  424-428, 430-434, 437, 438, 440-444, 446
    2    7 N      6, 11, 33, 34, 79, 84, 106, 107, 192, 197, 219, 220, 264,
                  269, 291, 292, 336, 341, 363, 364, 408, 413, 435, 436
    3    8 O      21, 27, 37, 43, 94, 100, 110, 116, 207, 213, 223, 229, 279,
                  285, 295, 301, 351, 357, 367, 373, 423, 429, 439, 445
    4    1 H      45-73, 118-146, 231-258, 303-330, 375-402, 447-474

           -------------------------------------------------
          |                 I P E A - x T B                 |
           -------------------------------------------------

        Reference                      10.1039/c7sc00601b
      * Hamiltonian:
        H0-scaling (s, p, d)           2.150000    2.300000    2.000000
        zeta-weighting                 0.000000
      * Dispersion:
        s8                             2.400000
        a1                             0.630000
        a2                             5.000000
        s9                             0.000000
      * Repulsion:
        kExp                           1.500000
        rExp                           1.000000
      * Coulomb:
        alpha                          1.000000
        third order                    atomic
        anisotropic                    false
      * Halogen bond correction:
        rad-scale                      1.300000
        damping                        0.440000


          ...................................................
          :                      SETUP                      :
          :.................................................:
          :  # basis functions                1860          :
          :  # atomic orbitals                1860          :
          :  # shells                         1252          :
          :  # electrons                      1458          :
          :  # halogen bonds                     0          :
          :  max. iterations                   250          :
          :  Hamiltonian                  GFN1-xTB          :
          :  restarted?                      false          :
          :  GBSA solvation                  false          :
          :  PC potential                    false          :
          :  electronic temp.          300.0000000     K    :
          :  accuracy                    1.0000000          :
          :  -> integral cutoff          0.2500000E+02      :
          :  -> integral neglect         0.1000000E-07      :
          :  -> SCF convergence          0.1000000E-05 Eh   :
          :  -> wf. convergence          0.2000000E-04 e    :
          :  Broyden damping             0.4000000          :
          ...................................................

 iter      E             dE          RMSdq      gap      omega  full diag
   1   -930.4463709 -0.930446E+03  0.976E+00    0.69       0.0  T
   2   -932.2163064 -0.176994E+01  0.605E+00    1.16       1.0  T
   3   -918.6157563  0.136006E+02  0.444E+00    0.31       1.0  T
   4   -933.7913698 -0.151756E+02  0.108E+00    1.18       1.0  T
   5   -935.0663313 -0.127496E+01  0.307E-01    0.98       1.0  T
   6   -935.1636905 -0.973592E-01  0.107E-01    1.00       1.0  T
   7   -935.1715881 -0.789757E-02  0.529E-02    1.00       1.0  T
   8   -935.1733823 -0.179420E-02  0.306E-02    0.99       1.0  T
   9   -935.1737384 -0.356107E-03  0.208E-02    0.99       1.0  T
  10   -935.1739999 -0.261506E-03  0.823E-03    0.99       1.0  T
  11   -935.1740456 -0.457300E-04  0.331E-03    0.99       1.4  T
  12   -935.1740543 -0.869794E-05  0.107E-03    0.99       4.3  T
  13   -935.1740554 -0.113567E-05  0.400E-04    0.99      11.5  T
  14   -935.1740556 -0.154484E-06  0.160E-04    0.99      28.8  T
  15   -935.1740556 -0.166011E-07  0.882E-05    0.99      52.1  T

   *** convergence criteria satisfied after 15 iterations ***

         #    Occupation            Energy/Eh            Energy/eV
      -------------------------------------------------------------
         1        2.0000           -1.0548599             -28.7042
       ...           ...                  ...                  ...
       723        2.0000           -0.3905355             -10.6270
       724        2.0000           -0.3780664             -10.2877
       725        2.0000           -0.3739683             -10.1762
       726        2.0000           -0.3728277             -10.1452
       727        2.0000           -0.3711172             -10.0986
       728        2.0000           -0.3662025              -9.9649
       729        2.0000           -0.3620931              -9.8531 (HOMO)
       730                         -0.3256047              -8.8602 (LUMO)
       731                         -0.3210708              -8.7368
       732                         -0.3157139              -8.5910
       733                         -0.3132936              -8.5252
       734                         -0.3122576              -8.4970
       ...                                ...                  ...
      1860                        561.9346328           15291.0197
      -------------------------------------------------------------
                  HL-Gap            0.0364884 Eh            0.9929 eV
             Fermi-level           -0.3438466 Eh           -9.3565 eV

 SCC (total)                   0 d,  0 h,  0 min, 38.200 sec
 SCC setup                      ...        0 min,  0.029 sec (  0.076%)
 Dispersion                     ...        0 min,  0.031 sec (  0.081%)
 classical contributions        ...        0 min,  0.008 sec (  0.020%)
 integral evaluation            ...        0 min,  1.790 sec (  4.685%)
 iterations                     ...        0 min, 32.811 sec ( 85.895%)
 molecular gradient             ...        0 min,  3.142 sec (  8.224%)
 printout                       ...        0 min,  0.389 sec (  1.019%)

         :::::::::::::::::::::::::::::::::::::::::::::::::::::
         ::                     SUMMARY                     ::
         :::::::::::::::::::::::::::::::::::::::::::::::::::::
         :: total energy            -917.483400176391 Eh    ::
         :: gradient norm              0.107161409464 Eh/a0 ::
         :: HOMO-LUMO gap              0.992899030379 eV    ::
         ::.................................................::
         :: SCC energy              -935.174055619889 Eh    ::
         :: -> electrostatic           0.566825168802 Eh    ::
         :: repulsion energy          18.096889931589 Eh    ::
         :: dispersion energy         -0.406234488091 Eh    ::
         :: halogen bond corr.         0.000000000000 Eh    ::
         :: add. restraining           0.000000000000 Eh    ::
         :: total charge               0.000000000044 e     ::
         :::::::::::::::::::::::::::::::::::::::::::::::::::::

           ------------------------------------------------- 
          |        vertical delta SCC IP calculation        |
           ------------------------------------------------- 
   1   -934.7880278 -0.934788E+03  0.545E-02    0.99       0.0  T
   2   -934.7751841  0.128437E-01  0.861E-02    0.90       1.0  T
   3   -934.7926091 -0.174250E-01  0.362E-02    0.98       1.0  T
   4   -934.7942669 -0.165779E-02  0.219E-02    0.99       1.0  T
   5   -934.7940703  0.196635E-03  0.184E-02    0.98       1.0  T
   6   -934.7926625  0.140775E-02  0.246E-02    0.98       1.0  T
   7   -934.7948348 -0.217229E-02  0.100E-02    0.99       1.0  T
   8   -934.7949351 -0.100257E-03  0.605E-03    0.99       1.0  T
   9   -934.7950266 -0.915318E-04  0.269E-03    0.99       1.7  T
  10   -934.7950413 -0.146589E-04  0.975E-04    0.99       4.7  T
  11   -934.7950424 -0.117536E-05  0.564E-04    0.99       8.1  T
  12   -934.7950428 -0.351685E-06  0.355E-04    0.99      12.9  T
  13   -934.7950429 -0.140972E-06  0.109E-04    0.99      42.2  T
  14   -934.7950429 -0.181000E-07  0.605E-05    0.99      75.9  T
     SCC iter.                  ...        0 min, 30.424 sec
     gradient                   ...        0 min,  3.151 sec
------------------------------------------------------------------------
empirical IP shift (eV):    4.8455
delta SCC IP (eV):    5.4680
------------------------------------------------------------------------
           ------------------------------------------------- 
          |        vertical delta SCC EA calculation        |
           ------------------------------------------------- 
   1   -935.4650388 -0.935465E+03  0.898E-02    0.15       0.0  T
   2   -935.4704610 -0.542226E-02  0.828E-02    0.03       1.0  T
   3   -935.4798348 -0.937380E-02  0.452E-02    0.09       1.0  T
   4   -935.4799417 -0.106832E-03  0.401E-02    0.04       1.0  T
   5   -935.4814568 -0.151511E-02  0.238E-02    0.08       1.0  T
   6   -935.4816628 -0.205991E-03  0.183E-02    0.05       1.0  T
   7   -935.4819105 -0.247691E-03  0.124E-02    0.07       1.0  T
   8   -935.4821847 -0.274194E-03  0.610E-03    0.07       1.0  T
   9   -935.4821153  0.693563E-04  0.630E-03    0.06       1.0  T
  10   -935.4822881 -0.172853E-03  0.208E-03    0.06       2.2  T
  11   -935.4823009 -0.127893E-04  0.760E-04    0.06       6.0  T
  12   -935.4823015 -0.600810E-06  0.539E-04    0.06       8.5  T
  13   -935.4823020 -0.432894E-06  0.171E-04    0.06      26.9  T
  14   -935.4823020 -0.286701E-07  0.559E-05    0.06      82.1  T
     SCC iter.                  ...        0 min, 30.474 sec
     gradient                   ...        0 min,  3.174 sec
------------------------------------------------------------------------
empirical EA shift (eV):    4.8455
delta SCC EA (eV):    3.5423
------------------------------------------------------------------------
           -------------------------------------------------
          |                Property Printout                |
           -------------------------------------------------

    * Orbital Energies and Occupations

         #    Occupation            Energy/Eh            Energy/eV
      -------------------------------------------------------------
         1        2.0000           -1.0326214             -28.0991
       ...           ...                  ...                  ...
       718        2.0000           -0.3631618              -9.8821
       719        2.0000           -0.3621814              -9.8555
       720        2.0000           -0.3590299              -9.7697
       721        2.0000           -0.3585918              -9.7578
       722        2.0000           -0.3564178              -9.6986
       723        2.0000           -0.3563690              -9.6973
       724        2.0000           -0.3475048              -9.4561
       725        2.0000           -0.3472613              -9.4495
       726        2.0000           -0.3438632              -9.3570
       727        2.0000           -0.3392186              -9.2306
       728        2.0000           -0.3333677              -9.0714
       729        2.0000           -0.3279667              -8.9244
       730        0.7448           -0.2916750              -7.9369 (HOMO)
       731        0.1958           -0.2893154              -7.8727 (LUMO)
       732        0.0507           -0.2878738              -7.8334
       733        0.0085           -0.2861406              -7.7863
       734        0.0001           -0.2814672              -7.6591
       735        0.0000           -0.2811949              -7.6517
       736        0.0000           -0.2807308              -7.6391
       737                         -0.2751116              -7.4862
       738                         -0.2731128              -7.4318
       739                         -0.2725611              -7.4168
       740                         -0.2705061              -7.3608
       741                         -0.2702651              -7.3543
       ...                                ...                  ...
      1860                        561.9664315           15291.8850
      -------------------------------------------------------------
                  HL-Gap            0.0023596 Eh            0.0642 eV
             Fermi-level           -0.3002620 Eh           -8.1705 eV

  Mulliken/CM5 charges         n(s)   n(p)   n(d)
     1C    -0.02291 -0.06367   1.090  2.933  0.000
     2C     0.06199  0.12243   1.108  2.830  0.000
     3C    -0.03443 -0.07969   1.083  2.951  0.000
     4C    -0.03070 -0.07528   1.077  2.954  0.000
     5C     0.06484  0.12856   1.101  2.834  0.000
     6N    -0.15670 -0.51037   1.306  3.851  0.000
     7C     0.01859  0.02527   1.087  2.895  0.000
     8C     0.06189  0.12925   1.114  2.824  0.000
     9C    -0.03557 -0.08168   1.084  2.951  0.000
    10C    -0.03722 -0.08271   1.092  2.945  0.000
    11N    -0.28115 -0.46845   1.280  4.001  0.000
    12C     0.06493  0.13576   1.131  2.804  0.000
    13C     0.01635  0.02363   1.084  2.899  0.000
    14C     0.06697  0.13187   1.112  2.821  0.000
    15C    -0.03242 -0.07685   1.082  2.950  0.000
    16C    -0.03005 -0.07471   1.076  2.954  0.000
    17C     0.06418  0.12700   1.099  2.837  0.000
    18C     0.01797  0.02478   1.086  2.896  0.000
    19C    -0.00962 -0.00846   1.051  2.959  0.000
    20C     0.09558  0.11483   1.107  2.798  0.000
    21O    -0.23884 -0.32824   1.604  4.635  0.000
    22C     0.03532 -0.08449   1.107  2.858  0.000
    23C    -0.04301 -0.09323   1.078  2.965  0.000
    24C    -0.03131 -0.08668   1.088  2.943  0.000
    25C    -0.04606 -0.09808   1.047  2.999  0.000
    26C     0.09452  0.11366   1.108  2.797  0.000
    27O    -0.23198 -0.32139   1.612  4.620  0.000
    28C     0.03415 -0.08664   1.108  2.858  0.000
    29C     0.06344  0.13252   1.117  2.820  0.000
    30C    -0.03572 -0.08155   1.085  2.950  0.000
    31C    -0.03899 -0.08535   1.093  2.946  0.000
    32C     0.05913  0.12483   1.127  2.814  0.000
    33N    -0.28372 -0.47131   1.281  4.003  0.000
    34N    -0.15456 -0.50757   1.307  3.847  0.000
    35C    -0.01043 -0.00929   1.049  2.961  0.000
    36C     0.09645  0.11591   1.107  2.797  0.000
    37O    -0.23626 -0.32592   1.605  4.631  0.000
    38C     0.03541 -0.08436   1.106  2.859  0.000
    39C    -0.04374 -0.09391   1.078  2.966  0.000
    40C    -0.03151 -0.08689   1.088  2.944  0.000
    41C    -0.04678 -0.09880   1.046  3.000  0.000
    42C     0.09426  0.11343   1.108  2.798  0.000
    43O    -0.23230 -0.32155   1.612  4.620  0.000
    44C     0.03410 -0.08667   1.108  2.858  0.000
    45H     0.02951  0.08843   0.970  0.000  0.000
    46H     0.03942  0.09608   0.961  0.000  0.000
    47H     0.03278  0.09159   0.967  0.000  0.000
    48H     0.16367  0.37200   0.836  0.000  0.000
    49H     0.02396  0.08273   0.976  0.000  0.000
    50H     0.02529  0.08327   0.975  0.000  0.000
    51H     0.03537  0.09339   0.965  0.000  0.000
    52H     0.03332  0.09227   0.967  0.000  0.000
    53H     0.02675  0.08903   0.973  0.000  0.000
    54H     0.04372  0.10386   0.956  0.000  0.000
    55H     0.02897  0.09089   0.971  0.000  0.000
    56H     0.03482  0.09475   0.965  0.000  0.000
    57H     0.03285  0.08886   0.967  0.000  0.000
    58H     0.03469  0.09427   0.965  0.000  0.000
    59H     0.04573  0.10602   0.954  0.000  0.000
    60H     0.03506  0.09398   0.965  0.000  0.000
    61H     0.03604  0.09489   0.964  0.000  0.000
    62H     0.02346  0.08245   0.977  0.000  0.000
    63H     0.02951  0.08591   0.970  0.000  0.000
    64H     0.16244  0.37075   0.838  0.000  0.000
    65H     0.03000  0.09223   0.970  0.000  0.000
    66H     0.04443  0.10469   0.956  0.000  0.000
    67H     0.02692  0.08918   0.973  0.000  0.000
    68H     0.03449  0.09455   0.966  0.000  0.000
    69H     0.03261  0.08863   0.967  0.000  0.000
    70H     0.03447  0.09405   0.966  0.000  0.000
    71H     0.03480  0.09366   0.965  0.000  0.000
    72H     0.04597  0.10625   0.954  0.000  0.000
    73H     0.03628  0.09519   0.964  0.000  0.000
    74C    -0.02308 -0.06384   1.090  2.934  0.000
    75C     0.06197  0.12241   1.108  2.830  0.000
    76C    -0.03450 -0.07976   1.083  2.951  0.000
    77C    -0.03071 -0.07529   1.077  2.954  0.000
    78C     0.06474  0.12843   1.101  2.834  0.000
    79N    -0.15677 -0.51048   1.306  3.851  0.000
    80C     0.01866  0.02534   1.087  2.895  0.000
    81C     0.06182  0.12919   1.114  2.825  0.000
    82C    -0.03557 -0.08165   1.084  2.951  0.000
    83C    -0.03727 -0.08275   1.092  2.945  0.000
    84N    -0.28114 -0.46845   1.280  4.001  0.000
    85C     0.06494  0.13578   1.131  2.804  0.000
    86C     0.01631  0.02359   1.084  2.899  0.000
    87C     0.06679  0.13169   1.112  2.821  0.000
    88C    -0.03257 -0.07700   1.082  2.951  0.000
    89C    -0.03024 -0.07491   1.076  2.954  0.000
    90C     0.06403  0.12681   1.099  2.837  0.000
    91C     0.01777  0.02457   1.086  2.896  0.000
    92C    -0.00967 -0.00851   1.051  2.959  0.000
    93C     0.09561  0.11487   1.107  2.797  0.000
    94O    -0.23865 -0.32809   1.604  4.634  0.000
    95C     0.03534 -0.08447   1.106  2.858  0.000
    96C    -0.04313 -0.09335   1.078  2.965  0.000
    97C    -0.03140 -0.08678   1.088  2.943  0.000
    98C    -0.04620 -0.09822   1.047  2.999  0.000
    99C     0.09450  0.11363   1.108  2.797  0.000
   100O    -0.23194 -0.32142   1.612  4.620  0.000
   101C     0.03417 -0.08661   1.108  2.858  0.000
   102C     0.06335  0.13246   1.117  2.820  0.000
   103C    -0.03576 -0.08155   1.085  2.951  0.000
   104C    -0.03907 -0.08542   1.094  2.946  0.000
   105C     0.05907  0.12477   1.127  2.814  0.000
   106N    -0.28393 -0.47148   1.281  4.003  0.000
   107N    -0.15459 -0.50761   1.307  3.847  0.000
   108C    -0.01039 -0.00925   1.049  2.961  0.000
   109C     0.09644  0.11590   1.107  2.797  0.000
   110O    -0.23632 -0.32594   1.605  4.631  0.000
   111C     0.03544 -0.08432   1.106  2.859  0.000
   112C    -0.04369 -0.09385   1.078  2.966  0.000
   113C    -0.03148 -0.08686   1.088  2.943  0.000
   114C    -0.04674 -0.09876   1.046  3.000  0.000
   115C     0.09427  0.11344   1.108  2.798  0.000
   116O    -0.23234 -0.32161   1.612  4.620  0.000
   117C     0.03411 -0.08665   1.108  2.858  0.000
   118H     0.02936  0.08827   0.971  0.000  0.000
   119H     0.03931  0.09596   0.961  0.000  0.000
   120H     0.03270  0.09149   0.967  0.000  0.000
   121H     0.16363  0.37198   0.836  0.000  0.000
   122H     0.02400  0.08279   0.976  0.000  0.000
   123H     0.02532  0.08334   0.975  0.000  0.000
   124H     0.03511  0.09311   0.965  0.000  0.000
   125H     0.03305  0.09203   0.967  0.000  0.000
   126H     0.02692  0.08919   0.973  0.000  0.000
   127H     0.04379  0.10392   0.956  0.000  0.000
   128H     0.02901  0.09091   0.971  0.000  0.000
   129H     0.03469  0.09463   0.965  0.000  0.000
   130H     0.03266  0.08868   0.967  0.000  0.000
   131H     0.03450  0.09409   0.965  0.000  0.000
   132H     0.04562  0.10592   0.954  0.000  0.000
   133H     0.03498  0.09390   0.965  0.000  0.000
   134H     0.03584  0.09469   0.964  0.000  0.000
   135H     0.02334  0.08237   0.977  0.000  0.000
   136H     0.02941  0.08581   0.971  0.000  0.000
   137H     0.16241  0.37072   0.838  0.000  0.000
   138H     0.03006  0.09221   0.970  0.000  0.000
   139H     0.04446  0.10472   0.956  0.000  0.000
   140H     0.02685  0.08912   0.973  0.000  0.000
   141H     0.03453  0.09459   0.965  0.000  0.000
   142H     0.03261  0.08863   0.967  0.000  0.000
   143H     0.03445  0.09403   0.966  0.000  0.000
   144H     0.03472  0.09355   0.965  0.000  0.000
   145H     0.04585  0.10614   0.954  0.000  0.000
   146H     0.03629  0.09523   0.964  0.000  0.000
   147C    -0.01710 -0.01865   1.092  2.925  0.000
   148C    -0.01876 -0.01948   1.061  2.957  0.000
   149C    -0.01535 -0.01544   1.076  2.940  0.000
   150C    -0.01403 -0.01404   1.077  2.937  0.000
   151C    -0.01700 -0.01700   1.075  2.942  0.000
   152C    -0.01226 -0.01234   1.078  2.934  0.000
   153C    -0.02157 -0.02228   1.059  2.962  0.000
   154C    -0.01374 -0.01527   1.096  2.918  0.000
   155C    -0.01641 -0.01794   1.092  2.924  0.000
   156C    -0.02023 -0.02094   1.061  2.960  0.000
   157C    -0.01544 -0.01553   1.076  2.939  0.000
   158C    -0.01619 -0.01619   1.076  2.940  0.000
   159C    -0.01718 -0.01719   1.076  2.942  0.000
   160C    -0.01456 -0.01465   1.077  2.937  0.000
   161C    -0.02143 -0.02213   1.060  2.961  0.000
   162C    -0.01577 -0.01729   1.094  2.922  0.000
   163C    -0.01590 -0.01742   1.093  2.923  0.000
   164C    -0.02090 -0.02160   1.060  2.961  0.000
   165C    -0.01495 -0.01504   1.077  2.938  0.000
   166C    -0.01678 -0.01678   1.076  2.941  0.000
   167C    -0.01674 -0.01675   1.076  2.941  0.000
   168C    -0.01509 -0.01518   1.077  2.938  0.000
   169C    -0.02102 -0.02172   1.060  2.961  0.000
   170C    -0.01623 -0.01774   1.093  2.923  0.000
   171C    -0.01552 -0.01704   1.094  2.922  0.000
   172C    -0.02119 -0.02190   1.060  2.961  0.000
   173C    -0.01450 -0.01459   1.077  2.937  0.000
   174C    -0.01709 -0.01710   1.076  2.941  0.000
   175C    -0.01626 -0.01627   1.076  2.940  0.000
   176C    -0.01545 -0.01554   1.076  2.939  0.000
   177C    -0.02050 -0.02121   1.061  2.960  0.000
   178C    -0.01662 -0.01815   1.093  2.924  0.000
   179C    -0.01374 -0.01527   1.096  2.918  0.000
   180C    -0.02151 -0.02221   1.059  2.962  0.000
   181C    -0.01240 -0.01249   1.078  2.934  0.000
   182C    -0.01709 -0.01710   1.075  2.942  0.000
   183C    -0.01419 -0.01420   1.077  2.937  0.000
   184C    -0.01552 -0.01561   1.075  2.940  0.000
   185C    -0.01887 -0.01959   1.061  2.957  0.000
   186C    -0.01729 -0.01884   1.092  2.926  0.000
   187C     0.01353  0.02084   1.082  2.905  0.000
   188C     0.06656  0.13156   1.111  2.822  0.000
   189C    -0.03502 -0.07940   1.079  2.956  0.000
   190C    -0.03083 -0.07499   1.077  2.954  0.000
   191C     0.06341  0.12779   1.102  2.834  0.000
   192N    -0.15509 -0.50757   1.312  3.843  0.000
   193C     0.01961  0.02854   1.097  2.883  0.000
   194C     0.06110  0.12993   1.120  2.818  0.000
   195C    -0.03580 -0.08101   1.087  2.949  0.000
   196C    -0.03875 -0.08414   1.091  2.948  0.000
   197N    -0.28327 -0.46952   1.292  3.991  0.000
   198C     0.06498  0.13592   1.131  2.804  0.000
   199C     0.01598  0.02327   1.084  2.900  0.000
   200C     0.06656  0.13153   1.111  2.822  0.000
   201C    -0.03400 -0.07843   1.081  2.953  0.000
   202C    -0.03105 -0.07569   1.076  2.955  0.000
   203C     0.06283  0.12571   1.096  2.841  0.000
   204C     0.02016  0.02683   1.087  2.893  0.000
   205C    -0.00919 -0.00810   1.051  2.958  0.000
   206C     0.09477  0.11389   1.108  2.797  0.000
   207O    -0.23163 -0.32104   1.612  4.620  0.000
   208C     0.03444 -0.08633   1.108  2.857  0.000
   209C    -0.04629 -0.09831   1.047  3.000  0.000
   210C    -0.03159 -0.08697   1.088  2.944  0.000
   211C    -0.04330 -0.09351   1.078  2.965  0.000
   212C     0.09595  0.11523   1.107  2.797  0.000
   213O    -0.23853 -0.32800   1.604  4.634  0.000
   214C     0.03568 -0.08414   1.106  2.858  0.000
   215C     0.06109  0.12881   1.112  2.827  0.000
   216C    -0.03592 -0.08178   1.084  2.952  0.000
   217C    -0.03886 -0.08431   1.091  2.948  0.000
   218C     0.06434  0.13521   1.131  2.805  0.000
   219N    -0.28127 -0.46820   1.280  4.001  0.000
   220N    -0.15347 -0.50672   1.307  3.847  0.000
   221C    -0.00810 -0.00568   1.068  2.940  0.000
   222C     0.09562  0.11468   1.104  2.800  0.000
   223O    -0.23081 -0.32068   1.610  4.621  0.000
   224C     0.03460 -0.08624   1.108  2.858  0.000
   225C    -0.04642 -0.09850   1.048  2.998  0.000
   226C    -0.03214 -0.08768   1.089  2.943  0.000
   227C    -0.04607 -0.09815   1.048  2.998  0.000
   228C     0.09650  0.11557   1.106  2.798  0.000
   229O    -0.22951 -0.31948   1.611  4.619  0.000
   230C     0.03485 -0.08599   1.108  2.857  0.000
   231H     0.03315  0.09117   0.967  0.000  0.000
   232H     0.03124  0.09129   0.969  0.000  0.000
   233H     0.16347  0.37157   0.837  0.000  0.000
   234H     0.02216  0.08222   0.978  0.000  0.000
   235H     0.02391  0.08189   0.976  0.000  0.000
   236H     0.03366  0.09165   0.966  0.000  0.000
   237H     0.03165  0.09065   0.968  0.000  0.000
   238H     0.04558  0.10587   0.954  0.000  0.000
   239H     0.03506  0.09390   0.965  0.000  0.000
   240H     0.03503  0.09396   0.965  0.000  0.000
   241H     0.03393  0.09351   0.966  0.000  0.000
   242H     0.03186  0.08788   0.968  0.000  0.000
   243H     0.03393  0.09389   0.966  0.000  0.000
   244H     0.04332  0.10349   0.957  0.000  0.000
   245H     0.02910  0.09103   0.971  0.000  0.000
   246H     0.02662  0.08895   0.973  0.000  0.000
   247H     0.02241  0.08149   0.978  0.000  0.000
   248H     0.02303  0.08098   0.977  0.000  0.000
   249H     0.16394  0.37197   0.836  0.000  0.000
   250H     0.03581  0.09472   0.964  0.000  0.000
   251H     0.03560  0.09446   0.964  0.000  0.000
   252H     0.04729  0.10758   0.953  0.000  0.000
   253H     0.03276  0.09230   0.967  0.000  0.000
   254H     0.03087  0.08688   0.969  0.000  0.000
   255H     0.03314  0.09268   0.967  0.000  0.000
   256H     0.03615  0.09509   0.964  0.000  0.000
   257H     0.04674  0.10705   0.953  0.000  0.000
   258H     0.03477  0.09362   0.965  0.000  0.000
   259C     0.01435  0.02166   1.083  2.903  0.000
   260C     0.06641  0.13142   1.111  2.823  0.000
   261C    -0.03505 -0.07943   1.079  2.956  0.000
   262C    -0.03119 -0.07535   1.077  2.954  0.000
   263C     0.06315  0.12751   1.102  2.835  0.000
   264N    -0.15489 -0.50735   1.313  3.842  0.000
   265C     0.01946  0.02838   1.097  2.883  0.000
   266C     0.06088  0.12969   1.120  2.819  0.000
   267C    -0.03591 -0.08112   1.087  2.949  0.000
   268C    -0.03905 -0.08444   1.091  2.948  0.000
   269N    -0.28368 -0.46992   1.292  3.992  0.000
   270C     0.06482  0.13576   1.131  2.804  0.000
   271C     0.01506  0.02236   1.083  2.902  0.000
   272C     0.06647  0.13146   1.111  2.822  0.000
   273C    -0.03448 -0.07890   1.080  2.954  0.000
   274C    -0.03125 -0.07587   1.076  2.956  0.000
   275C     0.06248  0.12546   1.096  2.841  0.000
   276C     0.02065  0.02727   1.088  2.892  0.000
   277C    -0.00953 -0.00845   1.050  2.960  0.000
   278C     0.09466  0.11381   1.108  2.798  0.000
   279O    -0.23176 -0.32107   1.612  4.620  0.000
   280C     0.03445 -0.08631   1.108  2.857  0.000
   281C    -0.04666 -0.09868   1.046  3.000  0.000
   282C    -0.03172 -0.08710   1.088  2.944  0.000
   283C    -0.04367 -0.09386   1.078  2.966  0.000
   284C     0.09644  0.11584   1.107  2.797  0.000
   285O    -0.23710 -0.32668   1.605  4.632  0.000
   286C     0.03575 -0.08405   1.105  2.859  0.000
   287C     0.06058  0.12806   1.111  2.828  0.000
   288C    -0.03625 -0.08221   1.084  2.952  0.000
   289C    -0.03890 -0.08436   1.091  2.948  0.000
   290C     0.06438  0.13532   1.131  2.805  0.000
   291N    -0.28089 -0.46783   1.280  4.000  0.000
   292N    -0.15366 -0.50684   1.307  3.847  0.000
   293C    -0.00801 -0.00558   1.068  2.940  0.000
   294C     0.09563  0.11468   1.105  2.800  0.000
   295O    -0.23069 -0.32056   1.610  4.620  0.000
   296C     0.03467 -0.08617   1.108  2.858  0.000
   297C    -0.04647 -0.09855   1.048  2.998  0.000
   298C    -0.03229 -0.08782   1.089  2.943  0.000
   299C    -0.04617 -0.09825   1.048  2.998  0.000
   300C     0.09650  0.11557   1.106  2.798  0.000
   301O    -0.22947 -0.31945   1.611  4.619  0.000
   302C     0.03490 -0.08593   1.108  2.857  0.000
   303H     0.03316  0.09118   0.967  0.000  0.000
   304H     0.03095  0.09104   0.969  0.000  0.000
   305H     0.16329  0.37137   0.837  0.000  0.000
   306H     0.02174  0.08178   0.978  0.000  0.000
   307H     0.02338  0.08134   0.977  0.000  0.000
   308H     0.03325  0.09125   0.967  0.000  0.000
   309H     0.03152  0.09045   0.968  0.000  0.000
   310H     0.04556  0.10586   0.954  0.000  0.000
   311H     0.03482  0.09366   0.965  0.000  0.000
   312H     0.03504  0.09397   0.965  0.000  0.000
   313H     0.03371  0.09328   0.966  0.000  0.000
   314H     0.03159  0.08761   0.968  0.000  0.000
   315H     0.03365  0.09367   0.966  0.000  0.000
   316H     0.04360  0.10383   0.956  0.000  0.000
   317H     0.02913  0.09117   0.971  0.000  0.000
   318H     0.02699  0.08927   0.973  0.000  0.000
   319H     0.02223  0.08114   0.978  0.000  0.000
   320H     0.02305  0.08098   0.977  0.000  0.000
   321H     0.16394  0.37197   0.836  0.000  0.000
   322H     0.03553  0.09443   0.964  0.000  0.000
   323H     0.03565  0.09453   0.964  0.000  0.000
   324H     0.04732  0.10761   0.953  0.000  0.000
   325H     0.03256  0.09210   0.967  0.000  0.000
   326H     0.03055  0.08657   0.969  0.000  0.000
   327H     0.03286  0.09240   0.967  0.000  0.000
   328H     0.03586  0.09480   0.964  0.000  0.000
   329H     0.04660  0.10691   0.953  0.000  0.000
   330H     0.03465  0.09349   0.965  0.000  0.000
   331C     0.01480  0.02211   1.083  2.902  0.000
   332C     0.06643  0.13144   1.111  2.823  0.000
   333C    -0.03485 -0.07923   1.080  2.955  0.000
   334C    -0.03117 -0.07533   1.077  2.954  0.000
   335C     0.06327  0.12766   1.102  2.835  0.000
   336N    -0.15477 -0.50725   1.313  3.842  0.000
   337C     0.01947  0.02839   1.097  2.884  0.000
   338C     0.06082  0.12960   1.120  2.819  0.000
   339C    -0.03598 -0.08120   1.087  2.949  0.000
   340C    -0.03919 -0.08458   1.091  2.948  0.000
   341N    -0.28386 -0.47007   1.292  3.992  0.000
   342C     0.06479  0.13575   1.131  2.804  0.000
   343C     0.01470  0.02200   1.082  2.903  0.000
   344C     0.06639  0.13138   1.111  2.822  0.000
   345C    -0.03466 -0.07908   1.080  2.954  0.000
   346C    -0.03135 -0.07595   1.075  2.956  0.000
   347C     0.06242  0.12543   1.096  2.841  0.000
   348C     0.02062  0.02721   1.088  2.892  0.000
   349C    -0.00983 -0.00875   1.049  2.961  0.000
   350C     0.09452  0.11365   1.108  2.798  0.000
   351O    -0.23193 -0.32121   1.612  4.620  0.000
   352C     0.03442 -0.08636   1.108  2.857  0.000
   353C    -0.04694 -0.09897   1.046  3.001  0.000
   354C    -0.03176 -0.08714   1.088  2.944  0.000
   355C    -0.04389 -0.09405   1.078  2.966  0.000
   356C     0.09688  0.11637   1.107  2.796  0.000
   357O    -0.23608 -0.32576   1.605  4.631  0.000
   358C     0.03583 -0.08394   1.105  2.859  0.000
   359C     0.06050  0.12782   1.112  2.828  0.000
   360C    -0.03627 -0.08227   1.084  2.952  0.000
   361C    -0.03876 -0.08423   1.091  2.947  0.000
   362C     0.06445  0.13538   1.130  2.805  0.000
   363N    -0.28079 -0.46786   1.280  4.001  0.000
   364N    -0.15367 -0.50686   1.307  3.847  0.000
   365C    -0.00800 -0.00557   1.068  2.940  0.000
   366C     0.09570  0.11479   1.105  2.800  0.000
   367O    -0.23063 -0.32042   1.610  4.620  0.000
   368C     0.03468 -0.08615   1.108  2.858  0.000
   369C    -0.04643 -0.09850   1.048  2.998  0.000
   370C    -0.03230 -0.08783   1.089  2.943  0.000
   371C    -0.04621 -0.09830   1.048  2.998  0.000
   372C     0.09642  0.11547   1.105  2.798  0.000
   373O    -0.22955 -0.31952   1.611  4.619  0.000
   374C     0.03486 -0.08598   1.108  2.857  0.000
   375H     0.03336  0.09137   0.967  0.000  0.000
   376H     0.03100  0.09095   0.969  0.000  0.000
   377H     0.16325  0.37136   0.837  0.000  0.000
   378H     0.02179  0.08188   0.978  0.000  0.000
   379H     0.02320  0.08117   0.977  0.000  0.000
   380H     0.03308  0.09107   0.967  0.000  0.000
   381H     0.03146  0.09038   0.969  0.000  0.000
   382H     0.04560  0.10588   0.954  0.000  0.000
   383H     0.03475  0.09359   0.965  0.000  0.000
   384H     0.03511  0.09404   0.965  0.000  0.000
   385H     0.03358  0.09317   0.966  0.000  0.000
   386H     0.03153  0.08755   0.968  0.000  0.000
   387H     0.03361  0.09369   0.966  0.000  0.000
   388H     0.04376  0.10403   0.956  0.000  0.000
   389H     0.02919  0.09141   0.971  0.000  0.000
   390H     0.02750  0.08982   0.973  0.000  0.000
   391H     0.02222  0.08108   0.978  0.000  0.000
   392H     0.02320  0.08113   0.977  0.000  0.000
   393H     0.16391  0.37194   0.836  0.000  0.000
   394H     0.03549  0.09439   0.965  0.000  0.000
   395H     0.03576  0.09464   0.964  0.000  0.000
   396H     0.04743  0.10772   0.953  0.000  0.000
   397H     0.03266  0.09220   0.967  0.000  0.000
   398H     0.03055  0.08657   0.969  0.000  0.000
   399H     0.03278  0.09232   0.967  0.000  0.000
   400H     0.03577  0.09470   0.964  0.000  0.000
   401H     0.04660  0.10691   0.953  0.000  0.000
   402H     0.03476  0.09361   0.965  0.000  0.000
   403C     0.01550  0.02279   1.083  2.901  0.000
   404C     0.06658  0.13158   1.111  2.822  0.000
   405C    -0.03445 -0.07883   1.080  2.955  0.000
   406C    -0.03103 -0.07520   1.077  2.954  0.000
   407C     0.06352  0.12785   1.102  2.834  0.000
   408N    -0.15474 -0.50718   1.313  3.842  0.000
   409C     0.01919  0.02812   1.097  2.884  0.000
   410C     0.06130  0.13024   1.121  2.818  0.000
   411C    -0.03568 -0.08089   1.087  2.949  0.000
   412C    -0.03916 -0.08455   1.091  2.948  0.000
   413N    -0.28407 -0.47038   1.292  3.992  0.000
   414C     0.06471  0.13557   1.131  2.804  0.000
   415C     0.01378  0.02109   1.082  2.905  0.000
   416C     0.06625  0.13123   1.111  2.823  0.000
   417C    -0.03495 -0.07937   1.080  2.955  0.000
   418C    -0.03136 -0.07596   1.075  2.956  0.000
   419C     0.06253  0.12576   1.097  2.841  0.000
   420C     0.02055  0.02715   1.088  2.891  0.000
   421C    -0.01029 -0.00922   1.049  2.961  0.000
   422C     0.09440  0.11355   1.108  2.798  0.000
   423O    -0.23207 -0.32143   1.612  4.620  0.000
   424C     0.03442 -0.08634   1.108  2.858  0.000
   425C    -0.04724 -0.09926   1.046  3.001  0.000
   426C    -0.03178 -0.08716   1.088  2.944  0.000
   427C    -0.04413 -0.09429   1.078  2.966  0.000
   428C     0.09713  0.11661   1.107  2.796  0.000
   429O    -0.23485 -0.32473   1.606  4.629  0.000
   430C     0.03571 -0.08406   1.105  2.859  0.000
   431C     0.06044  0.12765   1.112  2.828  0.000
   432C    -0.03623 -0.08230   1.084  2.952  0.000
   433C    -0.03853 -0.08401   1.092  2.947  0.000
   434C     0.06463  0.13556   1.131  2.805  0.000
   435N    -0.28068 -0.46768   1.281  4.000  0.000
   436N    -0.15379 -0.50685   1.306  3.847  0.000
   437C    -0.00811 -0.00568   1.068  2.940  0.000
   438C     0.09561  0.11464   1.104  2.800  0.000
   439O    -0.23076 -0.32067   1.610  4.621  0.000
   440C     0.03462 -0.08623   1.108  2.858  0.000
   441C    -0.04639 -0.09847   1.048  2.998  0.000
   442C    -0.03218 -0.08771   1.089  2.943  0.000
   443C    -0.04614 -0.09821   1.048  2.998  0.000
   444C     0.09645  0.11555   1.106  2.798  0.000
   445O    -0.22959 -0.31953   1.611  4.619  0.000
   446C     0.03485 -0.08597   1.108  2.857  0.000
   447H     0.03387  0.09189   0.966  0.000  0.000
   448H     0.03147  0.09161   0.969  0.000  0.000
   449H     0.16329  0.37137   0.837  0.000  0.000
   450H     0.02190  0.08190   0.978  0.000  0.000
   451H     0.02321  0.08119   0.977  0.000  0.000
   452H     0.03282  0.09081   0.967  0.000  0.000
   453H     0.03148  0.09046   0.969  0.000  0.000
   454H     0.04563  0.10593   0.954  0.000  0.000
   455H     0.03462  0.09347   0.965  0.000  0.000
   456H     0.03528  0.09419   0.965  0.000  0.000
   457H     0.03358  0.09317   0.966  0.000  0.000
   458H     0.03159  0.08761   0.968  0.000  0.000
   459H     0.03359  0.09370   0.966  0.000  0.000
   460H     0.04410  0.10439   0.956  0.000  0.000
   461H     0.02887  0.09121   0.971  0.000  0.000
   462H     0.02823  0.09039   0.972  0.000  0.000
   463H     0.02241  0.08128   0.978  0.000  0.000
   464H     0.02350  0.08145   0.977  0.000  0.000
   465H     0.16420  0.37225   0.836  0.000  0.000
   466H     0.03554  0.09445   0.964  0.000  0.000
   467H     0.03600  0.09487   0.964  0.000  0.000
   468H     0.04743  0.10771   0.953  0.000  0.000
   469H     0.03278  0.09232   0.967  0.000  0.000
   470H     0.03080  0.08681   0.969  0.000  0.000
   471H     0.03301  0.09254   0.967  0.000  0.000
   472H     0.03571  0.09465   0.964  0.000  0.000
   473H     0.04646  0.10677   0.954  0.000  0.000
   474H     0.03490  0.09373   0.965  0.000  0.000

Wiberg/Mayer (AO) data.
largest (>0.10) Wiberg bond orders for each atom

 ---------------------------------------------------------------------------
     #   Z sym  total        # sym  WBO       # sym  WBO       # sym  WBO
 ---------------------------------------------------------------------------
     1   6 C    3.816 --    32 C    1.385     2 C    1.375    45 H    0.996
     2   6 C    3.925 --     1 C    1.375     3 C    1.241     6 N    1.230
     3   6 C    3.838 --     4 C    1.600     2 C    1.241    46 H    0.994
     4   6 C    3.825 --     3 C    1.600     5 C    1.250    47 H    0.998
     5   6 C    3.899 --     7 C    1.348     4 C    1.250     6 N    1.227
     6   7 N    3.226 --     2 C    1.230     5 C    1.227    48 H    0.962
     7   6 C    3.818 --     8 C    1.378     5 C    1.348    35 C    1.024
     8   6 C    3.915 --     7 C    1.378    11 N    1.350     9 C    1.160
     9   6 C    3.835 --    10 C    1.694     8 C    1.160    49 H    0.998
    10   6 C    3.851 --     9 C    1.694    12 C    1.167    50 H    1.000
    11   7 N    2.523 --    12 C    1.411     8 C    1.350
    12   6 C    3.941 --    11 N    1.411    13 C    1.288    10 C    1.167
    13   6 C    3.850 --    14 C    1.291    12 C    1.288   147 C    1.217
    14   6 C    3.901 --    13 C    1.291    15 C    1.265    34 N    1.249
    15   6 C    3.834 --    16 C    1.588    14 C    1.265    51 H    0.999
    16   6 C    3.818 --    15 C    1.588    17 C    1.255    52 H    0.998
    17   6 C    3.891 --    18 C    1.354    16 C    1.255    34 N    1.217
    18   6 C    3.804 --    29 C    1.364    17 C    1.354    19 C    1.027
    19   6 C    3.814 --    20 C    1.410    26 C    1.355    18 C    1.027
    20   6 C    3.921 --    19 C    1.410    23 C    1.361    21 O    1.114
    21   8 O    2.171 --    20 C    1.114    22 C    0.976
    22   6 C    3.890 --    55 H    1.003    53 H    0.999    54 H    0.984
                            21 O    0.976
    23   6 C    3.899 --    24 C    1.468    20 C    1.361    56 H    0.984
    24   6 C    3.919 --    23 C    1.468    25 C    1.415    57 H    0.985
    25   6 C    3.827 --    24 C    1.415    26 C    1.407    58 H    0.987
    26   6 C    3.921 --    25 C    1.407    19 C    1.355    27 O    1.118
    27   8 O    2.194 --    26 C    1.118    28 C    0.983
    28   6 C    3.912 --    60 H    0.996    61 H    0.996    59 H    0.986
                            27 O    0.983
    29   6 C    3.936 --    33 N    1.377    18 C    1.364    30 C    1.153
    30   6 C    3.838 --    31 C    1.706    29 C    1.153    62 H    0.999
    31   6 C    3.860 --    30 C    1.706    32 C    1.149    63 H    0.994
    32   6 C    3.966 --     1 C    1.385    33 N    1.373    31 C    1.149
    33   7 N    2.509 --    29 C    1.377    32 C    1.373
    34   7 N    3.235 --    14 C    1.249    17 C    1.217    64 H    0.961
    35   6 C    3.811 --    36 C    1.411    42 C    1.354     7 C    1.024
    36   6 C    3.922 --    35 C    1.411    39 C    1.355    37 O    1.119
    37   8 O    2.186 --    36 C    1.119    38 C    0.977
    38   6 C    3.888 --    65 H    1.001    67 H    0.999    66 H    0.984
                            37 O    0.977
    39   6 C    3.900 --    40 C    1.472    36 C    1.355    68 H    0.984
    40   6 C    3.920 --    39 C    1.472    41 C    1.412    69 H    0.985
    41   6 C    3.826 --    40 C    1.412    42 C    1.409    70 H    0.987
    42   6 C    3.922 --    41 C    1.409    35 C    1.354    43 O    1.117
    43   8 O    2.193 --    42 C    1.117    44 C    0.983
    44   6 C    3.913 --    71 H    0.996    73 H    0.996    72 H    0.986
                            43 O    0.983
    45   1 H    1.028 --     1 C    0.996
    46   1 H    1.014 --     3 C    0.994
    47   1 H    1.030 --     4 C    0.998
    48   1 H    1.079 --     6 N    0.962
    49   1 H    1.035 --     9 C    0.998
    50   1 H    1.029 --    10 C    1.000
    51   1 H    1.026 --    15 C    0.999
    52   1 H    1.030 --    16 C    0.998
    53   1 H    1.047 --    22 C    0.999
    54   1 H    1.041 --    22 C    0.984
    55   1 H    1.044 --    22 C    1.003
    56   1 H    1.025 --    23 C    0.984
    57   1 H    1.021 --    24 C    0.985
    58   1 H    1.019 --    25 C    0.987
    59   1 H    1.037 --    28 C    0.986
    60   1 H    1.027 --    28 C    0.996
    61   1 H    1.027 --    28 C    0.996
    62   1 H    1.035 --    30 C    0.999
    63   1 H    1.015 --    31 C    0.994
    64   1 H    1.082 --    34 N    0.961
    65   1 H    1.046 --    38 C    1.001
    66   1 H    1.041 --    38 C    0.984
    67   1 H    1.045 --    38 C    0.999
    68   1 H    1.023 --    39 C    0.984
    69   1 H    1.021 --    40 C    0.985
    70   1 H    1.021 --    41 C    0.987
    71   1 H    1.027 --    44 C    0.996
    72   1 H    1.041 --    44 C    0.986
    73   1 H    1.027 --    44 C    0.996
    74   6 C    3.816 --   105 C    1.385    75 C    1.375   118 H    0.996
    75   6 C    3.925 --    74 C    1.375    76 C    1.241    79 N    1.230
    76   6 C    3.838 --    77 C    1.600    75 C    1.241   119 H    0.994
    77   6 C    3.826 --    76 C    1.600    78 C    1.250   120 H    0.998
    78   6 C    3.899 --    80 C    1.348    77 C    1.250    79 N    1.227
    79   7 N    3.226 --    75 C    1.230    78 C    1.227   121 H    0.962
    80   6 C    3.818 --    81 C    1.378    78 C    1.348   108 C    1.024
    81   6 C    3.914 --    80 C    1.378    84 N    1.349    82 C    1.161
    82   6 C    3.835 --    83 C    1.693    81 C    1.161   122 H    0.998
    83   6 C    3.850 --    82 C    1.693    85 C    1.167   123 H    1.000
    84   7 N    2.523 --    85 C    1.412    81 C    1.349
    85   6 C    3.940 --    84 N    1.412    86 C    1.287    83 C    1.167
    86   6 C    3.849 --    87 C    1.290    85 C    1.287   186 C    1.218
    87   6 C    3.901 --    86 C    1.290    88 C    1.266   107 N    1.249
    88   6 C    3.834 --    89 C    1.587    87 C    1.266   124 H    0.999
    89   6 C    3.818 --    88 C    1.587    90 C    1.256   125 H    0.998
    90   6 C    3.891 --    91 C    1.354    89 C    1.256   107 N    1.218
    91   6 C    3.804 --   102 C    1.364    90 C    1.354    92 C    1.028
    92   6 C    3.814 --    93 C    1.410    99 C    1.355    91 C    1.028
    93   6 C    3.921 --    92 C    1.410    96 C    1.361    94 O    1.114
    94   8 O    2.172 --    93 C    1.114    95 C    0.976
    95   6 C    3.890 --   128 H    1.003   126 H    0.999   127 H    0.984
                            94 O    0.976
    96   6 C    3.899 --    97 C    1.469    93 C    1.361   129 H    0.984
    97   6 C    3.919 --    96 C    1.469    98 C    1.414   130 H    0.985
    98   6 C    3.827 --    97 C    1.414    99 C    1.408   131 H    0.987
    99   6 C    3.921 --    98 C    1.408    92 C    1.355   100 O    1.118
   100   8 O    2.194 --    99 C    1.118   101 C    0.983
   101   6 C    3.912 --   133 H    0.996   134 H    0.996   132 H    0.986
                           100 O    0.983
   102   6 C    3.937 --   106 N    1.377    91 C    1.364   103 C    1.153
   103   6 C    3.838 --   104 C    1.706   102 C    1.153   135 H    0.999
   104   6 C    3.861 --   103 C    1.706   105 C    1.148   136 H    0.994
   105   6 C    3.966 --    74 C    1.385   106 N    1.373   104 C    1.148
   106   7 N    2.509 --   102 C    1.377   105 C    1.373
   107   7 N    3.235 --    87 C    1.249    90 C    1.218   137 H    0.961
   108   6 C    3.811 --   109 C    1.411   115 C    1.354    80 C    1.024
   109   6 C    3.922 --   108 C    1.411   112 C    1.356   110 O    1.119
   110   8 O    2.185 --   109 C    1.119   111 C    0.977
   111   6 C    3.888 --   138 H    1.001   140 H    0.999   139 H    0.984
                           110 O    0.977
   112   6 C    3.900 --   113 C    1.472   109 C    1.356   141 H    0.984
   113   6 C    3.920 --   112 C    1.472   114 C    1.412   142 H    0.985
   114   6 C    3.826 --   113 C    1.412   115 C    1.409   143 H    0.987
   115   6 C    3.922 --   114 C    1.409   108 C    1.354   116 O    1.117
   116   8 O    2.193 --   115 C    1.117   117 C    0.983
   117   6 C    3.913 --   144 H    0.996   146 H    0.996   145 H    0.986
                           116 O    0.983
   118   1 H    1.029 --    74 C    0.996
   119   1 H    1.014 --    76 C    0.994
   120   1 H    1.030 --    77 C    0.998
   121   1 H    1.080 --    79 N    0.962
   122   1 H    1.035 --    82 C    0.998
   123   1 H    1.029 --    83 C    1.000
   124   1 H    1.026 --    88 C    0.999
   125   1 H    1.030 --    89 C    0.998
   126   1 H    1.047 --    95 C    0.999
   127   1 H    1.041 --    95 C    0.984
   128   1 H    1.044 --    95 C    1.003
   129   1 H    1.025 --    96 C    0.984
   130   1 H    1.021 --    97 C    0.985
   131   1 H    1.019 --    98 C    0.987
   132   1 H    1.038 --   101 C    0.986
   133   1 H    1.028 --   101 C    0.996
   134   1 H    1.027 --   101 C    0.996
   135   1 H    1.035 --   103 C    0.999
   136   1 H    1.015 --   104 C    0.994
   137   1 H    1.082 --   107 N    0.961
   138   1 H    1.046 --   111 C    1.001
   139   1 H    1.041 --   111 C    0.984
   140   1 H    1.045 --   111 C    0.999
   141   1 H    1.023 --   112 C    0.984
   142   1 H    1.021 --   113 C    0.985
   143   1 H    1.021 --   114 C    0.987
   144   1 H    1.027 --   117 C    0.996
   145   1 H    1.041 --   117 C    0.986
   146   1 H    1.027 --   117 C    0.996
   147   6 C    3.755 --   148 C    2.469    13 C    1.217   150 C    0.168
   148   6 C    3.811 --   147 C    2.469   149 C    1.359
   149   6 C    3.802 --   150 C    2.350   148 C    1.359   152 C    0.162
   150   6 C    3.840 --   149 C    2.350   151 C    1.387   147 C    0.168
   151   6 C    3.837 --   152 C    2.348   150 C    1.387   154 C    0.167
   152   6 C    3.804 --   151 C    2.348   153 C    1.361   149 C    0.162
   153   6 C    3.807 --   154 C    2.463   152 C    1.361
   154   6 C    3.757 --   153 C    2.463   187 C    1.222   151 C    0.167
   155   6 C    3.755 --   156 C    2.452   199 C    1.231   158 C    0.166
   156   6 C    3.806 --   155 C    2.452   157 C    1.371
   157   6 C    3.802 --   158 C    2.335   156 C    1.371   160 C    0.160
   158   6 C    3.836 --   157 C    2.335   159 C    1.398   155 C    0.166
   159   6 C    3.836 --   160 C    2.334   158 C    1.398   162 C    0.166
   160   6 C    3.802 --   159 C    2.334   161 C    1.371   157 C    0.160
   161   6 C    3.806 --   162 C    2.451   160 C    1.371
   162   6 C    3.755 --   161 C    2.451   259 C    1.232   159 C    0.166
   163   6 C    3.755 --   164 C    2.451   271 C    1.231   166 C    0.166
   164   6 C    3.806 --   163 C    2.451   165 C    1.371
   165   6 C    3.802 --   166 C    2.335   164 C    1.371   168 C    0.160
   166   6 C    3.836 --   165 C    2.335   167 C    1.398   163 C    0.166
   167   6 C    3.836 --   168 C    2.335   166 C    1.398   170 C    0.166
   168   6 C    3.802 --   167 C    2.335   169 C    1.371   165 C    0.160
   169   6 C    3.806 --   170 C    2.451   168 C    1.371
   170   6 C    3.755 --   169 C    2.451   331 C    1.232   167 C    0.166
   171   6 C    3.755 --   172 C    2.451   343 C    1.231   174 C    0.166
   172   6 C    3.806 --   171 C    2.451   173 C    1.371
   173   6 C    3.802 --   174 C    2.335   172 C    1.371   176 C    0.160
   174   6 C    3.836 --   173 C    2.335   175 C    1.398   171 C    0.166
   175   6 C    3.836 --   176 C    2.335   174 C    1.398   178 C    0.166
   176   6 C    3.802 --   175 C    2.335   177 C    1.371   173 C    0.160
   177   6 C    3.806 --   178 C    2.452   176 C    1.371
   178   6 C    3.755 --   177 C    2.452   403 C    1.231   175 C    0.166
   179   6 C    3.757 --   180 C    2.461   415 C    1.223   182 C    0.167
   180   6 C    3.807 --   179 C    2.461   181 C    1.363
   181   6 C    3.804 --   182 C    2.346   180 C    1.363   184 C    0.162
   182   6 C    3.837 --   181 C    2.346   183 C    1.388   179 C    0.167
   183   6 C    3.839 --   184 C    2.348   182 C    1.388   186 C    0.168
   184   6 C    3.802 --   183 C    2.348   185 C    1.360   181 C    0.162
   185   6 C    3.811 --   186 C    2.467   184 C    1.360
   186   6 C    3.754 --   185 C    2.467    86 C    1.218   183 C    0.168
   187   6 C    3.831 --   218 C    1.285   188 C    1.284   154 C    1.222
   188   6 C    3.904 --   187 C    1.284   189 C    1.269   192 N    1.253
   189   6 C    3.829 --   190 C    1.580   188 C    1.269   231 H    0.999
   190   6 C    3.823 --   189 C    1.580   191 C    1.259   232 H    0.999
   191   6 C    3.897 --   193 C    1.343   190 C    1.259   192 N    1.221
   192   7 N    3.246 --   188 C    1.253   191 C    1.221   233 H    0.962
   193   6 C    3.835 --   194 C    1.377   191 C    1.343   221 C    1.038
   194   6 C    3.931 --   193 C    1.377   197 N    1.348   195 C    1.159
   195   6 C    3.843 --   196 C    1.692   194 C    1.159   234 H    0.999
   196   6 C    3.851 --   195 C    1.692   198 C    1.167   235 H    1.000
   197   7 N    2.551 --   198 C    1.418   194 C    1.348
   198   6 C    3.940 --   197 N    1.418   199 C    1.281   196 C    1.167
   199   6 C    3.832 --   198 C    1.281   200 C    1.280   155 C    1.231
   200   6 C    3.901 --   199 C    1.280   201 C    1.272   220 N    1.251
   201   6 C    3.829 --   202 C    1.578   200 C    1.272   236 H    0.999
   202   6 C    3.817 --   201 C    1.578   203 C    1.263   237 H    0.998
   203   6 C    3.884 --   204 C    1.342   202 C    1.263   220 N    1.218
   204   6 C    3.806 --   215 C    1.382   203 C    1.342   205 C    1.027
   205   6 C    3.814 --   212 C    1.410   206 C    1.355   204 C    1.027
   206   6 C    3.921 --   209 C    1.408   205 C    1.355   207 O    1.118
   207   8 O    2.194 --   206 C    1.118   208 C    0.983
   208   6 C    3.912 --   240 H    0.996   239 H    0.996   238 H    0.986
                           207 O    0.983
   209   6 C    3.826 --   210 C    1.414   206 C    1.408   241 H    0.988
   210   6 C    3.919 --   211 C    1.469   209 C    1.414   242 H    0.985
   211   6 C    3.899 --   210 C    1.469   212 C    1.360   243 H    0.984
   212   6 C    3.921 --   205 C    1.410   211 C    1.360   213 O    1.115
   213   8 O    2.175 --   212 C    1.115   214 C    0.976
   214   6 C    3.889 --   245 H    1.003   246 H    0.999   244 H    0.984
                           213 O    0.976
   215   6 C    3.916 --   204 C    1.382   219 N    1.347   216 C    1.161
   216   6 C    3.835 --   217 C    1.692   215 C    1.161   247 H    0.999
   217   6 C    3.847 --   216 C    1.692   218 C    1.167   248 H    1.000
   218   6 C    3.943 --   219 N    1.413   187 C    1.285   217 C    1.167
   219   7 N    2.506 --   218 C    1.413   215 C    1.347
   220   7 N    3.230 --   200 C    1.251   203 C    1.218   249 H    0.961
   221   6 C    3.864 --   222 C    1.378   228 C    1.376   193 C    1.038
   222   6 C    3.914 --   225 C    1.388   221 C    1.378   223 O    1.117
   223   8 O    2.189 --   222 C    1.117   224 C    0.982
   224   6 C    3.912 --   251 H    0.997   250 H    0.996   252 H    0.986
                           223 O    0.982
   225   6 C    3.830 --   226 C    1.439   222 C    1.388   253 H    0.989
   226   6 C    3.919 --   227 C    1.440   225 C    1.439   254 H    0.985
   227   6 C    3.830 --   226 C    1.440   228 C    1.387   255 H    0.989
   228   6 C    3.919 --   227 C    1.387   221 C    1.376   229 O    1.121
   229   8 O    2.195 --   228 C    1.121   230 C    0.982
   230   6 C    3.912 --   256 H    0.996   258 H    0.996   257 H    0.986
                           229 O    0.982
   231   1 H    1.023 --   189 C    0.999
   232   1 H    1.029 --   190 C    0.999
   233   1 H    1.078 --   192 N    0.962
   234   1 H    1.031 --   195 C    0.999
   235   1 H    1.027 --   196 C    1.000
   236   1 H    1.025 --   201 C    0.999
   237   1 H    1.034 --   202 C    0.998
   238   1 H    1.037 --   208 C    0.986
   239   1 H    1.028 --   208 C    0.996
   240   1 H    1.027 --   208 C    0.996
   241   1 H    1.020 --   209 C    0.988
   242   1 H    1.021 --   210 C    0.985
   243   1 H    1.025 --   211 C    0.984
   244   1 H    1.041 --   214 C    0.984
   245   1 H    1.045 --   214 C    1.003
   246   1 H    1.047 --   214 C    0.999
   247   1 H    1.037 --   216 C    0.999
   248   1 H    1.026 --   217 C    1.000
   249   1 H    1.081 --   220 N    0.961
   250   1 H    1.028 --   224 C    0.996
   251   1 H    1.027 --   224 C    0.997
   252   1 H    1.040 --   224 C    0.986
   253   1 H    1.021 --   225 C    0.989
   254   1 H    1.024 --   226 C    0.985
   255   1 H    1.021 --   227 C    0.989
   256   1 H    1.027 --   230 C    0.996
   257   1 H    1.040 --   230 C    0.986
   258   1 H    1.028 --   230 C    0.996
   259   6 C    3.830 --   290 C    1.280   260 C    1.280   162 C    1.232
   260   6 C    3.903 --   259 C    1.280   261 C    1.271   264 N    1.254
   261   6 C    3.830 --   262 C    1.578   260 C    1.271   303 H    0.999
   262   6 C    3.821 --   261 C    1.578   263 C    1.261   304 H    0.999
   263   6 C    3.897 --   265 C    1.341   262 C    1.261   264 N    1.221
   264   7 N    3.247 --   260 C    1.254   263 C    1.221   305 H    0.962
   265   6 C    3.834 --   266 C    1.379   263 C    1.341   293 C    1.037
   266   6 C    3.932 --   265 C    1.379   269 N    1.347   267 C    1.159
   267   6 C    3.843 --   268 C    1.692   266 C    1.159   306 H    1.000
   268   6 C    3.851 --   267 C    1.692   270 C    1.167   307 H    1.000
   269   7 N    2.548 --   270 C    1.419   266 C    1.347
   270   6 C    3.941 --   269 N    1.419   271 C    1.280   268 C    1.167
   271   6 C    3.831 --   270 C    1.280   272 C    1.279   163 C    1.231
   272   6 C    3.902 --   271 C    1.279   273 C    1.273   292 N    1.252
   273   6 C    3.828 --   274 C    1.578   272 C    1.273   308 H    0.999
   274   6 C    3.819 --   273 C    1.578   275 C    1.263   309 H    0.998
   275   6 C    3.885 --   276 C    1.343   274 C    1.263   292 N    1.217
   276   6 C    3.807 --   287 C    1.382   275 C    1.343   277 C    1.025
   277   6 C    3.812 --   284 C    1.411   278 C    1.355   276 C    1.025
   278   6 C    3.920 --   281 C    1.409   277 C    1.355   279 O    1.118
   279   8 O    2.194 --   278 C    1.118   280 C    0.983
   280   6 C    3.914 --   312 H    0.996   311 H    0.996   310 H    0.986
                           279 O    0.983
   281   6 C    3.826 --   282 C    1.412   278 C    1.409   313 H    0.988
   282   6 C    3.920 --   283 C    1.471   281 C    1.412   314 H    0.985
   283   6 C    3.900 --   282 C    1.471   284 C    1.357   315 H    0.984
   284   6 C    3.921 --   277 C    1.411   283 C    1.357   285 O    1.118
   285   8 O    2.182 --   284 C    1.118   286 C    0.977
   286   6 C    3.888 --   317 H    1.002   318 H    0.999   316 H    0.984
                           285 O    0.977
   287   6 C    3.914 --   276 C    1.382   291 N    1.345   288 C    1.162
   288   6 C    3.835 --   289 C    1.690   287 C    1.162   319 H    0.999
   289   6 C    3.847 --   288 C    1.690   290 C    1.169   320 H    1.000
   290   6 C    3.941 --   291 N    1.416   259 C    1.280   289 C    1.169
   291   7 N    2.507 --   290 C    1.416   287 C    1.345
   292   7 N    3.230 --   272 C    1.252   275 C    1.217   321 H    0.961
   293   6 C    3.864 --   294 C    1.378   300 C    1.376   265 C    1.037
   294   6 C    3.915 --   297 C    1.388   293 C    1.378   295 O    1.117
   295   8 O    2.189 --   294 C    1.117   296 C    0.982
   296   6 C    3.912 --   323 H    0.997   322 H    0.996   324 H    0.986
                           295 O    0.982
   297   6 C    3.830 --   298 C    1.439   294 C    1.388   325 H    0.989
   298   6 C    3.918 --   299 C    1.439   297 C    1.439   326 H    0.985
   299   6 C    3.830 --   298 C    1.439   300 C    1.387   327 H    0.989
   300   6 C    3.919 --   299 C    1.387   293 C    1.376   301 O    1.121
   301   8 O    2.195 --   300 C    1.121   302 C    0.982
   302   6 C    3.912 --   328 H    0.997   330 H    0.996   329 H    0.986
                           301 O    0.982
   303   1 H    1.023 --   261 C    0.999
   304   1 H    1.029 --   262 C    0.999
   305   1 H    1.078 --   264 N    0.962
   306   1 H    1.031 --   267 C    1.000
   307   1 H    1.027 --   268 C    1.000
   308   1 H    1.025 --   273 C    0.999
   309   1 H    1.035 --   274 C    0.998
   310   1 H    1.039 --   280 C    0.986
   311   1 H    1.028 --   280 C    0.996
   312   1 H    1.027 --   280 C    0.996
   313   1 H    1.020 --   281 C    0.988
   314   1 H    1.021 --   282 C    0.985
   315   1 H    1.025 --   283 C    0.984
   316   1 H    1.041 --   286 C    0.984
   317   1 H    1.046 --   286 C    1.002
   318   1 H    1.047 --   286 C    0.999
   319   1 H    1.038 --   288 C    0.999
   320   1 H    1.027 --   289 C    1.000
   321   1 H    1.081 --   292 N    0.961
   322   1 H    1.028 --   296 C    0.996
   323   1 H    1.027 --   296 C    0.997
   324   1 H    1.040 --   296 C    0.986
   325   1 H    1.021 --   297 C    0.989
   326   1 H    1.024 --   298 C    0.985
   327   1 H    1.021 --   299 C    0.989
   328   1 H    1.028 --   302 C    0.997
   329   1 H    1.040 --   302 C    0.986
   330   1 H    1.028 --   302 C    0.996
   331   6 C    3.831 --   362 C    1.280   332 C    1.280   170 C    1.232
   332   6 C    3.903 --   331 C    1.280   333 C    1.272   336 N    1.253
   333   6 C    3.830 --   334 C    1.578   332 C    1.272   375 H    0.999
   334   6 C    3.821 --   333 C    1.578   335 C    1.261   376 H    0.999
   335   6 C    3.897 --   337 C    1.340   334 C    1.261   336 N    1.222
   336   7 N    3.247 --   332 C    1.253   335 C    1.222   377 H    0.962
   337   6 C    3.834 --   338 C    1.381   335 C    1.340   365 C    1.037
   338   6 C    3.932 --   337 C    1.381   341 N    1.346   339 C    1.159
   339   6 C    3.843 --   340 C    1.692   338 C    1.159   378 H    1.000
   340   6 C    3.851 --   339 C    1.692   342 C    1.167   379 H    1.000
   341   7 N    2.549 --   342 C    1.420   338 C    1.346
   342   6 C    3.941 --   341 N    1.420   343 C    1.280   340 C    1.167
   343   6 C    3.832 --   342 C    1.280   344 C    1.279   171 C    1.231
   344   6 C    3.902 --   343 C    1.279   345 C    1.272   364 N    1.252
   345   6 C    3.828 --   346 C    1.578   344 C    1.272   380 H    0.999
   346   6 C    3.818 --   345 C    1.578   347 C    1.263   381 H    0.998
   347   6 C    3.886 --   348 C    1.344   346 C    1.263   364 N    1.217
   348   6 C    3.807 --   359 C    1.382   347 C    1.344   349 C    1.024
   349   6 C    3.811 --   356 C    1.410   350 C    1.354   348 C    1.024
   350   6 C    3.920 --   353 C    1.409   349 C    1.354   351 O    1.117
   351   8 O    2.193 --   350 C    1.117   352 C    0.983
   352   6 C    3.914 --   383 H    0.996   384 H    0.996   382 H    0.986
                           351 O    0.983
   353   6 C    3.825 --   354 C    1.411   350 C    1.409   385 H    0.988
   354   6 C    3.920 --   355 C    1.473   353 C    1.411   386 H    0.985
   355   6 C    3.900 --   354 C    1.473   356 C    1.355   387 H    0.984
   356   6 C    3.921 --   349 C    1.410   355 C    1.355   357 O    1.120
   357   8 O    2.188 --   356 C    1.120   358 C    0.977
   358   6 C    3.887 --   389 H    1.001   390 H    0.999   388 H    0.984
                           357 O    0.977
   359   6 C    3.914 --   348 C    1.382   363 N    1.345   360 C    1.162
   360   6 C    3.836 --   361 C    1.690   359 C    1.162   391 H    0.999
   361   6 C    3.848 --   360 C    1.690   362 C    1.169   392 H    1.000
   362   6 C    3.941 --   363 N    1.416   331 C    1.280   361 C    1.169
   363   7 N    2.508 --   362 C    1.416   359 C    1.345
   364   7 N    3.229 --   344 C    1.252   347 C    1.217   393 H    0.961
   365   6 C    3.864 --   366 C    1.378   372 C    1.377   337 C    1.037
   366   6 C    3.915 --   369 C    1.388   365 C    1.378   367 O    1.118
   367   8 O    2.189 --   366 C    1.118   368 C    0.982
   368   6 C    3.912 --   395 H    0.996   394 H    0.996   396 H    0.986
                           367 O    0.982
   369   6 C    3.830 --   370 C    1.439   366 C    1.388   397 H    0.989
   370   6 C    3.919 --   371 C    1.440   369 C    1.439   398 H    0.985
   371   6 C    3.830 --   370 C    1.440   372 C    1.387   399 H    0.989
   372   6 C    3.919 --   371 C    1.387   365 C    1.377   373 O    1.120
   373   8 O    2.194 --   372 C    1.120   374 C    0.982
   374   6 C    3.912 --   400 H    0.997   402 H    0.996   401 H    0.986
                           373 O    0.982
   375   1 H    1.023 --   333 C    0.999
   376   1 H    1.029 --   334 C    0.999
   377   1 H    1.078 --   336 N    0.962
   378   1 H    1.031 --   339 C    1.000
   379   1 H    1.027 --   340 C    1.000
   380   1 H    1.024 --   345 C    0.999
   381   1 H    1.034 --   346 C    0.998
   382   1 H    1.042 --   352 C    0.986
   383   1 H    1.027 --   352 C    0.996
   384   1 H    1.027 --   352 C    0.996
   385   1 H    1.021 --   353 C    0.988
   386   1 H    1.021 --   354 C    0.985
   387   1 H    1.024 --   355 C    0.984
   388   1 H    1.042 --   358 C    0.984
   389   1 H    1.047 --   358 C    1.001
   390   1 H    1.045 --   358 C    0.999
   391   1 H    1.037 --   360 C    0.999
   392   1 H    1.027 --   361 C    1.000
   393   1 H    1.081 --   364 N    0.961
   394   1 H    1.028 --   368 C    0.996
   395   1 H    1.027 --   368 C    0.996
   396   1 H    1.040 --   368 C    0.986
   397   1 H    1.021 --   369 C    0.989
   398   1 H    1.024 --   370 C    0.985
   399   1 H    1.021 --   371 C    0.989
   400   1 H    1.028 --   374 C    0.997
   401   1 H    1.040 --   374 C    0.986
   402   1 H    1.028 --   374 C    0.996
   403   6 C    3.831 --   404 C    1.281   434 C    1.280   178 C    1.231
   404   6 C    3.902 --   403 C    1.281   405 C    1.271   408 N    1.253
   405   6 C    3.830 --   406 C    1.578   404 C    1.271   447 H    0.999
   406   6 C    3.821 --   405 C    1.578   407 C    1.261   448 H    0.999
   407   6 C    3.897 --   409 C    1.340   406 C    1.261   408 N    1.222
   408   7 N    3.248 --   404 C    1.253   407 C    1.222   449 H    0.962
   409   6 C    3.833 --   410 C    1.379   407 C    1.340   437 C    1.037
   410   6 C    3.932 --   409 C    1.379   413 N    1.348   411 C    1.158
   411   6 C    3.844 --   412 C    1.694   410 C    1.158   450 H    1.000
   412   6 C    3.851 --   411 C    1.694   414 C    1.166   451 H    1.000
   413   7 N    2.547 --   414 C    1.417   410 C    1.348
   414   6 C    3.942 --   413 N    1.417   415 C    1.285   412 C    1.166
   415   6 C    3.832 --   414 C    1.285   416 C    1.282   179 C    1.223
   416   6 C    3.906 --   415 C    1.282   417 C    1.271   436 N    1.251
   417   6 C    3.827 --   418 C    1.579   416 C    1.271   452 H    0.999
   418   6 C    3.818 --   417 C    1.579   419 C    1.262   453 H    0.998
   419   6 C    3.887 --   420 C    1.344   418 C    1.262   436 N    1.218
   420   6 C    3.808 --   431 C    1.380   419 C    1.344   421 C    1.025
   421   6 C    3.810 --   428 C    1.410   422 C    1.352   420 C    1.025
   422   6 C    3.919 --   425 C    1.411   421 C    1.352   423 O    1.117
   423   8 O    2.192 --   422 C    1.117   424 C    0.983
   424   6 C    3.913 --   455 H    0.996   456 H    0.996   454 H    0.986
                           423 O    0.983
   425   6 C    3.825 --   422 C    1.411   426 C    1.410   457 H    0.987
   426   6 C    3.920 --   427 C    1.474   425 C    1.410   458 H    0.985
   427   6 C    3.900 --   426 C    1.474   428 C    1.353   459 H    0.984
   428   6 C    3.922 --   421 C    1.410   427 C    1.353   429 O    1.122
   429   8 O    2.193 --   428 C    1.122   430 C    0.978
   430   6 C    3.887 --   461 H    1.000   462 H    0.999   460 H    0.984
                           429 O    0.978
   431   6 C    3.913 --   420 C    1.380   435 N    1.345   432 C    1.162
   432   6 C    3.836 --   433 C    1.691   431 C    1.162   463 H    0.999
   433   6 C    3.848 --   432 C    1.691   434 C    1.169   464 H    1.000
   434   6 C    3.938 --   435 N    1.416   403 C    1.280   433 C    1.169
   435   7 N    2.511 --   434 C    1.416   431 C    1.345
   436   7 N    3.228 --   416 C    1.251   419 C    1.218   465 H    0.961
   437   6 C    3.864 --   438 C    1.379   444 C    1.376   409 C    1.037
   438   6 C    3.915 --   441 C    1.387   437 C    1.379   439 O    1.117
   439   8 O    2.188 --   438 C    1.117   440 C    0.982
   440   6 C    3.912 --   467 H    0.997   466 H    0.996   468 H    0.986
                           439 O    0.982
   441   6 C    3.830 --   442 C    1.439   438 C    1.387   469 H    0.989
   442   6 C    3.918 --   441 C    1.439   443 C    1.439   470 H    0.985
   443   6 C    3.830 --   442 C    1.439   444 C    1.388   471 H    0.989
   444   6 C    3.919 --   443 C    1.388   437 C    1.376   445 O    1.120
   445   8 O    2.195 --   444 C    1.120   446 C    0.982
   446   6 C    3.912 --   472 H    0.997   474 H    0.996   473 H    0.986
                           445 O    0.982
   447   1 H    1.023 --   405 C    0.999
   448   1 H    1.028 --   406 C    0.999
   449   1 H    1.078 --   408 N    0.962
   450   1 H    1.031 --   411 C    1.000
   451   1 H    1.028 --   412 C    1.000
   452   1 H    1.023 --   417 C    0.999
   453   1 H    1.035 --   418 C    0.998
   454   1 H    1.041 --   424 C    0.986
   455   1 H    1.027 --   424 C    0.996
   456   1 H    1.028 --   424 C    0.996
   457   1 H    1.020 --   425 C    0.987
   458   1 H    1.021 --   426 C    0.985
   459   1 H    1.025 --   427 C    0.984
   460   1 H    1.040 --   430 C    0.984
   461   1 H    1.048 --   430 C    1.000
   462   1 H    1.045 --   430 C    0.999
   463   1 H    1.038 --   432 C    0.999
   464   1 H    1.028 --   433 C    1.000
   465   1 H    1.080 --   436 N    0.961
   466   1 H    1.028 --   440 C    0.996
   467   1 H    1.027 --   440 C    0.997
   468   1 H    1.040 --   440 C    0.986
   469   1 H    1.021 --   441 C    0.989
   470   1 H    1.024 --   442 C    0.985
   471   1 H    1.021 --   443 C    0.989
   472   1 H    1.028 --   446 C    0.997
   473   1 H    1.040 --   446 C    0.986
   474   1 H    1.028 --   446 C    0.996
 ---------------------------------------------------------------------------

Topologies differ in total number of bonds
Writing topology from bond orders to xtbtopo.mol

 dipole moment from electron density (au)
     X       Y       Z   
-211.1468   2.0197   3.7549  total (Debye):  536.791


           -------------------------------------------------
          | TOTAL ENERGY             -917.791646558115 Eh   |
          | GRADIENT NORM               0.109581981480 Eh/α |
          | HOMO-LUMO GAP               0.064207280773 eV   |
           -------------------------------------------------
########################################################################
[WARNING] Runtime exception occurred
-1- restart_readRestart: Dimension missmatch in restart file.
########################################################################

------------------------------------------------------------------------
 * finished run on 2022/07/31 at 02:57:07.902     
------------------------------------------------------------------------
 total:
 * wall-time:     0 d,  0 h,  1 min, 51.278 sec
 *  cpu-time:     0 d,  0 h,  1 min, 50.647 sec
 * ratio c/w:     0.994 speedup
 SCF:
 * wall-time:     0 d,  0 h,  1 min, 49.879 sec
 *  cpu-time:     0 d,  0 h,  1 min, 49.258 sec
 * ratio c/w:     0.994 speedup

