130
 energy: -256.099567971717 gnorm: 0.403155014539 xtb: 6.5.1 (b24c23e)
Fe          14.49221800000000       -0.02931900000000        0.00115800000000
C           11.15907800000000        0.12169300000000        0.10756800000000
C           11.82589000000000        1.27863900000000        0.08616800000000
C           11.17751900000000        2.58425700000000        0.08496400000000
C           12.12116000000000        3.50632700000000        0.07700300000000
C           13.42630600000000        2.83127800000000        0.07493500000000
N           13.24632400000000        1.41505200000000        0.07997000000000
C           14.62025600000000        3.45616900000000        0.10485200000000
C           14.65778100000000        4.93487200000000        0.11236700000000
C           14.44844100000000        5.65014700000000       -1.07460700000000
C           14.47009500000000        7.04848600000000       -1.07167000000000
O           14.25581900000000        7.72966400000000       -2.27005800000000
C           14.70316000000000        7.74414500000000        0.12848200000000
O           14.71878800000000        9.13967800000000        0.12441600000000
C           14.91693500000000        7.02813100000000        1.32057400000000
O           15.14978000000000        7.71083000000000        2.51321500000000
C           14.89445800000000        5.62690100000000        1.30718100000000
C           15.91846400000000        2.73206400000000        0.14320700000000
C           17.21773700000000        3.40159000000000        0.27463100000000
C           18.15206300000000        2.47442000000000        0.25997700000000
N           16.05308700000000        1.44429000000000        0.04262200000000
C           17.45895800000000        1.20051800000000        0.10844900000000
C           18.05416700000000       -0.00019000000000        0.00005200000000
C           17.30120800000000       -1.26572100000000       -0.18009900000000
C           17.86649700000000       -2.42766300000000       -0.48522600000000
C           16.81900100000000       -3.42672200000000       -0.51542400000000
C           15.67731200000000       -2.81255500000000       -0.22936800000000
N           15.89106300000000       -1.41583700000000       -0.00307800000000
C           14.36820100000000       -3.50626900000000       -0.11089900000000
C           14.34938500000000       -4.98505100000000       -0.12950500000000
C           14.49601500000000       -5.70305300000000        1.06390400000000
C           14.47473100000000       -7.10151500000000        1.05504600000000
O           14.61646000000000       -7.78679900000000        2.26177800000000
C           14.31140400000000       -7.79348100000000       -0.15893900000000
O           14.29457400000000       -9.18891500000000       -0.15995500000000
C           14.16950000000000       -7.07370000000000       -1.35948300000000
O           14.01206000000000       -7.75310400000000       -2.56669200000000
C           14.18767300000000       -5.67238800000000       -1.33946900000000
C           13.20552700000000       -2.84109400000000        0.01119600000000
C           11.88159700000000       -3.44926500000000        0.12991100000000
C           11.02258700000000       -2.45062200000000        0.18164600000000
C           11.78869700000000       -1.20799100000000        0.10165300000000
N           13.06343000000000       -1.42274300000000        0.00120800000000
H           10.07619500000000        0.15447700000000        0.13218800000000
H           10.11289200000000        2.78001700000000        0.09407700000000
H           11.93747900000000        4.57297700000000        0.08356000000000
H           14.26471000000000        5.11982500000000       -2.00129900000000
H           14.26079300000000        8.74110400000000       -2.32303300000000
H           14.86916200000000        9.67993300000000        0.96742200000000
H           15.30609300000000        7.21850400000000        3.38513600000000
H           15.05718500000000        5.07630200000000        2.22584000000000
H           17.40130400000000        4.46415000000000        0.36454500000000
H           19.21585100000000        2.65759600000000        0.33473200000000
H           18.91614900000000       -2.61257100000000       -0.66719900000000
H           16.95389500000000       -4.48148800000000       -0.71836700000000
H           14.62319000000000       -5.17529800000000        2.00135300000000
H           14.59814300000000       -8.79786600000000        2.31214500000000
H           14.18068100000000       -9.72703200000000       -1.01038200000000
H           13.91222200000000       -7.25880400000000       -3.44611000000000
H           14.07733300000000       -5.11890500000000       -2.26451300000000
H           11.62970500000000       -4.50142400000000        0.16440400000000
H            9.94758800000000       -2.54842500000000        0.26509100000000
Fe          30.93316700000000        0.02862600000000        0.00445300000000
C           34.26630599999999       -0.13347400000000        0.09306000000000
C           33.59949400000000       -1.28053800000000       -0.05933700000000
C           34.24786500000000       -2.57760600000000       -0.20851900000000
C           33.30422500000000       -3.49283200000000       -0.32094100000000
C           31.99907800000000       -2.82189800000000       -0.24648200000000
N           32.17906000000000       -1.41537000000000       -0.08095600000000
C           30.80512800000000       -3.44615300000000       -0.28758700000000
C           30.76760400000000       -4.91617900000000       -0.44772500000000
C           30.97694300000000       -5.49230600000000       -1.70812200000000
C           30.95528900000000       -6.88196700000000       -1.86369900000000
O           31.16956600000000       -7.42292300000000       -3.13157300000000
C           30.72222500000000       -7.70917400000000       -0.75013200000000
O           30.70659700000000       -9.09525300000000       -0.91234900000000
C           30.50845000000000       -7.13289300000000        0.51543500000000
O           30.27560400000000       -7.94637200000000        1.62300900000000
C           30.53092600000000       -5.73917500000000        0.66095100000000
C           29.50692099999999       -2.73106200000000       -0.16740400000000
C           28.20764700000000       -3.41117000000000       -0.11271500000000
C           27.27332200000000       -2.48831400000000       -0.02218400000000
N           29.37229700000000       -1.44018600000000       -0.12137800000000
C           27.96642600000000       -1.20544700000000       -0.02834500000000
C           27.37121700000000       -0.00019000000000        0.00005200000000
C           28.12417700000000        1.27760500000000       -0.03549500000000
C           27.55888700000000        2.46664300000000       -0.20695600000000
C           28.60638300000000        3.46268800000000       -0.12372000000000
C           29.74807300000000        2.82005500000000        0.09088000000000
N           29.53432200000000        1.40669000000000        0.15739900000000
C           31.05718299999999        3.49587100000000        0.28721500000000
C           31.07599900000000        4.96723100000000        0.43634200000000
C           30.92936900000000        5.54533900000000        1.70344200000000
C           30.95065300000000        6.93579200000000        1.85315100000000
O           30.80892500000000        7.47988300000000        3.12978000000000
C           31.11398000000000        7.76089900000000        0.72542100000000
O           31.13081100000000        9.14745600000000        0.88257700000000
C           31.25588399999999        7.18183300000000       -0.54897100000000
O           31.41332400000000        7.99369000000000       -1.67139300000000
C           31.23771200000000        5.78728300000000       -0.68791800000000
C           32.21985700000000        2.82114300000000        0.33312800000000
C           33.54378700000000        3.41193900000000        0.52001200000000
C           34.40279800000000        2.41386800000000        0.45822100000000
C           33.63668700000000        1.18831100000000        0.23789700000000
N           32.36195400000000        1.41306500000000        0.16244100000000
H           35.34919000000000       -0.16883700000000        0.11380500000000
H           35.31249200000000       -2.77313700000000       -0.22165300000000
H           33.48790500000000       -4.55335100000000       -0.43532600000000
H           31.16067500000000       -4.86036500000000       -2.56873200000000
H           31.16459200000000       -8.42184000000000       -3.29884900000000
H           30.55622300000000       -9.72757800000000       -0.13601100000000
H           30.11929100000000       -7.55604800000000        2.54511400000000
H           30.36820000000000       -5.29625000000000        1.63609800000000
H           28.02408100000000       -4.47707300000000       -0.14381700000000
H           26.20953300000000       -2.67878300000000        0.03132700000000
H           26.50923500000000        2.67098600000000       -0.36679800000000
H           28.47149000000000        4.53365900000000       -0.20580200000000
H           30.80219400000000        4.91472900000000        2.57503100000000
H           30.82724100000000        8.47872500000000        3.29442200000000
H           31.24470400000000        9.77849800000000        0.09862400000000
H           31.51316300000000        7.60225400000000       -2.60117000000000
H           31.34805100000000        5.34221700000000       -1.66973600000000
H           33.79567900000000        4.45340800000000        0.67354000000000
H           35.47779600000000        2.50158200000000        0.55221400000000
C           23.31661200000000        0.00112200000000        0.00848500000000
C           22.10767299999999       -0.01233300000000        0.00003700000000
C           20.68614400000000       -0.00351400000000       -0.01194600000000
C           19.47447500000000        0.00392500000000       -0.00108300000000
C           24.73321700000000       -0.00555300000000        0.00901800000000
C           25.95391300000000        0.00392500000000       -0.00108300000000
130
 energy: -256.204475765679 gnorm: 0.228154699441 xtb: 6.5.1 (b24c23e)
Fe          14.51056996791334       -0.01401837838243        0.00755492644609
C           11.15918196018145        0.10055407230590        0.10814878515851
C           11.83393034292307        1.27335847776735        0.08561694466318
C           11.18247884875530        2.57153547432537        0.08498314283817
C           12.13963968398378        3.50345228344467        0.07642160186133
C           13.43140506066418        2.81942967829671        0.07266984698687
N           13.23383168816418        1.42107016927028        0.07727492714640
C           14.63864573356626        3.45431756867353        0.10297980191181
C           14.66532382038241        4.94385479779858        0.11097964571182
C           14.44876280832869        5.66405833831419       -1.06908274830268
C           14.47113932711413        7.06384324229892       -1.06313690198676
O           14.25743323619360        7.71969828144060       -2.25803013637128
C           14.70566891280477        7.75475045850989        0.14194525560034
O           14.71677554054996        9.13828084267487        0.11463944774686
C           14.91865140325227        7.02815665948677        1.32760293249525
O           15.14715306212683        7.72168701911690        2.50228087278819
C           14.89760042758681        5.63158003223314        1.30537333567862
C           15.90602680387349        2.75091846570433        0.14374556291343
C           17.19630733687879        3.41742875691145        0.27310310220029
C           18.14100792280484        2.46714560569207        0.25834549875284
N           16.05553935902707        1.44175205535601        0.05230980370971
C           17.44811318121704        1.20193453707850        0.10867626348371
C           18.04774343110379       -0.01673412846150       -0.00732648815603
C           17.28597030599503       -1.25601146312681       -0.17272145901175
C           17.86810463997056       -2.45093459110563       -0.48497520998840
C           16.84042485935611       -3.42973058204947       -0.51461420460614
C           15.66608325570878       -2.79678796202099       -0.21987822310500
N           15.88540797048063       -1.41135225973826       -0.02261856662909
C           14.38768582730605       -3.49309779600755       -0.10780078502893
C           14.36423953136934       -4.98773709047485       -0.12987031129256
C           14.49791879086835       -5.71488973199337        1.05828616938995
C           14.47281145875618       -7.11546673905914        1.04630817226184
O           14.61441426880396       -7.77596501484003        2.24936347046716
C           14.31004602521048       -7.80290409928723       -0.17257712288741
O           14.29539463516257       -9.18659884842750       -0.15009305189933
C           14.16889550338617       -7.07139644490333       -1.36592050143066
O           14.01253592266941       -7.76232701201401       -2.55443069275135
C           14.19083416516629       -5.67364627471179       -1.33721969515334
C           13.21097293699524       -2.83161339700941        0.01233124934237
C           11.89420992933552       -3.44113798457820        0.12851242296341
C           11.01250238393081       -2.43303076552993        0.18073522180486
C           11.77070743012838       -1.19544932219463        0.10191215253695
N           13.06766691333736       -1.42161164800546        0.00724944196582
H           10.07643340018542        0.14086790246521        0.13272702895597
H           10.11696188219479        2.76125079894574        0.09392928658126
H           11.96281476005281        4.57091036667938        0.08245090030321
H           14.26636938960227        5.13117948757797       -1.99693170150653
H           14.26834048091456        8.70563588584895       -2.28075579144957
H           14.86711254325796        9.62997416592411        0.95568705939558
H           15.29668633396785        7.21438959908220        3.33480765503556
H           15.05729576129431        5.07869870113635        2.22408609306625
H           17.38103185399473        4.47554819691591        0.36411604672576
H           19.20737359498677        2.63702167619040        0.33298020359497
H           18.91684985992550       -2.62315975079295       -0.66916416629794
H           16.96459654287375       -4.48159648165739       -0.72098205217795
H           14.62327713375404       -5.18640634292494        1.99761412085039
H           14.59382746629870       -8.76181563443026        2.26928422400676
H           14.18291769677695       -9.67651744124400       -0.99829946753736
H           13.91861565103284       -7.25439482264738       -3.39479169456239
H           14.07817664369967       -5.11990509986316       -2.26228889717834
H           11.65272077913797       -4.49570677905247        0.16282054908404
H            9.94133764777433       -2.53182532816506        0.26534213648418
Fe          30.91474724738859        0.01267793087755        0.00908533210171
C           34.26619892829893       -0.11254031479025        0.09603282151722
C           33.59144532389200       -1.27522836949978       -0.05928592262450
C           34.24288860428862       -2.56496907403976       -0.20705786251154
C           33.28571128253893       -3.48990072411103       -0.32119050836745
C           31.99393538632189       -2.80983782717979       -0.24738638397586
N           32.19153546336560       -1.42102153930364       -0.08432292896202
C           30.78662747732039       -3.44399329072875       -0.28923437636302
C           30.76001820002708       -4.92488934092464       -0.45011976108356
C           30.97661475479095       -5.50673173465721       -1.70420107630627
C           30.95424539373319       -6.89817827956194       -1.85695593990224
O           31.16795261936763       -7.41437690126323       -3.11848735013563
C           30.71971546841922       -7.72122892576087       -0.73795619560203
O           30.70861029950833       -9.09274985842751       -0.92190308795839
C           30.50673550232866       -7.13370018220680        0.52241421478495
O           30.27823462132961       -7.95591105094123        1.61091104657702
C           30.52777744799201       -5.74359632453014        0.65862116014540
C           29.51915563625888       -2.74968326826668       -0.16902042623747
C           28.22900589160234       -3.42669399623003       -0.11605293020451
C           27.28413079594171       -2.48095475975819       -0.02298976222861
N           29.36925172759161       -1.43850312707195       -0.11145702243750
C           27.97645955994708       -1.20683734930532       -0.02809349599343
C           27.37612962064247        0.01725339518295       -0.00417763692813
C           28.13932379472384        1.26707714036485       -0.02912315024121
C           27.55733513569821        2.48970675527521       -0.20409651777711
C           28.58500282367129        3.46557630307524       -0.12258214822071
C           29.75932098731225        2.80329984543838        0.09851402064544
N           29.53993293155197        1.40442136384088        0.13745608614923
C           31.03770523346355        3.48243124599921        0.28880110478272
C           31.06114819064472        4.96993973611591        0.43628325556642
C           30.92746554182973        5.55773519974118        1.69920187140755
C           30.95257229975944        6.95064407752703        1.84605038465530
O           30.81097092164900        7.47052537879500        3.11621710499584
C           31.11533795730986        7.77180707892188        0.71293834739091
O           31.12999047838984        9.14403646743520        0.89211290965769
C           31.25648820839307        7.18027348571958       -0.55562806937242
O           31.41284810169910        8.00146346041865       -1.65816500104304
C           31.23455155689254        5.78827753632961       -0.68554075670021
C           32.21441490914929        2.81159078091495        0.33318145784438
C           33.53117329774595        3.40402090334300        0.51770073827794
C           34.41288034277075        2.39649000714133        0.45532195032798
C           33.65466941251736        1.17582131786369        0.23673311321985
N           32.35770826090764        1.41124571731284        0.16831621090284
H           35.34894866068219       -0.15537939523423        0.11588232022887
H           35.30840882763007       -2.75447879178531       -0.21967309609560
H           33.46254837315159       -4.55116439665332       -0.43619276325744
H           31.15901305802080       -4.87213470506463       -2.56567992399402
H           31.15704386763350       -8.39138620905250       -3.25282046425519
H           30.55827244144042       -9.67660756201515       -0.14200886492736
H           30.12869718098915       -7.54625399777046        2.49557534865057
H           30.36808547186378       -5.29842626340232        1.63408595455351
H           28.04438717130076       -4.48833380290450       -0.14554305233129
H           26.21783855831803       -2.65825636382140        0.03193721689115
H           26.50856831084882        2.68171717728081       -0.36752893075873
H           28.46080753486399        4.53405508132241       -0.20838838695616
H           30.80210690913492        4.92618920049892        2.57257536600855
H           30.83155642164471        8.44776480560011        3.24775118707312
H           31.24246712373271        9.72693908002038        0.10490316079728
H           31.50676909365104        7.59205646545531       -2.55068232953036
H           31.34720774491674        5.34295829825081       -1.66741306787198
H           33.77266284511150        4.44790542214861        0.67131828136425
H           35.48404523903486        2.48505828915301        0.55058134802613
C           23.32825377802748        0.00123666257959        0.00832640683513
C           22.09820578559007       -0.01318329004434       -0.00204982046766
C           20.70398650648772       -0.01048327742400       -0.01141658372971
C           19.47690426196068       -0.02239078448651        0.00250033347191
C           24.72059901348593        0.00209572073195        0.00535673657874
C           25.94801914644471        0.02922136477418        0.00597837032378
130
 energy: -256.264271760275 gnorm: 0.084805434154 xtb: 6.5.1 (b24c23e)
Fe          14.53766074661248       -0.00023138995619        0.01029807202626
C           11.16575028277376        0.07932323267709        0.10829695933467
C           11.84793041800382        1.27240915086742        0.08352590035092
C           11.19210544608259        2.55789965511559        0.08473239620605
C           12.16058926431682        3.49699268077294        0.07510161619799
C           13.43427553257113        2.80520027698759        0.06945356298469
N           13.22127058851723        1.43190273344677        0.07620332535019
C           14.66043755805565        3.44765523170107        0.10237483139359
C           14.67055572825468        4.94849516991856        0.11108851246661
C           14.44983254437506        5.67256757678871       -1.06213684970765
C           14.47210635723340        7.07274899950311       -1.05591230470867
O           14.25900845655594        7.70653426347769       -2.24404394839048
C           14.70711668478658        7.76173624401732        0.15017999599497
O           14.71389682742874        9.13440470528249        0.10075116542066
C           14.91977528708801        7.02886298567666        1.33069917930723
O           15.14323501162263        7.73769403642769        2.48608356004777
C           14.90086488477233        5.63567807637948        1.30443222801371
C           15.89225455622806        2.76875041542145        0.14488300528542
C           17.17350470882582        3.42420308735639        0.26892075545223
C           18.12272186242157        2.45595732045334        0.25569540802668
N           16.06046008851860        1.42929806092818        0.06396705546082
C           17.43253776559039        1.20228591702830        0.11386851487939
C           18.04570936843412       -0.03979153193359       -0.01256133823306
C           17.27381188587679       -1.24367004511125       -0.16976041905018
C           17.86539297047214       -2.47783019543758       -0.48178466963190
C           16.86732944852112       -3.42611368423064       -0.50869746302297
C           15.65568911922857       -2.77693016280940       -0.21467661294461
N           15.89229705112476       -1.41211107397282       -0.03857499270280
C           14.41713174836955       -3.47300525225929       -0.10760557709068
C           14.38203996676270       -4.98407395666898       -0.13212270371338
C           14.50261049718623       -5.71979797160878        1.05021011897982
C           14.47209886829591       -7.12136070909686        1.03859240897166
O           14.61162452913765       -7.76056528882535        2.23506580158993
C           14.30935293297118       -7.80727661464178       -0.18082468544922
O           14.29664381194763       -9.18045522894900       -0.13607197869819
C           14.16913610170581       -7.06773415275138       -1.36793739594552
O           14.01270327192728       -7.77481217504834       -2.53615206833782
C           14.19631283632746       -5.67260281839299       -1.33566211062462
C           13.21655220469350       -2.81480521678181        0.01623439523900
C           11.91167750083230       -3.42604881983414        0.12717858388058
C           11.01083298758719       -2.41572235455140        0.17804563520013
C           11.75370024546875       -1.18155715542199        0.10291905938562
N           13.07744239474736       -1.42326504485587        0.01679415229542
H           10.08187724744098        0.13143414305453        0.13457144450104
H           10.12561931013326        2.73845302493205        0.09401139268268
H           11.99346216640549        4.56505600892493        0.08097385822258
H           14.26839652820046        5.14243025090355       -1.99193442218921
H           14.27798871794765        8.67237709867543       -2.22584936514093
H           14.86620417950056        9.57198465291393        0.94915665788943
H           15.28646331522797        7.20778284035986        3.28021670945370
H           15.05910071500804        5.08269029239807        2.22401704470465
H           17.35876071310757        4.48077788145507        0.36185024542044
H           19.19160626692294        2.61159475480087        0.33005807684846
H           18.91586575022928       -2.63118267533547       -0.66774532087310
H           16.97234469920868       -4.47825703358929       -0.71933410773107
H           14.62531620890163       -5.19666583626377        1.99311870664786
H           14.58740234494716       -8.72663461209063        2.21344638322376
H           14.18456026711591       -9.61701883317238       -0.99130011113627
H           13.92536679880557       -7.24649706646454       -3.33907040195735
H           14.08060825385866       -5.12152076125537       -2.26245409634110
H           11.68223484494615       -4.48347581727560        0.16042538406637
H            9.94114028292231       -2.51506839578530        0.26401490300214
Fe          30.88770359325936       -0.00123609656060        0.01023078652170
C           34.25962807803445       -0.09146551759953        0.09858331156430
C           33.57742344235348       -1.27404137992807       -0.06125837219804
C           34.23323229303413       -2.55139462792014       -0.20576481392782
C           33.26473619752854       -3.48333415449428       -0.32176709978865
C           31.99103637099403       -2.79533961774149       -0.24896877526680
N           32.20406353120523       -1.43164231075979       -0.08661637294212
C           30.76481832614395       -3.43728345566944       -0.28909012797809
C           30.75473624831172       -4.92949076749544       -0.45054473287103
C           30.97552292366854       -5.51595859931488       -1.69826410055110
C           30.95327942115908       -6.90783120087366       -1.85078461537814
O           31.16637978810800       -7.40286965244454       -3.10309604152541
C           30.71826935514117       -7.72909376781852       -0.73056620852088
O           30.71148908097113       -9.08731368249597       -0.93526291267768
C           30.50561404194383       -7.13473898934702        0.52540816877403
O           30.28215982671642       -7.96996677810774        1.59300102791054
C           30.52449750770354       -5.74754716728675        0.65721570197605
C           29.53293993057288       -2.76749330937940       -0.16989812038623
C           28.25176882369118       -3.43285268197258       -0.12095944041202
C           27.30242923031768       -2.46939846627956       -0.02428334233438
N           29.36457196122731       -1.42746791480089       -0.09845744799550
C           27.99234521114727       -1.20767561501300       -0.02318317388163
C           27.37919958259265        0.04067660628886       -0.00687538052641
C           28.15190542584012        1.25448911981828       -0.02750693133299
C           27.56016006650586        2.51600219732717       -0.19774420428702
C           28.55813557678825        3.46134628613055       -0.11715521423962
C           29.76978338028695        2.78307497968586        0.10142985948234
N           29.53329273582520        1.40708926768327        0.12189002454528
C           31.00830605616499        3.46249288116155        0.28670069576437
C           31.04336458080018        4.96658132667102        0.43362796476532
C           30.92277809967197        5.56353616225316        1.69173445119604
C           30.95328557850149        6.95738145649403        1.83905219941973
O           30.81376047452551        7.45684830852739        3.10026556208680
C           31.11603174717412        7.77709164651950        0.70523765725075
O           31.12874104485211        9.13634637670774        0.90534579846717
C           31.25624832687227        7.17687267366735       -0.55805074376758
O           31.41267973848441        8.01180202631129       -1.63859331411754
C           31.22907690493554        5.78707738269846       -0.68411721288985
C           32.20887171493008        2.79447849158808        0.33515483068097
C           33.51373522811214        3.38919404208305        0.51466930375874
C           34.41457586290763        2.37960760692510        0.45068835780793
C           33.67170441242661        1.16192024017442        0.23615830576680
N           32.34797925658138        1.41184461959961        0.17797911825547
H           35.34350149367857       -0.14622596776691        0.11878032674490
H           35.29972412807273       -2.73183903155488       -0.21701296217712
H           33.43189122856435       -4.54517761464515       -0.43699842246561
H           31.15697586286973       -4.88387301561598       -2.56199488530170
H           31.14739664685510       -8.36455292685537       -3.19449575635832
H           30.55918069675312       -9.61824523407415       -0.14192782046799
H           30.13892112348012       -7.53349700788683        2.44208450957451
H           30.36627188046302       -5.30237957275859        1.63356553468924
H           28.06657588710203       -4.49317983767840       -0.14840765715376
H           26.23356989560657       -2.63257925929656        0.03191296314771
H           26.50964106088571        2.68937554760255       -0.36518628826837
H           28.45303444464925        4.53056900392721       -0.20718129777849
H           30.80007031835740        4.93689499374269        2.56926815927651
H           30.83798168177386        8.41914209509620        3.18828571682678
H           31.24082430482773        9.66703272171627        0.10511142071926
H           31.50001710384329        7.57789595452517       -2.49621851655756