130
 energy: -256.315010661723 gnorm: 0.000569935817 xtb: 6.5.1 (b24c23e)
Fe          14.72328755616597        0.05790669520384       -0.02118096206156
C           11.33235299422130        0.08486702402248       -0.14707969858995
C           11.98173051771577        1.29942796785015       -0.07705306139724
C           11.29755901017904        2.55664030999443       -0.04482630485991
C           12.25113854557660        3.51461292368582        0.02187035457482
C           13.51750860153282        2.84037243050598        0.01950535852828
N           13.33850802583524        1.48390364850062       -0.02263015808065
C           14.74255712452202        3.49604106254379        0.07916422801139
C           14.75246648978731        4.97938960534614        0.10506531732850
C           14.25097898813089        5.70171269150317       -0.97772764744756
C           14.26899222260269        7.09144968751335       -0.95628059593312
O           13.79301810479078        7.80364302538172       -2.00615272913813
C           14.78137908064901        7.76302322282811        0.15507768949248
O           14.78314601481106        9.13285079976516        0.14914487879152
C           15.27699975333195        7.04105258875563        1.23794909659145
O           15.75903690517075        7.76982570771698        2.29297433015384
C           15.26900421561546        5.65195808093704        1.21572022825775
C           15.95689200136584        2.82501745496404        0.11159727908005
C           17.22894340982879        3.48423443058514        0.12361958777871
C           18.17264615846515        2.51297290168685        0.14730711330865
N           16.12655545269940        1.46043812427195        0.11311564997892
C           17.47530193601926        1.26576158634581        0.14001743916163
C           18.13154909161846        0.02897576063809        0.15542679816762
C           17.45607427138787       -1.19695623671826        0.12187712462280
C           18.13385487343205       -2.45533284700929        0.11994133359940
C           17.17617535224458       -3.41083005396618        0.06070714314668
C           15.91501866136632       -2.73117683762273        0.03457850729139
N           16.10509291125060       -1.36956486853292        0.07159287002778
C           14.69338867009443       -3.38112632429739       -0.06130555454541
C           14.68121895983900       -4.86466131908433       -0.10135683651148
C           15.12645012924378       -5.59904139357640        0.99747672058092
C           15.11212034685048       -6.98850645002876        0.95822275155831
O           15.53358587434700       -7.71293249514311        2.02298650021990
C           14.66164006943890       -7.64701782895875       -0.18727368038579
O           14.66462481576630       -9.01695956967149       -0.19925257756125
C           14.22221036344784       -6.91260763782748       -1.28589324983103
O           13.80040939471798       -7.62888914339882       -2.37497484120254
C           14.22466981148535       -5.52386146297308       -1.24558945900683
C           13.47958660950549       -2.70551383743438       -0.12811682659512
C           12.20522243555372       -3.36090280983549       -0.19217375368798
C           11.26506974425251       -2.38740757512854       -0.21826236505760
C           11.96555644944527       -1.14039102411642       -0.16092284951981
N           13.31876442919518       -1.34650927677395       -0.09905250221759
H           10.24895742446642        0.09359316822677       -0.19060837296303
H           10.22530693126210        2.67010010137621       -0.06611714366951
H           12.12119267579374        4.58316163986800        0.07615135872199
H           13.86450731772661        5.19060125413098       -1.84995932963154
H           13.89337974339588        8.74878051923138       -1.80481270286460
H           15.17005196404046        9.43533892933374        0.98614048724277
H           16.08240650769330        7.18871528863919        2.99378999846351
H           15.64519219538675        5.09610786124372        2.06646760388602
H           17.37274520605344        4.55209907672883        0.10190182461045
H           19.24565064801082        2.61640412637342        0.16075171391215
H           19.20465758729232       -2.57562843139019        0.15219511945190
H           17.30267497208183       -4.48043672787060        0.02521548787713
H           15.46743048051848       -5.09763564730983        1.89389941056009
H           15.44753163048474       -8.65560364693880        1.80425488923953
H           14.32506599810079       -9.30954420456571       -1.05999529721192
H           13.52058260114780       -7.03930721740681       -3.08737869612850
H           13.89197261623519       -4.95785524081493       -2.10775446417468
H           12.06078731418721       -4.42903345864116       -0.20307186596958
H           10.19198859919080       -2.48469751356438       -0.26437297417269
Fe          30.70202782217064       -0.05572241654189       -0.02821324400906
C           34.09286517195991       -0.06810507684567       -0.15793914412061
C           33.44363034090701       -1.28295258395136       -0.22414534358117
C           34.12787829837004       -2.53580859965654       -0.33315377659034
C           33.17432966870528       -3.49522674815143       -0.37490060698390
C           31.90793033437709       -2.82500662299687       -0.30196789890663
N           32.08686444016106       -1.47242541955557       -0.19097675478473
C           30.68287145327165       -3.48313330492666       -0.31790316936424
C           30.67289974270139       -4.95990300244595       -0.45985911668129
C           31.17483190148526       -5.55540288202627       -1.61705182535170
C           31.15655801219042       -6.93867657469660       -1.75268930658579
O           31.63283513490630       -7.52787117416383       -2.87609168547211
C           30.64361664370198       -7.73135501144084       -0.72447539630656
O           30.64167390321873       -9.09175741225343       -0.88503999122903
C           30.14763021648779       -7.13620262768560        0.43280230540261
O           29.66508236275075       -7.97934161953981        1.39861818379960
C           30.15574420628131       -5.75348445825546        0.56751460382460
C           29.46849246930682       -2.82001842295694       -0.21070522566667
C           28.19643172357735       -3.47618625868900       -0.27478215578232
C           27.25273403329365       -2.51389509577663       -0.14092335653099
N           29.29886039321519       -1.46448523399029       -0.05376079459373
C           27.95012369846341       -1.27408564338955       -0.00530377215979
C           27.29393146647346       -0.04723220328093        0.15196888159088
C           27.96942711031819        1.17445745631586        0.25916935151880
C           27.29168664330067        2.42469509824802        0.40204475616046
C           28.24928704935163        3.38085330463003        0.45090335600797
C           29.51042790232319        2.70885480781701        0.34559922689044
N           29.32037335530187        1.35186761318729        0.22740274677522
C           30.73192492421500        3.36577182672076        0.32189634870351
C           30.74404301616163        4.84419421921232        0.45065927476286
C           30.29775080776530        5.44891000464692        1.62545979825569
C           30.31191929588396        6.83381242878701        1.74451272863408
O           29.88910382966678        7.43238970316868        2.88428114355349
C           30.76362801650280        7.61834249318287        0.68190842586210
O           30.76074138478916        8.98073438670765        0.82589679975359
C           31.20422665621101        7.01363065058869       -0.49264926765063
O           31.62743811937615        7.84912920677264       -1.49260673691052
C           31.20162776721743        5.62932205039689       -0.61069024011271
C           31.94563088749337        2.70226102811856        0.17679895611497
C           33.21997122228441        3.36078795208600        0.18538020726818
C           34.16004503417584        2.39652937283276        0.04852002346239
C           33.45958496894582        1.15091996493025       -0.03402175233017
N           32.10645394529062        1.34866148401632        0.05216758151348
H           35.17624269350154       -0.07175146222011       -0.20265517213273
H           35.20014288300015       -2.64613951771788       -0.36667448499260
H           33.30426853429534       -4.56310212627528       -0.44107852042474
H           31.56181623305974       -4.94914668116744       -2.42580714512302
H           31.53214386233022       -8.48967099434068       -2.78281744338070
H           30.25446661866238       -9.48673730708942       -0.08766028778897
H           29.34180083918745       -7.48100030272460        2.16056502227737
H           29.77917691676025       -5.29714157381942        1.47537452175417
H           28.05264993387199       -4.53457922362006       -0.41834692872264
H           26.17971626939518       -2.61808208674848       -0.13995353774544
H           26.22094434788537        2.54038969657203        0.44939885817411
H           28.12260741605810        4.44748333908371        0.53778214841282
H           29.95600343769884        4.84882980463585        2.45876496030381
H           29.97526078258413        8.39383186138057        2.77436854774891
H           31.10148593311141        9.36931638689582        0.00453040905765
H           31.90850807676657        7.34439516432783       -2.26705033814777
H           31.53507883765207        5.16513087764781       -1.53142123667448
H           33.36459069861301        4.42332268358148        0.29487782324274
H           35.23306725986327        2.49852574911280        0.01230687729161
C           23.32788177399240       -0.01789341657915        0.22555403481460
C           22.09758118958035       -0.00555967863430        0.22609111504867
C           20.75691757806425        0.00582720613198        0.21270685619162
C           19.53137291105579        0.01768162129375        0.19159240115729
C           24.66856321259780       -0.02869006947251        0.21206539097039
C           25.89407459934275       -0.04011322412479        0.18922729678614
