316
 energy: -553.963287923081 gnorm: 0.000838346058 xtb: 6.5.1 (b24c23e)
C           59.37159725626709       -0.01191794891618       -0.09826880469867
C           59.97283690416748        0.98957945364022       -0.85198246582038
C           59.32173319122178        1.99202938371494       -1.62243988789238
C           60.28681853831488        2.76895403545779       -2.20247576724023
C           61.55291553435574        2.26312589378183       -1.80241698286062
N           61.31799106454781        1.19428024239688       -0.99178361578173
C           62.81863489584396        2.75810231823785       -2.16391709444645
C           62.83644661867294        3.88173737293760       -3.01966735971361
C           62.84820235471489        4.84745044204779       -3.75443019064469
C           62.86759884197188        5.97268789898224       -4.60966940672012
C           61.68074478999453        6.55563315449445       -5.06942852948156
C           61.75419129361195        7.65572901063295       -5.90494263768153
N           62.90539241068679        8.19465339455093       -6.29879865310138
C           64.03795604784419        7.64615184072780       -5.86640680701043
C           64.07408629388327        6.54547153418075       -5.02897407849267
C           64.04980381609067        2.22815268229240       -1.74430319304740
C           65.33041068747077        2.77674564834335       -2.14576697591424
C           66.27287960946244        2.01532096912584       -1.55120767068484
N           64.22575142942961        1.16129671186628       -0.92774435924448
C           65.56214004064256        1.00601686930133       -0.79018082422779
C           66.21419162021162        0.02175022478354       -0.02477475652270
C           65.58760838690456       -0.98574644587455        0.73395559298711
C           66.23269851603395       -1.98844088313402        1.50366927552895
C           65.26361291077039       -2.76872625636787        2.07452933208149
C           64.00195506809364       -2.26162656817968        1.66841130148222
N           64.24427084279766       -1.18674988087445        0.86156190537940
C           62.73749379244268       -2.76253367648733        2.02422189194599
C           62.71876168445136       -3.89214763162544        2.87057324507373
C           62.70608154551500       -4.86499334886560        3.59625615980445
C           62.68228042034617       -5.99865084059383        4.43976204443654
C           63.86568993196514       -6.59434695050089        4.89204308831430
C           63.78549093972030       -7.70350992499569        5.71500734198754
N           62.63117220832266       -8.23965175347884        6.10327359157725
C           61.50170781521970       -7.67909729267204        5.67780509643963
C           61.47226140734892       -6.56876075940231        4.85328758050765
C           61.50549445147719       -2.22907209919609        1.60488092107111
C           60.21836182613677       -2.77418113599070        2.00009640581028
C           59.28232951177984       -2.00457901964723        1.40821837209616
C           60.00090382593013       -0.99308524790730        0.65284503694023
N           61.34232325008661       -1.16231417370395        0.79751422332166
H           58.28636865897264       -0.01922321145249       -0.10568582203465
H           58.25232192372797        2.09537334703425       -1.71384560960912
H           60.14499337497129        3.61868572445765       -2.85090420662192
H           62.03902884392097        0.63051055654520       -0.55424238210743
H           60.72154396155916        6.14854113101721       -4.77316739074430
H           60.84933196575501        8.12799281160165       -6.27650061947687
H           64.95891984067731        8.11065321295737       -6.20700915096174
H           65.01948808823589        6.13054736853477       -4.70085122148268
H           65.46110634105455        3.62840608157757       -2.79409287303693
H           67.34602323897691        2.10521144270601       -1.60479684559757
H           67.30125026770367       -2.09229730274160        1.60144259886526
H           65.40200499776149       -3.62093113110062        2.72020234141148
H           63.52593875418514       -0.62176474535065        0.42073621224183
H           64.82756708205167       -6.19049943286068        4.59991003014006
H           64.68760143354126       -8.18572702546903        6.08056866413423
H           60.57812455406308       -8.14187058149030        6.01356214074270
H           60.52968932938738       -6.14372799051593        4.53005796466491
H           60.08313103520815       -3.62889269258293        2.64375974142930
H           58.20794339386708       -2.08708016557939        1.45755429300676
C          130.47512926497461       -0.12156056991364        0.02855098530230
C          129.86871486563862       -0.96902617200897        0.94872354514358
C          130.51423083424726       -1.84026276036995        1.86882966834487
C          129.54496222797565       -2.48660076946507        2.58602713482647
C          128.28194892946658       -2.02797813218023        2.12440944521490
N          128.52264228414020       -1.11823543360204        1.13996468273022
C          127.01339280012570       -2.42280131309892        2.58563805859353
C          126.98767523787424       -3.38115900215781        3.62305490750663
C          126.96832211774179       -4.20465063980174        4.51417169973910
C          126.93340097631264       -5.16278115626239        5.55285469345345
C          128.11051630116441       -5.69280689824308        6.09406438096090
C          128.01946221557304       -6.62827510565321        7.10928114135445
N          126.86018131081470       -7.05525702389536        7.60348975381793
C          125.73658612592783       -6.55635004201426        7.09417555142207
C          125.71810851098596       -5.61752826801572        6.07826682399161
C          125.78576749829543       -1.94370418572533        2.10017969010877
C          124.50231583110430       -2.38021187398109        2.61396129733774
C          123.56435425308011       -1.71317666454393        1.90916921701317
N          125.61574364739414       -1.03440243823983        1.10962064439182
C          124.28074944863094       -0.87403339351035        0.96793813997212
C          123.63263184241548       -0.03288327834995        0.04409889932982
C          124.26380240193475        0.80159785874261       -0.89863063733359
C          123.62447803518157        1.65199485243165       -1.83766961316022
C          124.59816846693290        2.29285772400433       -2.55552911575799
C          125.85695923650786        1.85009540091196       -2.07253634806379
N          125.60834498816911        0.95082819553337       -1.07525025910215
C          127.12447907122473        2.25722794317723       -2.52417722208649
C          127.15088929271823        3.20543787113901       -3.56956263530979
C          127.17051734638162        4.01926108661017       -4.46984232912668
C          127.20342195928012        4.96430144953755       -5.52013574980008
C          126.02409285800483        5.45510968845938       -6.09315295903418
C          126.11147499664983        6.37736205295219       -7.12058274125403
N          127.26925708205557        6.82761443310945       -7.59761545234899
C          128.39477069425561        6.36639369218561       -7.05792256264206
C          128.41701864874108        5.44338087234665       -6.02772051674991
C          128.35345444978398        1.79447640023400       -2.02028970354094
C          129.64366355147612        2.24334588487984       -2.51406711845449
C          130.57530590180477        1.57853149168491       -1.80077143943567
C          129.85095892203094        0.72614875857347       -0.87401542460527
N          128.51051311378674        0.88690311042054       -1.03633407253530
H          131.56032228377012       -0.13248642110768        0.02245299692990
H          131.58293598277379       -1.95018413748482        1.96074783642622
H          129.68204041340522       -3.21718044557651        3.36710670277906
H          127.80470288643177       -0.62191615888070        0.62281792367770
H          129.07607187906802       -5.37310741236911        5.72120958667936
H          128.91660246401580       -7.05598857165522        7.54757955229772
H          124.80857339646977       -6.92657095099432        7.52033517463136
H          124.77972003935176       -5.23778553077308        5.69243888838079
H          124.36671345283247       -3.09954812384539        3.40573010736945
H          122.49091234831249       -1.76555256675311        1.99580412506274
H          122.55649136070534        1.75424357304435       -1.94323337834269
H          124.46460459849258        3.00973006230923       -3.34960963323788
H          126.32381410838614        0.46608946188316       -0.54357170031436
H          125.05984400972717        5.11502504155333       -5.73506182728982
H          125.21264655775983        6.77429413414818       -7.58366853372489
H          129.32136045582223        6.75478668506762       -7.47084188979543
H          129.35692022619307        5.09424891327863       -5.61755802317591
H          129.78382369792834        2.96884573856767       -3.29963478638770
H          131.65014987052399        1.63649643511366       -1.87065367764691
C           71.41680707461363        0.01355273594407        0.04196274070149
C           70.18908563516432        0.02423566405471        0.02719422399504
C           68.84407877921157        0.02811223446943        0.01065395541340
C           67.62083123806306        0.02900064426624       -0.00763830697336
C           72.76167324744200       -0.00210774663831        0.05142161870029
C           73.98503874286216       -0.02061363529717        0.06051515273866
C           87.49781963645016       -0.09921106133148        0.03135462218723
C           86.26905067022193       -0.10208921759682        0.03208668925639
C           84.92566368637242       -0.10498312320394        0.03531371203661
C           83.70134736467867       -0.10845162902286        0.03726181209330
C           88.84118752987176       -0.09684158362720        0.03038141460584
C           90.06552645184252       -0.09424172112911        0.03388140373628
C          103.57842042656894       -0.07247827223527        0.03015566809649
C          102.34966637657783       -0.06826775308636        0.02788103144341
C          101.00635275699760       -0.06616057109045        0.02751144402927
C           99.78201368521745       -0.06671130455367        0.02545569863768
C          104.92176030415254       -0.07745316558857        0.03321005266808
C          106.14604170095515       -0.08233408962438        0.04098617544626
C          119.65816614459030        0.00291885667050        0.05834415515296
C          118.43012431037215        0.00322862824920        0.06098095192650
C          117.08550221047207       -0.00164114978813        0.06350072074559
C          115.86183573915208       -0.01182136961972        0.06161951670616
C          121.00291541934635       -0.00400772281373        0.05418756176184
C          122.22641436624203       -0.01682987719168        0.04918496024371
C           75.39072184493553       -0.04452533325666        0.05903600903541
C           76.01287693641818       -0.29167534518955       -1.18049267996137
C           75.36780143471550       -0.52630490838980       -2.42123725296463
C           76.33796965189835       -0.73232359417020       -3.36590759502343
C           77.59837020316097       -0.62659127070792       -2.72449219176118
N           77.35641689972203       -0.35973204582839       -1.40787280259487
C           78.86305753922645       -0.76719139745098       -3.32547068444045
C           78.87027887699242       -1.05367053437426       -4.70894882195746
C           78.87557140512851       -1.30193335040915       -5.89680546854736
C           78.88980342844231       -1.59181681926037       -7.28019712382835
C           80.09472693227026       -1.77108817358528       -7.97014840402481
C           80.05626288100292       -2.05391654470089       -9.32363920697354
N           78.92248751388301       -2.16540887402619      -10.01151395458768
C           77.77315741099277       -1.99663508087073       -9.36301382012425
C           77.70205815278266       -1.71126527970227       -8.01096992256915
C           80.10061342506563       -0.64598657235845       -2.67510987458911
C           81.37293220978674       -0.78915877182400       -3.35513424266244
C           82.32713605563281       -0.60114781880522       -2.41928379974511
N           80.29300235857427       -0.38063673534308       -1.35963188087867
C           81.63129623595724       -0.34753665377259       -1.17305577652980
C           82.29737255563985       -0.10857851672160        0.04409236900188
C           81.67417738988810        0.12868742755075        1.28586006705045
C           82.31912980712654        0.35796067862592        2.52753302605025
C           81.34863774452148        0.53338167870678        3.47810887127335
C           80.08813619314118        0.41724370408849        2.83870584184420
N           80.33070655306132        0.17372648676530        1.51732479434466
C           78.82336147839999        0.53229797736398        3.44424112804467
C           78.81455992588363        0.77611763314947        4.83576829664158
C           78.81103580120515        0.97999551820886        6.03209996751610
C           78.79829252310799        1.21215524673834        7.42635327939068
C           77.59466708626566        1.31458088940195        8.13394737342673
C           77.63664088560857        1.53963300805813        9.49821042831336
N           78.77243730521856        1.66561092953524       10.18019976719089
C           79.92062526679267        1.57032714233248        9.51481657537976
C           79.98828321541168        1.34638644582307        8.15114523000392
C           77.58567977423472        0.42664294320934        2.79029469480273
C           76.31320827062501        0.56940185676212        3.47036747481217
C           75.35936385387053        0.41187920488132        2.52864625808553
C           76.05536819630294        0.17155877010279        1.27986168953254
N           77.39424846344167        0.18735923770368        1.47048496537585
H           74.29941991264593       -0.53629797218944       -2.56449385809673
H           76.19904461178912       -0.93878665518182       -4.41486718499780
H           78.07225744984342       -0.23252447297188       -0.70023624638943
H           81.04036029334267       -1.68882318790034       -7.44816522628118
H           80.97552633499035       -2.19798382634556       -9.88396515945431
H           76.86731728461480       -2.09451503759129       -9.95437763639067
H           76.74374406399993       -1.58154288386431       -7.52273271423107
H           81.49059716852680       -1.00259810428415       -4.40550261619020
H           83.39895939807435       -0.62749544496126       -2.53338992285684
H           83.38766213141672        0.38274086040457        2.66787380942703
H           81.48722467116099        0.72703047141692        4.52955324025441
H           79.61516001931496        0.04326949225538        0.80998361189192
H           76.64727043017342        1.21783092228714        7.61762780702304
H           76.71847139659779        1.62268621659128       10.07256265962703
H           80.82820494451592        1.67806221248722       10.10181786068673
H           80.94552194626564        1.27524248310662        7.64888062037699
H           76.19515401295359        0.76511386144167        4.52412956884532
H           74.28759308373650        0.44891280925167        2.64015324439712
C           91.46944956901380       -0.09358103435679        0.03296207536119
C           92.09783251417048       -0.34298998753062       -1.20399757567851
C           91.45770001844015       -0.59790737980931       -2.44297017730822
C           92.43196066296535       -0.78995092744392       -3.38666326813079
C           93.68974188499638       -0.65563604588848       -2.74592700208358
N           93.44218176366029       -0.38645857864545       -1.43052220129231
C           94.95707334726271       -0.77388470176461       -3.34630009974363
C           94.96961276257362       -1.06395818176698       -4.72894728512150
C           94.97586706199247       -1.31824291999214       -5.91554633151633
C           94.99016919865230       -1.61631506094097       -7.29720954998142
C           96.19457213875044       -1.77698605382961       -7.99236373984349
C           96.15420400069959       -2.07008496555400       -9.34380097405918
N           95.01932773509093       -2.20849060353408      -10.02461737141162
C           93.87021819225416       -2.05702884437173       -9.37110778909547
C           93.80097504363174       -1.76352695751966       -8.02087982466974
C           96.19214921490658       -0.63096081524401       -2.69559126688990
C           97.46698999136230       -0.75713886958544       -3.37412442691814
C           98.41757121316107       -0.55966334130329       -2.43646926033366
N           96.37938409392072       -0.36341028414042       -1.37986759367091
C           97.71702114920036       -0.31539592686002       -1.19113368045064
C           98.37813981646539       -0.07063047236901        0.02752028769006
C           97.74993483520451        0.16906031827210        1.26646208649067
C           98.39008941224537        0.41301845757447        2.50763761105267
C           97.41587317497864        0.59056449773604        3.45420442352753
C           96.15804266273993        0.45990227612962        2.81272510942994
N           96.40559651858688        0.20660507882707        1.49416653463093
C           94.89073861209464        0.56991487549530        3.41469863815289
C           94.87821303220048        0.83037023357309        4.80326118210366
C           94.87150656111474        1.04835877243275        5.99706952458273
C           94.85720452416764        1.30012981182388        7.38794505009084
C           93.65282173554931        1.41485600919569        8.09216750711621
C           93.69322933772273        1.65920419803590        9.45328243861184
N           94.82811872197784        1.79245851767094       10.13509848783647
C           95.97723211734601        1.68514656897113        9.47287464936988
C           96.04643736902368        1.44189762877153        8.11270489933616
C           93.65555081723610        0.44288930191955        2.76080359856227
C           92.38068396355000        0.57521072372998        3.43812560329767
C           91.43001289301067        0.39327887109129        2.49741326775039
C           92.13049687239322        0.14929238938220        1.25199641953489
N           93.46823317141131        0.18653943204763        1.44287925616952
H           90.38973902485104       -0.62941841748892       -2.58620958892092
H           92.29718825056665       -1.00515844022008       -4.43439299586564
H           94.15553887637377       -0.24077545780693       -0.72394483522949
H           97.14146138194660       -1.67307898030464       -7.47653350161091
H           97.07324502362633       -2.20038019217437       -9.90789496665488
H           92.96343337401652       -2.17665096782972       -9.95697789018679
H           92.84314030961228       -1.64871565585882       -7.52795073596494
H           97.58897721849553       -0.96736621344188       -4.42464198620539
H           99.48980189624680       -0.57289225767109       -2.54902221848769
H           99.45804590445691        0.44652112457998        2.65051203730471
H           97.55062359379892        0.79449482383993        4.50419425576675
H           95.69218942342701        0.06507792068462        0.78679421825543
H           92.70591296260001        1.31287065032240        7.57594649458857
H           92.77419983322768        1.75244507213705       10.02470890151424
H           96.88400885859387        1.79922532758991       10.05990589195367
H           97.00423781753393        1.36152869979966        7.61291611503841
H           92.25866411777787        0.78023516672163        4.48967065687355
H           90.35775197244195        0.41582875089984        2.60819655173117
C          107.54996778079044       -0.08371112027963        0.04519705669506
C          108.18283120847653       -0.32282584824347       -1.19132583552918
C          107.54752150520032       -0.57145494119859       -2.43419480291972
C          108.52537877521209       -0.75127693158836       -3.37638504841286
C          109.78080241287570       -0.61480612540359       -2.73109229949876
N          109.52802562763131       -0.35780813346187       -1.41423472149753
C          111.05013708186684       -0.71703966092000       -3.32954774606784
C          111.06785579595518       -0.99717301903154       -4.71412955954758
C          111.07730395849076       -1.24504201270081       -5.90208600886987
C          111.09077548109846       -1.53869060210132       -7.28465272663498
C          112.29406958865502       -1.69193727952904       -7.98334090726977
C          112.25142082174951       -1.98286113589495       -9.33523629446744
N          111.11544475186015       -2.12571007736642      -10.01320332825854
C          109.96730795694396       -1.98068635184160       -9.35639687214264
C          109.90034211672840       -1.68994574130413       -8.00553239407669
C          112.28255089453161       -0.56648947314548       -2.67479057151539
C          113.56003086520752       -0.66794717758519       -3.35270374851952
C          114.50650148354879       -0.47043715367609       -2.41104530636452
N          112.46382063124588       -0.31364797392361       -1.35589980008945
C          113.80099252446763       -0.25272140163311       -1.16342024897548
C          114.45645599949488       -0.02764284568737        0.06107065664199
C          113.82460051758642        0.17896061678012        1.30330880442338
C          114.46035498424376        0.40060151680605        2.55111795084035
C          113.48284863947626        0.56026600475410        3.49732060212691
C          112.22720362160698        0.44066868482828        2.84920252064460
N          112.47922507867106        0.20959940421180        1.52765766651202
C          110.95762248468674        0.54540601275718        3.44729635048855
C          110.93959960594547        0.79437379138356        4.83790750112839
C          110.92625914466743        1.00531820944526        6.03285399535276
C          110.90259871109456        1.25397619376126        7.42419889221922
C          109.69323142549933        1.37145816795230        8.11936586503378
C          109.72405569389738        1.61245156206585        9.48134359574058
N          110.85412194089045        1.73987582485064       10.17218796704819
C          112.00793950104907        1.62966525378095        9.51860472556706
C          112.08672876812983        1.38941744064802        8.15845811582126
C          109.72520901302050        0.42695151196021        2.78673486285857
C          108.44751418118899        0.55433227507793        3.45982632828735
C          107.50075710017732        0.38188221784061        2.51348687159873
C          108.20640639724053        0.14861357476947        1.26883217529689
N          109.54321196745627        0.18306231969788        1.46564684934826
H          106.48014288352006       -0.60742388573845       -2.58072060789229
H          108.39495137799383       -0.95876602256693       -4.42623146482867
H          110.23807183144167       -0.21455166448964       -0.70382058442141
H          113.24193064177635       -1.58448886209701       -7.47002539107525
H          113.16961315726475       -2.10783485887755       -9.90201457739450
H          109.05962639581810       -2.10365564142315       -9.94008899964450
H          108.94344777492417       -1.58057609711671       -7.50959083796751
H          113.68607432707988       -0.86291130314722       -4.40568558546036
H          115.57900867895160       -0.46884211480499       -2.52156090676310
H          115.52776931785968        0.43243022339116        2.69840308646985
H          113.61400418850938        0.74542144090090        4.55124338313507
H          111.76869258043743        0.08062599685855        0.81501329991050
H          108.74995954166623        1.27423003178622        7.59559814443640
H          108.80095650086787        1.70787060039372       10.04582315444187
H          112.91050038209409        1.73893178748012       10.11299313768340
H          113.04798874094678        1.30654339712524        7.66578602650270
H          108.32160760258833        0.74995666149535        4.51269547031525
H          106.42805595712331        0.40422607153796        2.61991793772396
