      -----------------------------------------------------------      
     |                   =====================                   |     
     |                           x T B                           |     
     |                   =====================                   |     
     |                         S. Grimme                         |     
     |          Mulliken Center for Theoretical Chemistry        |     
     |                    University of Bonn                     |     
      -----------------------------------------------------------      

   * xtb version 6.5.1 (b24c23e) compiled by 'conda@728c89f4b128' on 2022-07-12

   xtb is free software: you can redistribute it and/or modify it under
   the terms of the GNU Lesser General Public License as published by
   the Free Software Foundation, either version 3 of the License, or
   (at your option) any later version.
   
   xtb is distributed in the hope that it will be useful,
   but WITHOUT ANY WARRANTY; without even the implied warranty of
   MERCHANTABILITY or FITNESS FOR A PARTICULAR PURPOSE.  See the
   GNU Lesser General Public License for more details.
   
   Cite this work as:
   * C. Bannwarth, E. Caldeweyher, S. Ehlert, A. Hansen, P. Pracht,
     J. Seibert, S. Spicher, S. Grimme, WIREs Comput. Mol. Sci., 2020, 11,
     e01493. DOI: 10.1002/wcms.1493
   
   for GFN2-xTB:
   * C. Bannwarth, S. Ehlert and S. Grimme., J. Chem. Theory Comput., 2019,
     15, 1652-1671. DOI: 10.1021/acs.jctc.8b01176
   for GFN1-xTB:
   * S. Grimme, C. Bannwarth, P. Shushkov, J. Chem. Theory Comput., 2017,
     13, 1989-2009. DOI: 10.1021/acs.jctc.7b00118
   for GFN0-xTB:
   * P. Pracht, E. Caldeweyher, S. Ehlert, S. Grimme, ChemRxiv, 2019, preprint.
     DOI: 10.26434/chemrxiv.8326202.v1
   for GFN-FF:
   * S. Spicher and S. Grimme, Angew. Chem. Int. Ed., 2020, 59, 15665-15673.
     DOI: 10.1002/anie.202004239
   
   for ALPB and GBSA implicit solvation:
   * S. Ehlert, M. Stahn, S. Spicher, S. Grimme, J. Chem. Theory Comput.,
     2021, 17, 4250-4261. DOI: 10.1021/acs.jctc.1c00471
   
   for DFT-D4:
   * E. Caldeweyher, C. Bannwarth and S. Grimme, J. Chem. Phys., 2017,
     147, 034112. DOI: 10.1063/1.4993215
   * E. Caldeweyher, S. Ehlert, A. Hansen, H. Neugebauer, S. Spicher,
     C. Bannwarth and S. Grimme, J. Chem. Phys., 2019, 150, 154122.
     DOI: 10.1063/1.5090222
   * E. Caldeweyher, J.-M. Mewes, S. Ehlert and S. Grimme, Phys. Chem. Chem. Phys.
     2020, 22, 8499-8512. DOI: 10.1039/D0CP00502A
   
   for sTDA-xTB:
   * S. Grimme and C. Bannwarth, J. Chem. Phys., 2016, 145, 054103.
     DOI: 10.1063/1.4959605
   
   in the mass-spec context:
   * V. Asgeirsson, C. Bauer and S. Grimme, Chem. Sci., 2017, 8, 4879.
     DOI: 10.1039/c7sc00601b
   * J. Koopman and S. Grimme, ACS Omega 2019, 4, 12, 15120-15133.
     DOI: 10.1021/acsomega.9b02011
   
   for metadynamics refer to:
   * S. Grimme, J. Chem. Theory Comput., 2019, 155, 2847-2862
     DOI: 10.1021/acs.jctc.9b00143
   
   for SPH calculations refer to:
   * S. Spicher and S. Grimme, J. Chem. Theory Comput., 2021, 17, 1701-1714
     DOI: 10.1021/acs.jctc.0c01306
   
   with help from (in alphabetical order)
   P. Atkinson, C. Bannwarth, F. Bohle, G. Brandenburg, E. Caldeweyher
   M. Checinski, S. Dohm, S. Ehlert, S. Ehrlich, I. Gerasimov, C. Hölzer
   A. Katbashev, J. Koopman, C. Lavigne, S. Lehtola, F. März, M. Müller,
   F. Musil, H. Neugebauer, J. Pisarek, C. Plett, P. Pracht, F. Pultar,
   J. Seibert, P. Shushkov, S. Spicher, M. Stahn, M. Steiner, T. Strunk,
   J. Stückrath, T. Rose, and J. Unsleber
   
 * started run on 2022/07/27 at 18:55:56.967     

           -------------------------------------------------
          |                Calculation Setup                |
           -------------------------------------------------

          program call               : xtb Py_C10_6.xyz --gfn 1 --opt -T 48
          hostname                   : cx3-6-14.cx3.hpc.ic.ac.uk
          coordinate file            : Py_C10_6.xyz
          omp threads                :                     1

   ID    Z sym.   atoms
    1    6 C      1-5, 7-10, 12-16, 18-23, 25-28, 30-35, 56-60, 62-65, 67-71,
                  73-78, 80-83, 85-90, 111-165, 167-170, 172-176, 178-183,
                  185-188, 190-195, 215-219, 221-224, 226-230, 232-237,
                  239-242, 244-249, 269-273, 275-278, 280-284, 286-291,
                  293-296, 298-303, 323-327, 329-332, 334-338, 340-345,
                  347-350, 352-357
    2    7 N      6, 11, 17, 24, 29, 36, 61, 66, 72, 79, 84, 91, 166, 171,
                  177, 184, 189, 196, 220, 225, 231, 238, 243, 250, 274, 279,
                  285, 292, 297, 304, 328, 333, 339, 346, 351, 358
    3    1 H      37-55, 92-110, 197-214, 251-268, 305-322, 359-376

molecular fragmentation (1/2 indicates fragments):
111111111111111111111111111111111111111111111111111111122222222222222222
222222222222222222222222222222222222222222222222222222222222222222222222
222222222222222222222222222222222222222222222222222222222222222222222222
222222222222222222222222222222222222222222222222222222222222222222222222
222222222222222222222222222222222222222222222222222222222222222222222222
2222222222222222
# atoms in fragment 1/2:    55   321
 fragment masses (1/2) :      463.51     2914.07
CMA distance (Bohr)    : 120.400
constraining FC (au)   :  0.0500
########################################################################
[WARNING] Please study the warnings concerning your input carefully
-1- prog_main_parseArguments: Unknown option '-T' provided
########################################################################

           -------------------------------------------------
          |                 G F N 1 - x T B                 |
           -------------------------------------------------

        Reference                      10.1021/acs.jctc.7b00118
      * Hamiltonian:
        H0-scaling (s, p, d)           1.850000    2.250000    2.000000
        zeta-weighting                 0.000000
      * Dispersion:
        s8                             2.400000
        a1                             0.630000
        a2                             5.000000
        s9                             0.000000
      * Repulsion:
        kExp                           1.500000
        rExp                           1.000000
      * Coulomb:
        alpha                          2.000000
        third order                    atomic
        anisotropic                    false
      * Halogen bond correction:
        rad-scale                      1.300000
        damping                        0.440000


          ...................................................
          :                      SETUP                      :
          :.................................................:
          :  # basis functions                1284          :
          :  # atomic orbitals                1284          :
          :  # shells                          752          :
          :  # electrons                      1210          :
          :  # halogen bonds                     0          :
          :  max. iterations                   250          :
          :  Hamiltonian                  GFN1-xTB          :
          :  restarted?                      false          :
          :  GBSA solvation                  false          :
          :  PC potential                    false          :
          :  electronic temp.          300.0000000     K    :
          :  accuracy                    1.0000000          :
          :  -> integral cutoff          0.2500000E+02      :
          :  -> integral neglect         0.1000000E-07      :
          :  -> SCF convergence          0.1000000E-05 Eh   :
          :  -> wf. convergence          0.2000000E-04 e    :
          :  Broyden damping             0.4000000          :
          ...................................................

 iter      E             dE          RMSdq      gap      omega  full diag
   1   -668.8897709 -0.668890E+03  0.105E+01    0.01       0.0  T
   2   -627.1650407  0.417247E+02  0.746E+00    0.22       1.0  T
   3   2704.4981063  0.333166E+04  0.175E+01    0.01       1.0  T
   4   5659.8277537  0.295533E+04  0.211E+01    0.02       1.0  T
   5   -362.8031276 -0.602263E+04  0.871E+00    0.03       1.0  T
   6   -177.4518639  0.185351E+03  0.905E+00    0.07       1.0  T
   7    197.5510874  0.375003E+03  0.955E+00    0.04       1.0  T
   8   -407.4284825 -0.604980E+03  0.663E+00    0.02       1.0  T
   9   -598.1326392 -0.190704E+03  0.424E+00    0.04       1.0  T
  10   -625.3005413 -0.271679E+02  0.375E+00    0.03       1.0  T
  11   -640.9020024 -0.156015E+02  0.297E+00    0.00       1.0  T
  12   -631.1739459  0.972806E+01  0.307E+00    0.02       1.0  T
  13   -621.3868378  0.978711E+01  0.316E+00    0.01       1.0  T
  14   -628.0915866 -0.670475E+01  0.278E+00    0.01       1.0  T
  15   -624.5400278  0.355156E+01  0.277E+00    0.01       1.0  T
  16   -595.8982180  0.286418E+02  0.332E+00    0.00       1.0  T
  17   -590.4717195  0.542650E+01  0.334E+00    0.00       1.0  T
  18   -591.8805051 -0.140879E+01  0.329E+00    0.01       1.0  T
  19   -603.9754432 -0.120949E+02  0.318E+00    0.01       1.0  T
  20   -609.5903822 -0.561494E+01  0.308E+00    0.01       1.0  T
  21   -603.8000109  0.579037E+01  0.318E+00    0.02       1.0  T
  22   -607.4242254 -0.362421E+01  0.317E+00    0.00       1.0  T
  23   -605.9675499  0.145668E+01  0.321E+00    0.04       1.0  T
  24   -627.1356907 -0.211681E+02  0.290E+00    0.02       1.0  T
  25   -632.9135457 -0.577785E+01  0.298E+00    0.03       1.0  T
  26   -642.7585790 -0.984503E+01  0.271E+00    0.03       1.0  T
  27   -647.4927590 -0.473418E+01  0.248E+00    0.03       1.0  T
  28   -648.7289232 -0.123616E+01  0.244E+00    0.02       1.0  T
  29   -647.0082810  0.172064E+01  0.264E+00    0.00       1.0  T
  30   -653.4233398 -0.641506E+01  0.259E+00    0.03       1.0  T
  31   -651.6745007  0.174884E+01  0.272E+00    0.00       1.0  T
  32   -651.9942111 -0.319710E+00  0.278E+00    0.01       1.0  T
  33   -653.8903549 -0.189614E+01  0.279E+00    0.02       1.0  T
  34   -654.1903165 -0.299962E+00  0.280E+00    0.01       1.0  T
  35   -654.8969190 -0.706602E+00  0.275E+00    0.01       1.0  T
  36   -658.4817591 -0.358484E+01  0.242E+00    0.01       1.0  T
  37   -658.7585570 -0.276798E+00  0.234E+00    0.01       1.0  T
  38   -662.5371299 -0.377857E+01  0.195E+00    0.01       1.0  T
  39   -662.8138597 -0.276730E+00  0.198E+00    0.02       1.0  T
  40   -666.1315924 -0.331773E+01  0.176E+00    0.02       1.0  T
  41   -667.3689584 -0.123737E+01  0.162E+00    0.02       1.0  T
  42   -667.3381422  0.308162E-01  0.162E+00    0.02       1.0  T
  43   -667.3187131  0.194292E-01  0.162E+00    0.03       1.0  T
  44   -667.8991605 -0.580447E+00  0.151E+00    0.05       1.0  T
  45   -666.9611382  0.938022E+00  0.170E+00    0.10       1.0  T
  46   -667.2506781 -0.289540E+00  0.152E+00    0.00       1.0  T
  47   -667.7836390 -0.532961E+00  0.149E+00    0.03       1.0  T
  48   -667.3208301  0.462809E+00  0.145E+00    0.05       1.0  T
  49   -668.2844769 -0.963647E+00  0.133E+00    0.14       1.0  T
  50   -669.3612029 -0.107673E+01  0.948E-01    0.07       1.0  T
  51   -669.4603486 -0.991457E-01  0.919E-01    0.08       1.0  T
  52   -669.5180488 -0.577002E-01  0.874E-01    0.01       1.0  T
  53   -669.8103443 -0.292295E+00  0.813E-01    0.15       1.0  T
  54   -669.7010331  0.109311E+00  0.818E-01    0.02       1.0  T
  55   -669.4586567  0.242376E+00  0.930E-01    0.03       1.0  T
  56   -669.2857988  0.172858E+00  0.951E-01    0.04       1.0  T
  57   -669.3025998 -0.168010E-01  0.934E-01    0.02       1.0  T
  58   -669.3092655 -0.666577E-02  0.933E-01    0.02       1.0  T
  59   -669.4027178 -0.934523E-01  0.939E-01    0.02       1.0  T
  60   -669.3980089  0.470890E-02  0.938E-01    0.01       1.0  T
  61   -669.4194643 -0.214553E-01  0.885E-01    0.03       1.0  T
  62   -669.3855715  0.338927E-01  0.887E-01    0.12       1.0  T
  63   -669.3233463  0.622252E-01  0.818E-01    0.03       1.0  T
  64   -669.5092820 -0.185936E+00  0.763E-01    0.04       1.0  T
  65   -666.0388509  0.347043E+01  0.156E+00    0.05       1.0  T
  66   -667.9079898 -0.186914E+01  0.120E+00    0.00       1.0  T
  67   -666.8290473  0.107894E+01  0.139E+00    0.01       1.0  T
  68   -667.9214885 -0.109244E+01  0.114E+00    0.00       1.0  T
  69   -668.0895046 -0.168016E+00  0.109E+00    0.00       1.0  T
  70   -666.8769823  0.121252E+01  0.143E+00    0.01       1.0  T
  71   -670.1048723 -0.322789E+01  0.601E-01    0.10       1.0  T
  72   -670.1503161 -0.454438E-01  0.577E-01    0.07       1.0  T
  73   -670.3743820 -0.224066E+00  0.439E-01    0.11       1.0  T
  74   -670.4518596 -0.774777E-01  0.380E-01    0.16       1.0  T
  75   -670.4845501 -0.326905E-01  0.336E-01    0.15       1.0  T
  76   -670.5095467 -0.249966E-01  0.291E-01    0.12       1.0  T
  77   -670.5189634 -0.941664E-02  0.278E-01    0.14       1.0  T
  78   -670.5363179 -0.173545E-01  0.230E-01    0.08       1.0  T
  79   -670.5178196  0.184983E-01  0.227E-01    0.05       1.0  T
  80   -670.5417670 -0.239474E-01  0.239E-01    0.13       1.0  T
  81   -670.5500974 -0.833041E-02  0.204E-01    0.06       1.0  T
  82   -670.5538130 -0.371554E-02  0.207E-01    0.08       1.0  T
  83   -670.5472870  0.652599E-02  0.208E-01    0.06       1.0  T
  84   -670.5475332 -0.246262E-03  0.200E-01    0.06       1.0  T
  85   -670.5443927  0.314054E-02  0.192E-01    0.05       1.0  T
  86   -670.5678034 -0.234107E-01  0.153E-01    0.07       1.0  T
  87   -670.5792040 -0.114006E-01  0.134E-01    0.09       1.0  T
  88   -670.5803329 -0.112889E-02  0.125E-01    0.09       1.0  T
  89   -670.5799319  0.401074E-03  0.124E-01    0.08       1.0  T
  90   -670.5809606 -0.102877E-02  0.116E-01    0.09       1.0  T
  91   -670.5861841 -0.522343E-02  0.101E-01    0.09       1.0  T
  92   -670.5909521 -0.476800E-02  0.820E-02    0.10       1.0  T
  93   -670.5895091  0.144293E-02  0.850E-02    0.10       1.0  T
  94   -670.5914113 -0.190213E-02  0.758E-02    0.10       1.0  T
  95   -670.5923735 -0.962229E-03  0.680E-02    0.10       1.0  T
  96   -670.5932088 -0.835348E-03  0.619E-02    0.11       1.0  T
  97   -670.5945244 -0.131561E-02  0.542E-02    0.12       1.0  T
  98   -670.5944602  0.642304E-04  0.532E-02    0.11       1.0  T
  99   -670.5946207 -0.160501E-03  0.512E-02    0.11       1.0  T
 100   -670.5948319 -0.211147E-03  0.476E-02    0.11       1.0  T
 101   -670.5950594 -0.227510E-03  0.456E-02    0.11       1.0  T
 102   -670.5953398 -0.280416E-03  0.407E-02    0.11       1.0  T
 103   -670.5955209 -0.181114E-03  0.379E-02    0.12       1.0  T
 104   -670.5955580 -0.370680E-04  0.366E-02    0.12       1.0  T
 105   -670.5956511 -0.930866E-04  0.340E-02    0.12       1.0  T
 106   -670.5957909 -0.139862E-03  0.322E-02    0.12       1.0  T
 107   -670.5958059 -0.150303E-04  0.309E-02    0.11       1.0  T
 108   -670.5958520 -0.460327E-04  0.292E-02    0.11       1.0  T
 109   -670.5960382 -0.186252E-03  0.260E-02    0.11       1.0  T
 110   -670.5961664 -0.128147E-03  0.236E-02    0.12       1.0  T
 111   -670.5962272 -0.608536E-04  0.219E-02    0.11       1.0  T
 112   -670.5962735 -0.462778E-04  0.201E-02    0.11       1.0  T
 113   -670.5963015 -0.279477E-04  0.191E-02    0.11       1.0  T
 114   -670.5963228 -0.213801E-04  0.184E-02    0.11       1.0  T
 115   -670.5963958 -0.729483E-04  0.152E-02    0.11       1.0  T
 116   -670.5964318 -0.360307E-04  0.130E-02    0.11       1.0  T
 117   -670.5964432 -0.113724E-04  0.110E-02    0.11       1.0  T
 118   -670.5964582 -0.150132E-04  0.890E-03    0.11       1.0  T
 119   -670.5964667 -0.851627E-05  0.751E-03    0.11       1.0  T
 120   -670.5964836 -0.168584E-04  0.624E-03    0.11       1.0  T
 121   -670.5965167 -0.331063E-04  0.497E-03    0.11       1.0  T
 122   -670.5965364 -0.197464E-04  0.415E-03    0.11       1.2  T
 123   -670.5965422 -0.575273E-05  0.330E-03    0.11       1.6  T
 124   -670.5965474 -0.520543E-05  0.284E-03    0.11       1.8  T
 125   -670.5965515 -0.411151E-05  0.249E-03    0.11       2.1  T
 126   -670.5965532 -0.167965E-05  0.204E-03    0.11       2.5  T
 127   -670.5965555 -0.236690E-05  0.156E-03    0.11       3.3  T
 128   -670.5965566 -0.101580E-05  0.121E-03    0.11       4.3  T
 129   -670.5965567 -0.118261E-06  0.103E-03    0.11       5.0  T
 130   -670.5965569 -0.171339E-06  0.928E-04    0.11       5.6  T
 131   -670.5965565  0.393048E-06  0.913E-04    0.11       5.6  T
 132   -670.5965570 -0.502885E-06  0.802E-04    0.11       6.4  T
 133   -670.5965572 -0.190497E-06  0.721E-04    0.11       7.2  T
 134   -670.5965574 -0.248831E-06  0.632E-04    0.11       8.2  T
 135   -670.5965576 -0.179609E-06  0.548E-04    0.11       9.4  T
 136   -670.5965577 -0.163711E-06  0.472E-04    0.11      10.9  T
 137   -670.5965579 -0.132036E-06  0.367E-04    0.11      14.1  T
 138   -670.5965579 -0.531602E-07  0.307E-04    0.11      16.8  T
 139   -670.5965579 -0.656746E-08  0.293E-04    0.11      17.6  T
 140   -670.5965580 -0.396277E-07  0.253E-04    0.11      20.4  T
 141   -670.5965580 -0.161616E-07  0.231E-04    0.11      22.4  T
 142   -670.5965580 -0.143943E-07  0.196E-04    0.11      26.3  T
 143   -670.5965580 -0.101996E-07  0.160E-04    0.11      32.3  T

   *** convergence criteria satisfied after 143 iterations ***

         #    Occupation            Energy/Eh            Energy/eV
      -------------------------------------------------------------
         1        2.0000           -0.8105220             -22.0554
       ...           ...                  ...                  ...
       599        2.0000           -0.3958270             -10.7710
       600        1.9745           -0.3837167             -10.4415
       601        1.9601           -0.3832861             -10.4297
       602        1.9094           -0.3824824             -10.4079
       603        1.9006           -0.3823898             -10.4054
       604        1.8770           -0.3821754             -10.3995
       605        1.8599           -0.3820430             -10.3959 (HOMO)
       606        0.2879           -0.3778923             -10.2830 (LUMO)
       607        0.2305           -0.3776499             -10.2764
       608        0.0000           -0.3672841              -9.9943
       609        0.0000           -0.3668875              -9.9835
       610        0.0000           -0.3660646              -9.9611
       ...           ...                  ...                  ...
      1284                         36.7696857            1000.5541
      -------------------------------------------------------------
                  HL-Gap            0.0041507 Eh            0.1129 eV
             Fermi-level           -0.3795861 Eh          -10.3291 eV

 SCC (total)                   0 d,  0 h,  1 min, 34.954 sec
 SCC setup                      ...        0 min,  0.043 sec (  0.046%)
 Dispersion                     ...        0 min,  0.024 sec (  0.025%)
 classical contributions        ...        0 min,  0.004 sec (  0.004%)
 integral evaluation            ...        0 min,  0.606 sec (  0.638%)
 iterations                     ...        1 min, 33.308 sec ( 98.267%)
 molecular gradient             ...        0 min,  0.841 sec (  0.885%)
 printout                       ...        0 min,  0.127 sec (  0.134%)

         :::::::::::::::::::::::::::::::::::::::::::::::::::::
         ::                     SUMMARY                     ::
         :::::::::::::::::::::::::::::::::::::::::::::::::::::
         :: total energy            -645.005182258303 Eh    ::
         :: gradient norm             24.506952639980 Eh/a0 ::
         :: HOMO-LUMO gap              0.112946946880 eV    ::
         ::.................................................::
         :: SCC energy              -670.596558017172 Eh    ::
         :: -> electrostatic           0.562232576321 Eh    ::
         :: repulsion energy          25.899295568070 Eh    ::
         :: dispersion energy         -0.307919809200 Eh    ::
         :: halogen bond corr.         0.000000000000 Eh    ::
         :: add. restraining           0.000000000000 Eh    ::
         :: total charge               0.000000000026 e     ::
         :::::::::::::::::::::::::::::::::::::::::::::::::::::

      ----------------------------------------------------------- 
     |                   =====================                   |
     |                        A N C O P T                        |
     |                   =====================                   |
     |               Approximate Normal Coordinate               |
     |                Rational Function Optimizer                |
      ----------------------------------------------------------- 

          ...................................................
          :                      SETUP                      :
          :.................................................:
          :   optimization level            normal          :
          :   max. optcycles                  1128          :
          :   ANC micro-cycles                  20          :
          :   degrees of freedom              1122          :
          :.................................................:
          :   RF solver                   davidson          :
          :   write xtbopt.log                true          :
          :   linear?                        false          :
          :   energy convergence         0.5000000E-05 Eh   :
          :   grad. convergence          0.1000000E-02 Eh/α :
          :   maximium RF displ.         1.0000000          :
          :   Hlow (freq-cutoff)         0.1000000E-01      :
          :   Hmax (freq-cutoff)         5.0000000          :
          :   S6 in model hess.         20.0000000          :
          ...................................................

generating ANC from model Hessian ...
Using Lindh-Hessian (1995)
 Shifting diagonal of input Hessian by    1.0409884174528171E-002
 Lowest  eigenvalues of input Hessian
    0.010000    0.010307    0.010382    0.010405    0.010405    0.010406
    0.010407    0.010408    0.010410    0.010410    0.010410    0.000000
    0.000000    0.000000    0.000000    0.000000    0.000000    0.010411
 Highest eigenvalues
    3.422416    5.514263    5.514391    5.514397    5.514398    5.514398


........................................................................
.............................. CYCLE    1 ..............................
........................................................................
   1   -670.5965580 -0.670597E+03  0.136E-04    0.11       0.0  T
   2   -670.5965549  0.310684E-05  0.112E-03    0.11       4.6  T
   3   -670.5965577 -0.282502E-05  0.441E-04    0.11      11.7  T
   4   -670.5965562  0.152693E-05  0.853E-04    0.11       6.0  T
   5   -670.5965578 -0.155198E-05  0.386E-04    0.11      13.4  T
   6   -670.5965580 -0.221357E-06  0.199E-04    0.11      26.0  T
   7   -670.5965579  0.932580E-07  0.261E-04    0.11      19.8  T
   8   -670.5965580 -0.122064E-06  0.139E-04    0.11      37.0  T
     SCC iter.                  ...        0 min,  5.154 sec
     gradient                   ...        0 min,  0.814 sec
 * total energy  :  -645.0051823 Eh     change       -0.5343281E-09 Eh
   gradient norm :    24.5069519 Eh/α   predicted     0.0000000E+00 (-100.00%)
   displ. norm   :     0.9037632 α      lambda       -0.2198022E+02
   maximum displ.:     0.4020371 α      in ANC's #1118, #1120, #1122, ...

........................................................................
.............................. CYCLE    2 ..............................
........................................................................
   1   -670.0587105 -0.670059E+03  0.182E-01    0.10       0.0  T
   2   -669.1693587  0.889352E+00  0.652E-01    0.01       1.0  T
   3   -669.3996960 -0.230337E+00  0.524E-01    0.13       1.0  T
   4   -669.8733318 -0.473636E+00  0.408E-01    0.07       1.0  T
   5   -669.9910746 -0.117743E+00  0.298E-01    0.11       1.0  T
   6   -669.8386888  0.152386E+00  0.334E-01    0.01       1.0  T
   7   -669.9812735 -0.142585E+00  0.270E-01    0.25       1.0  T
   8   -670.0342658 -0.529923E-01  0.186E-01    0.22       1.0  T
   9   -670.0422587 -0.799296E-02  0.155E-01    0.12       1.0  T
  10   -670.0275075  0.147513E-01  0.137E-01    0.06       1.0  T
  11   -670.0660586 -0.385512E-01  0.651E-02    0.09       1.0  T
  12   -670.0646193  0.143929E-02  0.798E-02    0.09       1.0  T
  13   -670.0657537 -0.113439E-02  0.751E-02    0.09       1.0  T
  14   -670.0679778 -0.222410E-02  0.672E-02    0.09       1.0  T
  15   -670.0728975 -0.491970E-02  0.461E-02    0.10       1.0  T
  16   -670.0732032 -0.305627E-03  0.392E-02    0.10       1.0  T
  17   -670.0747801 -0.157697E-02  0.296E-02    0.11       1.0  T
  18   -670.0757809 -0.100074E-02  0.198E-02    0.11       1.0  T
  19   -670.0761432 -0.362330E-03  0.143E-02    0.11       1.0  T
  20   -670.0763449 -0.201746E-03  0.945E-03    0.11       1.0  T
  21   -670.0763225  0.224248E-04  0.876E-03    0.11       1.0  T
  22   -670.0763431 -0.205917E-04  0.741E-03    0.11       1.0  T
  23   -670.0763927 -0.496307E-04  0.504E-03    0.11       1.0  T
  24   -670.0764075 -0.147877E-04  0.313E-03    0.11       1.6  T
  25   -670.0764133 -0.575677E-05  0.237E-03    0.11       2.2  T
  26   -670.0764197 -0.643414E-05  0.112E-03    0.11       4.6  T
  27   -670.0764213 -0.160416E-05  0.449E-04    0.11      11.5  T
  28   -670.0764216 -0.249865E-06  0.155E-04    0.11      33.3  T
  29   -670.0764216 -0.187580E-07  0.402E-05    0.11     128.2  T
     SCC iter.                  ...        0 min, 21.180 sec
     gradient                   ...        0 min,  0.884 sec
 * total energy  :  -655.5730169 Eh     change       -0.1056783E+02 Eh
   gradient norm :     4.3422280 Eh/α   predicted    -0.2011811E+02 (  90.37%)
   displ. norm   :     0.5448056 α      lambda       -0.1566184E+01
   maximum displ.:     0.1336713 α      in ANC's #1112, #1110, #1109, ...

........................................................................
.............................. CYCLE    3 ..............................
........................................................................
   1   -669.8200156 -0.669820E+03  0.143E-01    0.13       0.0  T
   2   -668.9511377  0.868878E+00  0.765E-01    0.07       1.0  T
   3   -668.8955682  0.555694E-01  0.692E-01    0.17       1.0  T
   4   -669.3838817 -0.488313E+00  0.430E-01    0.07       1.0  T
   5   -669.7540037 -0.370122E+00  0.265E-01    0.17       1.0  T
   6   -669.6526967  0.101307E+00  0.294E-01    0.01       1.0  T
   7   -669.8212109 -0.168514E+00  0.123E-01    0.12       1.0  T
   8   -669.8237199 -0.250898E-02  0.110E-01    0.16       1.0  T
   9   -669.8268515 -0.313160E-02  0.100E-01    0.15       1.0  T
  10   -669.8350822 -0.823079E-02  0.644E-02    0.13       1.0  T
  11   -669.8410826 -0.600033E-02  0.294E-02    0.12       1.0  T
  12   -669.8402037  0.878851E-03  0.325E-02    0.10       1.0  T
  13   -669.8417651 -0.156137E-02  0.206E-02    0.10       1.0  T
  14   -669.8400977  0.166744E-02  0.311E-02    0.10       1.0  T
  15   -669.8420484 -0.195070E-02  0.131E-02    0.11       1.0  T
  16   -669.8422042 -0.155813E-03  0.809E-03    0.11       1.0  T
  17   -669.8422673 -0.631743E-04  0.551E-03    0.11       1.0  T
  18   -669.8423211 -0.537325E-04  0.228E-03    0.11       2.3  T
  19   -669.8423200  0.104442E-05  0.212E-03    0.11       2.4  T
  20   -669.8423266 -0.659649E-05  0.115E-03    0.11       4.5  T
  21   -669.8423282 -0.155603E-05  0.681E-04    0.11       7.6  T
  22   -669.8423288 -0.602500E-06  0.320E-04    0.11      16.1  T
  23   -669.8423289 -0.144503E-06  0.125E-04    0.11      41.2  T
  24   -669.8423289 -0.131993E-07  0.796E-05    0.11      64.8  T
     SCC iter.                  ...        0 min, 15.449 sec
     gradient                   ...        0 min,  0.881 sec
 * total energy  :  -656.7896445 Eh     change       -0.1216628E+01 Eh
   gradient norm :     2.7888667 Eh/α   predicted    -0.1015524E+01 ( -16.53%)
   displ. norm   :     0.5526854 α      lambda       -0.1069013E+01
   maximum displ.:     0.1633983 α      in ANC's #780, #743, #1120, ...

........................................................................
.............................. CYCLE    4 ..............................
........................................................................
   1   -669.6963428 -0.669696E+03  0.129E-01    0.14       0.0  T
   2   -669.0138185  0.682524E+00  0.687E-01    0.05       1.0  T
   3   -668.7362153  0.277603E+00  0.704E-01    0.18       1.0  T
   4   -669.3336716 -0.597456E+00  0.395E-01    0.05       1.0  T
   5   -669.6614862 -0.327815E+00  0.215E-01    0.13       1.0  T
   6   -669.4495501  0.211936E+00  0.352E-01    0.00       1.0  T
   7   -669.6935591 -0.244009E+00  0.116E-01    0.10       1.0  T
   8   -669.6846875  0.887163E-02  0.144E-01    0.18       1.0  T
   9   -669.7015850 -0.168975E-01  0.909E-02    0.12       1.0  T
  10   -669.7066845 -0.509955E-02  0.657E-02    0.11       1.0  T
  11   -669.7118197 -0.513518E-02  0.441E-02    0.10       1.0  T
  12   -669.7132706 -0.145086E-02  0.291E-02    0.11       1.0  T
  13   -669.7129773  0.293323E-03  0.238E-02    0.10       1.0  T
  14   -669.7140278 -0.105054E-02  0.118E-02    0.11       1.0  T
  15   -669.7140759 -0.480852E-04  0.109E-02    0.11       1.0  T
  16   -669.7141037 -0.278027E-04  0.891E-03    0.10       1.0  T
  17   -669.7141530 -0.493336E-04  0.513E-03    0.10       1.0  T
  18   -669.7141980 -0.450266E-04  0.256E-03    0.11       2.0  T
  19   -669.7142075 -0.941576E-05  0.147E-03    0.11       3.5  T
  20   -669.7142100 -0.253058E-05  0.887E-04    0.11       5.8  T
  21   -669.7142106 -0.663356E-06  0.504E-04    0.11      10.2  T
  22   -669.7142110 -0.365866E-06  0.155E-04    0.11      33.2  T
  23   -669.7142110 -0.371596E-07  0.777E-05    0.11      66.4  T
     SCC iter.                  ...        0 min, 14.980 sec
     gradient                   ...        0 min,  0.858 sec
 * total energy  :  -657.5877548 Eh     change       -0.7981103E+00 Eh
   gradient norm :     1.4153593 Eh/α   predicted    -0.6977805E+00 ( -12.57%)
   displ. norm   :     0.5425390 α      lambda       -0.5118533E+00
   maximum displ.:     0.1572946 α      in ANC's #780, #743, #865, ...

........................................................................
.............................. CYCLE    5 ..............................
........................................................................
   1   -669.5658970 -0.669566E+03  0.135E-01    0.13       0.0  T
   2   -668.7783573  0.787540E+00  0.777E-01    0.02       1.0  T
   3   -668.7841506 -0.579331E-02  0.643E-01    0.01       1.0  T
   4   -669.5433810 -0.759230E+00  0.190E-01    0.13       1.0  T
   5   -669.4355591  0.107822E+00  0.277E-01    0.01       1.0  T
   6   -669.5481185 -0.112559E+00  0.164E-01    0.07       1.0  T
   7   -669.5738735 -0.257551E-01  0.838E-02    0.10       1.0  T
   8   -669.5684150  0.545856E-02  0.822E-02    0.07       1.0  T
   9   -669.5825843 -0.141694E-01  0.306E-02    0.09       1.0  T
  10   -669.5824955  0.888099E-04  0.336E-02    0.09       1.0  T
  11   -669.5831782 -0.682695E-03  0.243E-02    0.09       1.0  T
  12   -669.5841049 -0.926667E-03  0.143E-02    0.09       1.0  T
  13   -669.5840560  0.489129E-04  0.148E-02    0.09       1.0  T
  14   -669.5844136 -0.357638E-03  0.493E-03    0.10       1.0  T
  15   -669.5844343 -0.207248E-04  0.308E-03    0.10       1.7  T
  16   -669.5844537 -0.193781E-04  0.659E-04    0.10       7.8  T
  17   -669.5844540 -0.255106E-06  0.491E-04    0.10      10.5  T
  18   -669.5844541 -0.967772E-07  0.398E-04    0.10      13.0  T
  19   -669.5844544 -0.280818E-06  0.196E-04    0.10      26.3  T
  20   -669.5844544 -0.410442E-07  0.922E-05    0.10      55.9  T
     SCC iter.                  ...        0 min, 12.812 sec
     gradient                   ...        0 min,  0.770 sec
 * total energy  :  -657.9539843 Eh     change       -0.3662295E+00 Eh
   gradient norm :     0.6274598 Eh/α   predicted    -0.3312609E+00 (  -9.55%)
   displ. norm   :     0.5335644 α      lambda       -0.1849901E+00
   maximum displ.:     0.1205748 α      in ANC's #660, #266, #743, ...

........................................................................
.............................. CYCLE    6 ..............................
........................................................................
   1   -669.5392788 -0.669539E+03  0.178E-01    0.14       0.0  T
   2   -668.8387805  0.700498E+00  0.887E-01    0.08       1.0  T
   3   -668.7579525  0.808280E-01  0.668E-01    0.14       1.0  T
   4   -669.3689620 -0.611009E+00  0.363E-01    0.02       1.0  T
   5   -669.2131769  0.155785E+00  0.444E-01    0.03       1.0  T
   6   -669.5346400 -0.321463E+00  0.170E-01    0.04       1.0  T
   7   -669.5695625 -0.349225E-01  0.748E-02    0.10       1.0  T
   8   -669.5549390  0.146235E-01  0.100E-01    0.06       1.0  T
   9   -669.5693709 -0.144319E-01  0.616E-02    0.10       1.0  T
  10   -669.5728997 -0.352879E-02  0.460E-02    0.11       1.0  T
  11   -669.5739440 -0.104435E-02  0.370E-02    0.07       1.0  T
  12   -669.5751864 -0.124234E-02  0.274E-02    0.09       1.0  T
  13   -669.5758742 -0.687789E-03  0.119E-02    0.09       1.0  T
  14   -669.5759887 -0.114495E-03  0.563E-03    0.09       1.0  T
  15   -669.5760363 -0.475925E-04  0.335E-03    0.09       1.5  T
  16   -669.5760520 -0.157342E-04  0.155E-03    0.09       3.3  T
  17   -669.5760540 -0.199572E-05  0.107E-03    0.09       4.8  T
  18   -669.5760556 -0.165899E-05  0.451E-04    0.09      11.4  T
  19   -669.5760559 -0.241507E-06  0.269E-04    0.09      19.2  T
  20   -669.5760560 -0.126118E-06  0.898E-05    0.09      57.4  T
  21   -669.5760560 -0.118280E-08  0.745E-05    0.09      69.3  T
     SCC iter.                  ...        0 min, 13.394 sec
     gradient                   ...        0 min,  0.784 sec
 * total energy  :  -658.0798884 Eh     change       -0.1259041E+00 Eh
   gradient norm :     0.2338065 Eh/α   predicted    -0.1188275E+00 (  -5.62%)
   displ. norm   :     0.6345850 α      lambda       -0.6541895E-01
   maximum displ.:     0.1985199 α      in ANC's #266, #226, #227, ...

........................................................................
.............................. CYCLE    7 ..............................
........................................................................
   1   -669.6085221 -0.669609E+03  0.182E-01    0.14       0.0  T
   2   -668.7966935  0.811829E+00  0.935E-01    0.09       1.0  T
   3   -668.8994109 -0.102717E+00  0.655E-01    0.12       1.0  T
   4   -669.2840724 -0.384661E+00  0.451E-01    0.02       1.0  T
   5   -669.4686274 -0.184555E+00  0.358E-01    0.01       1.0  T
   6   -669.4881201 -0.194927E-01  0.325E-01    0.02       1.0  T
   7   -669.5484136 -0.602935E-01  0.230E-01    0.00       1.0  T
   8   -669.6364478 -0.880342E-01  0.929E-02    0.07       1.0  T
   9   -669.6449934 -0.854559E-02  0.391E-02    0.10       1.0  T
  10   -669.6449041  0.893081E-04  0.399E-02    0.09       1.0  T
  11   -669.6455133 -0.609193E-03  0.331E-02    0.07       1.0  T
  12   -669.6472430 -0.172973E-02  0.241E-02    0.08       1.0  T
  13   -669.6476065 -0.363479E-03  0.142E-02    0.08       1.0  T
  14   -669.6478954 -0.288896E-03  0.671E-03    0.08       1.0  T
  15   -669.6479452 -0.498345E-04  0.353E-03    0.08       1.5  T
  16   -669.6479580 -0.128254E-04  0.282E-03    0.08       1.8  T
  17   -669.6479653 -0.725184E-05  0.202E-03    0.08       2.6  T
  18   -669.6479704 -0.515076E-05  0.123E-03    0.08       4.2  T
  19   -669.6479726 -0.212747E-05  0.761E-04    0.08       6.8  T
  20   -669.6479734 -0.850518E-06  0.391E-04    0.08      13.2  T
  21   -669.6479737 -0.253775E-06  0.192E-04    0.08      26.9  T
  22   -669.6479737 -0.643782E-07  0.547E-05    0.08      94.4  T
     SCC iter.                  ...        0 min, 14.142 sec
     gradient                   ...        0 min,  0.780 sec
 * total energy  :  -658.1292275 Eh     change       -0.4933910E-01 Eh
   gradient norm :     0.1174317 Eh/α   predicted    -0.4588177E-01 (  -7.01%)
   displ. norm   :     0.7089740 α      lambda       -0.3868723E-01
   maximum displ.:     0.2190469 α      in ANC's #266, #138, #115, ...

........................................................................
.............................. CYCLE    8 ..............................
........................................................................
   1   -669.6984007 -0.669698E+03  0.155E-01    0.13       0.0  T
   2   -668.9214913  0.776909E+00  0.894E-01    0.06       1.0  T
   3   -669.2596851 -0.338194E+00  0.513E-01    0.04       1.0  T
   4   -669.5844862 -0.324801E+00  0.317E-01    0.03       1.0  T
   5   -669.5760452  0.844098E-02  0.307E-01    0.01       1.0  T
   6   -669.6431626 -0.671174E-01  0.250E-01    0.01       1.0  T
   7   -669.6958531 -0.526905E-01  0.142E-01    0.04       1.0  T
   8   -669.7217533 -0.259003E-01  0.584E-02    0.11       1.0  T
   9   -669.7244533 -0.269992E-02  0.429E-02    0.09       1.0  T
  10   -669.7229010  0.155231E-02  0.459E-02    0.07       1.0  T
  11   -669.7261110 -0.321000E-02  0.165E-02    0.08       1.0  T
  12   -669.7263468 -0.235789E-03  0.114E-02    0.08       1.0  T
  13   -669.7264710 -0.124234E-03  0.725E-03    0.08       1.0  T
  14   -669.7265500 -0.789833E-04  0.373E-03    0.08       1.4  T
  15   -669.7265654 -0.154138E-04  0.184E-03    0.08       2.8  T
  16   -669.7265674 -0.198500E-05  0.153E-03    0.08       3.4  T
  17   -669.7265706 -0.323101E-05  0.960E-04    0.08       5.4  T
  18   -669.7265720 -0.135640E-05  0.520E-04    0.08       9.9  T
  19   -669.7265723 -0.375626E-06  0.283E-04    0.08      18.2  T
  20   -669.7265724 -0.856753E-07  0.192E-04    0.08      26.8  T
  21   -669.7265725 -0.340121E-07  0.140E-04    0.08      36.8  T
     SCC iter.                  ...        0 min, 13.478 sec
     gradient                   ...        0 min,  0.771 sec
 * total energy  :  -658.1598820 Eh     change       -0.3065448E-01 Eh
   gradient norm :     0.0684276 Eh/α   predicted    -0.2906659E-01 (  -5.18%)
   displ. norm   :     0.7453617 α      lambda       -0.2645565E-01
   maximum displ.:     0.2176812 α      in ANC's #138, #266, #115, ...

........................................................................
.............................. CYCLE    9 ..............................
........................................................................
   1   -669.7864810 -0.669786E+03  0.112E-01    0.12       0.0  T
   2   -669.2189453  0.567536E+00  0.763E-01    0.02       1.0  T
   3   -669.3259430 -0.106998E+00  0.491E-01    0.07       1.0  T
   4   -669.7414458 -0.415503E+00  0.211E-01    0.01       1.0  T
   5   -669.7502941 -0.884821E-02  0.183E-01    0.03       1.0  T
   6   -669.7755910 -0.252970E-01  0.127E-01    0.03       1.0  T
   7   -669.7973606 -0.217696E-01  0.505E-02    0.09       1.0  T
   8   -669.7879307  0.942994E-02  0.830E-02    0.07       1.0  T
   9   -669.7991111 -0.111804E-01  0.345E-02    0.10       1.0  T
  10   -669.7987447  0.366393E-03  0.376E-02    0.07       1.0  T
  11   -669.8010357 -0.229097E-02  0.756E-03    0.08       1.0  T
  12   -669.8010978 -0.620686E-04  0.530E-03    0.08       1.0  T
  13   -669.8011140 -0.162548E-04  0.418E-03    0.09       1.2  T
  14   -669.8011389 -0.249130E-04  0.190E-03    0.09       2.7  T
  15   -669.8011434 -0.443854E-05  0.117E-03    0.09       4.4  T
  16   -669.8011447 -0.134472E-05  0.722E-04    0.09       7.1  T
  17   -669.8011450 -0.285740E-06  0.628E-04    0.09       8.2  T
  18   -669.8011453 -0.287582E-06  0.428E-04    0.09      12.0  T
  19   -669.8011455 -0.225703E-06  0.149E-04    0.09      34.7  T
  20   -669.8011455 -0.266269E-07  0.574E-05    0.09      89.9  T
     SCC iter.                  ...        0 min, 12.841 sec
     gradient                   ...        0 min,  0.782 sec
 * total energy  :  -658.1804994 Eh     change       -0.2061742E-01 Eh
   gradient norm :     0.0428526 Eh/α   predicted    -0.2057677E-01 (  -0.20%)
   displ. norm   :     0.7710346 α      lambda       -0.1816894E-01
   maximum displ.:     0.2892769 α      in ANC's #138, #115, #266, ...

........................................................................
.............................. CYCLE   10 ..............................
........................................................................
   1   -669.8587193 -0.669859E+03  0.452E-02    0.10       0.0  T
   2   -669.6033067  0.255413E+00  0.500E-01    0.02       1.0  T
   3   -669.7927981 -0.189491E+00  0.189E-01    0.02       1.0  T
   4   -669.8592171 -0.664190E-01  0.413E-02    0.08       1.0  T
   5   -669.8563890  0.282808E-02  0.600E-02    0.07       1.0  T
   6   -669.8609683 -0.457922E-02  0.818E-03    0.09       1.0  T
   7   -669.8603822  0.586020E-03  0.213E-02    0.09       1.0  T
   8   -669.8600961  0.286157E-03  0.183E-02    0.08       1.0  T
   9   -669.8608642 -0.768152E-03  0.883E-03    0.09       1.0  T
  10   -669.8610123 -0.148070E-03  0.733E-03    0.08       1.0  T
  11   -669.8610714 -0.591325E-04  0.231E-03    0.09       2.2  T
  12   -669.8610778 -0.636740E-05  0.628E-04    0.09       8.2  T
  13   -669.8610784 -0.629445E-06  0.203E-04    0.09      25.4  T
  14   -669.8610785 -0.446171E-07  0.862E-05    0.09      59.8  T
  15   -669.8610785 -0.583952E-08  0.575E-05    0.09      89.7  T
     SCC iter.                  ...        0 min,  9.480 sec
     gradient                   ...        0 min,  0.779 sec
 * total energy  :  -658.1946911 Eh     change       -0.1419169E-01 Eh
   gradient norm :     0.0306534 Eh/α   predicted    -0.1448515E-01 (   2.07%)
   displ. norm   :     0.7886662 α      lambda       -0.1293986E-01
   maximum displ.:     0.3013411 α      in ANC's #138, #115, #96, ...

........................................................................
.............................. CYCLE   11 ..............................
........................................................................
   1   -669.9078898 -0.669908E+03  0.105E-02    0.09       0.0  T
   2   -669.9005819  0.730783E-02  0.720E-02    0.06       1.0  T
   3   -669.9046153 -0.403338E-02  0.411E-02    0.08       1.0  T
   4   -669.9067026 -0.208730E-02  0.262E-02    0.09       1.0  T
   5   -669.9076756 -0.973002E-03  0.155E-02    0.09       1.0  T
   6   -669.9074857  0.189875E-03  0.151E-02    0.09       1.0  T
   7   -669.9072085  0.277208E-03  0.167E-02    0.09       1.0  T
   8   -669.9075437 -0.335185E-03  0.168E-02    0.10       1.0  T
   9   -669.9079715 -0.427761E-03  0.287E-03    0.09       1.8  T
  10   -669.9079831 -0.116107E-04  0.889E-04    0.09       5.8  T
  11   -669.9079848 -0.170802E-05  0.326E-04    0.09      15.8  T
  12   -669.9079850 -0.168176E-06  0.894E-05    0.09      57.7  T
  13   -669.9079850 -0.796172E-08  0.418E-05    0.09     123.5  T
     SCC iter.                  ...        0 min,  8.158 sec
     gradient                   ...        0 min,  0.783 sec
 * total energy  :  -658.2048164 Eh     change       -0.1012534E-01 Eh
   gradient norm :     0.0289991 Eh/α   predicted    -0.1049420E-01 (   3.64%)
   displ. norm   :     0.8329890 α      lambda       -0.1142837E-01
   maximum displ.:     0.3537975 α      in ANC's #115, #138, #96, ...

........................................................................
.............................. CYCLE   12 ..............................
........................................................................
   1   -669.9399937 -0.669940E+03  0.217E-02    0.09       0.0  T
   2   -669.8960853  0.439085E-01  0.206E-01    0.09       1.0  T
   3   -669.9333554 -0.372701E-01  0.693E-02    0.06       1.0  T
   4   -669.9378929 -0.453750E-02  0.340E-02    0.08       1.0  T
   5   -669.9373600  0.532876E-03  0.376E-02    0.09       1.0  T
   6   -669.9398191 -0.245909E-02  0.196E-02    0.10       1.0  T
   7   -669.9399692 -0.150042E-03  0.141E-02    0.09       1.0  T
   8   -669.9399383  0.308172E-04  0.118E-02    0.09       1.0  T
   9   -669.9404443 -0.505946E-03  0.228E-03    0.09       2.3  T
  10   -669.9404486 -0.434876E-05  0.128E-03    0.09       4.0  T
  11   -669.9404508 -0.217589E-05  0.578E-04    0.09       8.9  T
  12   -669.9404513 -0.497461E-06  0.218E-04    0.09      23.6  T
  13   -669.9404514 -0.698326E-07  0.115E-04    0.09      44.7  T
  14   -669.9404514 -0.307075E-07  0.267E-05    0.09     192.9  T
     SCC iter.                  ...        0 min,  8.959 sec
     gradient                   ...        0 min,  0.780 sec
 * total energy  :  -658.2124905 Eh     change       -0.7674042E-02 Eh
   gradient norm :     0.0332977 Eh/α   predicted    -0.9679104E-02 (  26.13%)
   displ. norm   :     0.7565266 α      lambda       -0.9423838E-02
   maximum displ.:     0.3232784 α      in ANC's #115, #138, #96, ...

........................................................................
.............................. CYCLE   13 ..............................
........................................................................
   1   -669.9670981 -0.669967E+03  0.220E-02    0.09       0.0  T
   2   -669.9211133  0.459848E-01  0.188E-01    0.05       1.0  T
   3   -669.9345774 -0.134641E-01  0.138E-01    0.05       1.0  T
   4   -669.9664387 -0.318613E-01  0.264E-02    0.10       1.0  T
   5   -669.9673450 -0.906376E-03  0.160E-02    0.09       1.0  T
   6   -669.9652108  0.213427E-02  0.320E-02    0.08       1.0  T
   7   -669.9674796 -0.226886E-02  0.117E-02    0.09       1.0  T
   8   -669.9669092  0.570372E-03  0.140E-02    0.09       1.0  T
   9   -669.9676052 -0.695945E-03  0.385E-03    0.09       1.3  T
  10   -669.9676260 -0.208434E-04  0.206E-03    0.09       2.5  T
  11   -669.9676318 -0.577362E-05  0.504E-04    0.09      10.2  T
  12   -669.9676319 -0.102299E-06  0.342E-04    0.09      15.1  T
  13   -669.9676320 -0.974565E-07  0.234E-04    0.09      22.1  T
  14   -669.9676321 -0.884941E-07  0.627E-05    0.09      82.3  T
  15   -669.9676321 -0.453815E-08  0.353E-05    0.09     146.0  T
     SCC iter.                  ...        0 min,  9.436 sec
     gradient                   ...        0 min,  0.775 sec
 * total energy  :  -658.2190655 Eh     change       -0.6575026E-02 Eh
   gradient norm :     0.0290035 Eh/α   predicted    -0.7408707E-02 (  12.68%)
   displ. norm   :     0.7778735 α      lambda       -0.9336794E-02
   maximum displ.:     0.3081855 α      in ANC's #115, #96, #138, ...

........................................................................
.............................. CYCLE   14 ..............................
........................................................................
   1   -669.9913972 -0.669991E+03  0.293E-02    0.10       0.0  T
   2   -669.8669460  0.124451E+00  0.291E-01    0.02       1.0  T
   3   -669.9368921 -0.699461E-01  0.176E-01    0.04       1.0  T
   4   -669.9874898 -0.505978E-01  0.615E-02    0.12       1.0  T
   5   -669.9920833 -0.459345E-02  0.179E-02    0.10       1.0  T
   6   -669.9916845  0.398823E-03  0.150E-02    0.09       1.0  T
   7   -669.9910134  0.671044E-03  0.232E-02    0.08       1.0  T
   8   -669.9922881 -0.127471E-02  0.925E-03    0.09       1.0  T
   9   -669.9923771 -0.889774E-04  0.514E-03    0.10       1.0  T
  10   -669.9923696  0.747383E-05  0.566E-03    0.10       1.0  T
  11   -669.9924108 -0.411752E-04  0.274E-03    0.09       1.9  T
  12   -669.9924243 -0.135017E-04  0.585E-04    0.09       8.8  T
  13   -669.9924248 -0.512343E-06  0.252E-04    0.09      20.4  T
  14   -669.9924249 -0.112056E-06  0.853E-05    0.09      60.5  T
  15   -669.9924250 -0.435523E-08  0.538E-05    0.09      95.9  T
     SCC iter.                  ...        0 min,  9.398 sec
     gradient                   ...        0 min,  0.781 sec
 * total energy  :  -658.2244417 Eh     change       -0.5376246E-02 Eh
   gradient norm :     0.0368556 Eh/α   predicted    -0.7493187E-02 (  39.38%)
   displ. norm   :     0.6938502 α      lambda       -0.7370944E-02
   maximum displ.:     0.3112563 α      in ANC's #115, #96, #138, ...

........................................................................
.............................. CYCLE   15 ..............................
........................................................................
   1   -670.0095790 -0.670010E+03  0.283E-02    0.10       0.0  T
   2   -669.6743803  0.335199E+00  0.432E-01    0.02       1.0  T
   3   -669.9386979 -0.264318E+00  0.190E-01    0.02       1.0  T
   4   -670.0016666 -0.629687E-01  0.889E-02    0.13       1.0  T
   5   -670.0100333 -0.836661E-02  0.235E-02    0.10       1.0  T
   6   -670.0073490  0.268423E-02  0.381E-02    0.09       1.0  T
   7   -670.0106365 -0.328752E-02  0.126E-02    0.10       1.0  T
   8   -670.0098797  0.756878E-03  0.173E-02    0.09       1.0  T
   9   -670.0106788 -0.799162E-03  0.873E-03    0.10       1.0  T
  10   -670.0107939 -0.115052E-03  0.417E-03    0.10       1.2  T
  11   -670.0108246 -0.307418E-04  0.168E-03    0.10       3.1  T
  12   -670.0108268 -0.216072E-05  0.117E-03    0.09       4.4  T
  13   -670.0108290 -0.224907E-05  0.378E-04    0.09      13.6  T
  14   -670.0108293 -0.238070E-06  0.684E-05    0.09      75.4  T
  15   -670.0108293  0.139959E-07  0.101E-04    0.09      51.2  T
     SCC iter.                  ...        0 min,  9.451 sec
     gradient                   ...        0 min,  0.787 sec
 * total energy  :  -658.2304546 Eh     change       -0.6012906E-02 Eh
   gradient norm :     0.0264796 Eh/α   predicted    -0.5459763E-02 (  -9.20%)
   displ. norm   :     0.8063779 α      lambda       -0.7982640E-02
   maximum displ.:     0.3307531 α      in ANC's #115, #27, #96, ...

........................................................................
.............................. CYCLE   16 ..............................
........................................................................
   1   -670.0157935 -0.670016E+03  0.419E-02    0.12       0.0  T
   2   -669.4496346  0.566159E+00  0.560E-01    0.03       1.0  T
   3   -670.0075920 -0.557957E+00  0.101E-01    0.10       1.0  T
   4   -670.0161860 -0.859397E-02  0.389E-02    0.13       1.0  T
   5   -670.0136373  0.254868E-02  0.487E-02    0.09       1.0  T
   6   -670.0170479 -0.341064E-02  0.263E-02    0.10       1.0  T
   7   -670.0180543 -0.100636E-02  0.234E-02    0.10       1.0  T
   8   -670.0183193 -0.264956E-03  0.101E-02    0.10       1.0  T
   9   -670.0185167 -0.197443E-03  0.775E-03    0.10       1.0  T
  10   -670.0186191 -0.102355E-03  0.486E-03    0.10       1.1  T
  11   -670.0186554 -0.363159E-04  0.216E-03    0.10       2.4  T
  12   -670.0186646 -0.926761E-05  0.575E-04    0.10       9.0  T
  13   -670.0186647 -0.764517E-07  0.421E-04    0.10      12.2  T
  14   -670.0186651 -0.340417E-06  0.134E-04    0.10      38.5  T
  15   -670.0186651 -0.144072E-07  0.934E-05    0.10      55.2  T
     SCC iter.                  ...        0 min,  9.555 sec
     gradient                   ...        0 min,  0.781 sec
 * total energy  :  -658.2359933 Eh     change       -0.5538659E-02 Eh
   gradient norm :     0.0309327 Eh/α   predicted    -0.6586657E-02 (  18.92%)
   displ. norm   :     0.8014262 α      lambda       -0.7787032E-02
   maximum displ.:     0.2972332 α      in ANC's #115, #27, #96, ...

........................................................................
.............................. CYCLE   17 ..............................
........................................................................
   1   -670.0191353 -0.670019E+03  0.447E-02    0.13       0.0  T
   2   -669.4224216  0.596714E+00  0.566E-01    0.02       1.0  T
   3   -670.0090618 -0.586640E+00  0.116E-01    0.12       1.0  T
   4   -670.0194859 -0.104241E-01  0.421E-02    0.14       1.0  T
   5   -670.0129437  0.654217E-02  0.687E-02    0.08       1.0  T
   6   -670.0214918 -0.854812E-02  0.251E-02    0.12       1.0  T
   7   -670.0220069 -0.515092E-03  0.176E-02    0.11       1.0  T
   8   -670.0221048 -0.979072E-04  0.119E-02    0.10       1.0  T
   9   -670.0220176  0.872731E-04  0.119E-02    0.10       1.0  T
  10   -670.0222401 -0.222488E-03  0.832E-03    0.10       1.0  T
  11   -670.0223642 -0.124181E-03  0.351E-03    0.10       1.5  T
  12   -670.0223860 -0.217841E-04  0.107E-03    0.11       4.8  T
  13   -670.0223878 -0.182327E-05  0.186E-04    0.11      27.8  T
  14   -670.0223877  0.106239E-06  0.271E-04    0.11      19.0  T
  15   -670.0223878 -0.968855E-07  0.166E-04    0.11      31.1  T
  16   -670.0223879 -0.532622E-07  0.386E-05    0.11     133.6  T
     SCC iter.                  ...        0 min, 10.130 sec
     gradient                   ...        0 min,  0.787 sec
 * total energy  :  -658.2421695 Eh     change       -0.6176195E-02 Eh
   gradient norm :     0.0358777 Eh/α   predicted    -0.6394256E-02 (   3.53%)
   displ. norm   :     0.8238667 α      lambda       -0.8270328E-02
   maximum displ.:     0.2783425 α      in ANC's #115, #27, #96, ...

........................................................................
.............................. CYCLE   18 ..............................
........................................................................
   1   -670.0150620 -0.670015E+03  0.519E-02    0.14       0.0  T
   2   -669.4756377  0.539424E+00  0.530E-01    0.04       1.0  T
   3   -669.9781915 -0.502554E+00  0.177E-01    0.06       1.0  T
   4   -670.0123147 -0.341232E-01  0.754E-02    0.17       1.0  T
   5   -670.0162085 -0.389389E-02  0.474E-02    0.12       1.0  T
   6   -670.0139686  0.223991E-02  0.498E-02    0.10       1.0  T
   7   -670.0183427 -0.437408E-02  0.226E-02    0.11       1.0  T
   8   -670.0191541 -0.811353E-03  0.100E-02    0.11       1.0  T
   9   -670.0187873  0.366741E-03  0.172E-02    0.11       1.0  T
  10   -670.0191203 -0.332975E-03  0.105E-02    0.10       1.0  T
  11   -670.0192776 -0.157323E-03  0.558E-03    0.11       1.0  T
  12   -670.0193400 -0.623433E-04  0.151E-03    0.11       3.4  T
  13   -670.0193424 -0.239416E-05  0.743E-04    0.11       6.9  T
  14   -670.0193432 -0.891436E-06  0.377E-04    0.11      13.7  T
  15   -670.0193434 -0.201270E-06  0.217E-04    0.11      23.7  T
  16   -670.0193435 -0.733619E-07  0.735E-05    0.11      70.1  T
  17   -670.0193435 -0.359046E-08  0.439E-05    0.11     117.4  T
     SCC iter.                  ...        0 min, 10.772 sec
     gradient                   ...        0 min,  0.800 sec
 * total energy  :  -658.2495635 Eh     change       -0.7394042E-02 Eh
   gradient norm :     0.0247420 Eh/α   predicted    -0.6941934E-02 (  -6.11%)
   displ. norm   :     0.8894816 α      lambda       -0.9691039E-02
   maximum displ.:     0.2935056 α      in ANC's #27, #115, #41, ...

........................................................................
.............................. CYCLE   19 ..............................
........................................................................
   1   -670.0018045 -0.670002E+03  0.612E-02    0.15       0.0  T
   2   -669.4611633  0.540641E+00  0.527E-01    0.03       1.0  T
   3   -669.9760999 -0.514937E+00  0.181E-01    0.11       1.0  T
   4   -670.0034186 -0.273187E-01  0.595E-02    0.14       1.0  T
   5   -670.0029675  0.451148E-03  0.565E-02    0.12       1.0  T
   6   -670.0054379 -0.247050E-02  0.344E-02    0.15       1.0  T
   7   -670.0058698 -0.431847E-03  0.281E-02    0.12       1.0  T
   8   -670.0066791 -0.809261E-03  0.174E-02    0.13       1.0  T
   9   -670.0068309 -0.151829E-03  0.147E-02    0.12       1.0  T
  10   -670.0068737 -0.428193E-04  0.135E-02    0.11       1.0  T
  11   -670.0070267 -0.152961E-03  0.101E-02    0.12       1.0  T
  12   -670.0072068 -0.180143E-03  0.316E-03    0.12       1.6  T
  13   -670.0072184 -0.116136E-04  0.159E-03    0.12       3.2  T
  14   -670.0072226 -0.418492E-05  0.665E-04    0.12       7.8  T
  15   -670.0072228 -0.241836E-06  0.556E-04    0.12       9.3  T
  16   -670.0072234 -0.584101E-06  0.158E-04    0.12      32.7  T
  17   -670.0072234 -0.121173E-07  0.861E-05    0.12      59.9  T
     SCC iter.                  ...        0 min, 11.791 sec
     gradient                   ...        0 min,  0.789 sec
 * total energy  :  -658.2581522 Eh     change       -0.8588649E-02 Eh
   gradient norm :     0.0460313 Eh/α   predicted    -0.8679187E-02 (   1.05%)
   displ. norm   :     0.8962093 α      lambda       -0.1109703E-01
   maximum displ.:     0.3010363 α      in ANC's #27, #78, #41, ...

........................................................................
.............................. CYCLE   20 ..............................
........................................................................
   1   -669.9774306 -0.669977E+03  0.602E-02    0.18       0.0  T
   2   -669.6052875  0.372143E+00  0.457E-01    0.06       1.0  T
   3   -669.9549558 -0.349668E+00  0.173E-01    0.16       1.0  T
   4   -669.9776731 -0.227173E-01  0.588E-02    0.22       1.0  T
   5   -669.9790282 -0.135516E-02  0.535E-02    0.19       1.0  T
   6   -669.9810331 -0.200488E-02  0.265E-02    0.12       1.0  T
   7   -669.9819001 -0.866980E-03  0.166E-02    0.12       1.0  T
   8   -669.9797149  0.218523E-02  0.359E-02    0.10       1.0  T
   9   -669.9817832 -0.206835E-02  0.156E-02    0.12       1.0  T
  10   -669.9821416 -0.358397E-03  0.659E-03    0.13       1.0  T
  11   -669.9821872 -0.455637E-04  0.240E-03    0.13       2.1  T
  12   -669.9821955 -0.835999E-05  0.810E-04    0.13       6.4  T
  13   -669.9821965 -0.985469E-06  0.377E-04    0.13      13.7  T
  14   -669.9821967 -0.151558E-06  0.203E-04    0.13      25.4  T
  15   -669.9821967 -0.401463E-07  0.109E-04    0.13      47.3  T
  16   -669.9821967 -0.274053E-08  0.923E-05    0.13      55.9  T
     SCC iter.                  ...        0 min, 10.716 sec
     gradient                   ...        0 min,  0.787 sec
 * total energy  :  -658.2704023 Eh     change       -0.1225014E-01 Eh
   gradient norm :     0.0641160 Eh/α   predicted    -0.1000504E-01 ( -18.33%)
   displ. norm   :     0.8680550 α      lambda       -0.1547977E-01
   maximum displ.:     0.2796110 α      in ANC's #27, #114, #41, ...
 * RMSD in coord.:     0.5207743 α      energy gain  -0.1326522E+02 Eh

generating ANC from model Hessian ...
Using Lindh-Hessian (1995)
 Shifting diagonal of input Hessian by    1.0133619322596026E-002
 Lowest  eigenvalues of input Hessian
    0.010000    0.010098    0.010131    0.010132    0.010133    0.010134
    0.010134    0.000000    0.000000    0.000000    0.000000    0.000000
    0.000000    0.010134    0.010134    0.010134    0.010139    0.010140
 Highest eigenvalues
    2.902738    2.910174    2.932618    3.047811    3.051597    3.056953


........................................................................
.............................. CYCLE   21 ..............................
........................................................................
   1   -669.9545686 -0.669955E+03  0.530E-02    0.20       0.0  T
   2   -669.5961064  0.358462E+00  0.438E-01    0.07       1.0  T
   3   -669.9417298 -0.345623E+00  0.138E-01    0.28       1.0  T
   4   -669.9553246 -0.135949E-01  0.466E-02    0.24       1.0  T
   5   -669.9559853 -0.660666E-03  0.431E-02    0.21       1.0  T
   6   -669.9578582 -0.187295E-02  0.139E-02    0.16       1.0  T
   7   -669.9580322 -0.173980E-03  0.868E-03    0.14       1.0  T
   8   -669.9575215  0.510694E-03  0.174E-02    0.12       1.0  T
   9   -669.9579909 -0.469335E-03  0.821E-03    0.13       1.0  T
  10   -669.9580917 -0.100794E-03  0.338E-03    0.14       1.5  T
  11   -669.9581061 -0.144016E-04  0.131E-03    0.14       3.9  T
  12   -669.9581090 -0.295403E-05  0.391E-04    0.14      13.2  T
  13   -669.9581092 -0.212283E-06  0.222E-04    0.14      23.2  T
  14   -669.9581093 -0.846255E-07  0.444E-05    0.14     116.1  T
  15   -669.9581093 -0.131718E-08  0.212E-05    0.14     242.8  T
     SCC iter.                  ...        0 min,  9.657 sec
     gradient                   ...        0 min,  0.784 sec
 * total energy  :  -658.2880711 Eh     change       -0.1766879E-01 Eh
   gradient norm :     0.0784399 Eh/α   predicted     0.0000000E+00 (-100.00%)
   displ. norm   :     0.6424000 α      lambda       -0.2280813E-01
   maximum displ.:     0.1825120 α      in ANC's #47, #191, #109, ...

........................................................................
.............................. CYCLE   22 ..............................
........................................................................
   1   -669.9230794 -0.669923E+03  0.376E-02    0.20       0.0  T
   2   -669.6900318  0.233048E+00  0.351E-01    0.04       1.0  T
   3   -669.9221602 -0.232128E+00  0.484E-02    0.25       1.0  T
   4   -669.9232778 -0.111763E-02  0.285E-02    0.22       1.0  T
   5   -669.9234247 -0.146948E-03  0.333E-02    0.20       1.0  T
   6   -669.9243924 -0.967656E-03  0.109E-02    0.18       1.0  T
   7   -669.9245976 -0.205243E-03  0.455E-03    0.16       1.1  T
   8   -669.9244867  0.110952E-03  0.814E-03    0.14       1.0  T
   9   -669.9245555 -0.688591E-04  0.523E-03    0.14       1.0  T
  10   -669.9246038 -0.482110E-04  0.183E-03    0.15       2.8  T
  11   -669.9246096 -0.587277E-05  0.677E-04    0.15       7.6  T
  12   -669.9246106 -0.922404E-06  0.151E-04    0.15      34.2  T
  13   -669.9246106 -0.396552E-07  0.350E-05    0.15     147.5  T
     SCC iter.                  ...        0 min,  8.140 sec
     gradient                   ...        0 min,  0.782 sec
 * total energy  :  -658.3110149 Eh     change       -0.2294384E-01 Eh
   gradient norm :     0.0619770 Eh/α   predicted    -0.1611059E-01 ( -29.78%)
   displ. norm   :     0.7117704 α      lambda       -0.2592326E-01
   maximum displ.:     0.1998711 α      in ANC's #47, #191, #123, ...

........................................................................
.............................. CYCLE   23 ..............................
........................................................................
   1   -669.9040582 -0.669904E+03  0.388E-02    0.22       0.0  T
   2   -669.7763611  0.127697E+00  0.257E-01    0.00       1.0  T
   3   -669.9020951 -0.125734E+00  0.638E-02    0.26       1.0  T
   4   -669.9045339 -0.243881E-02  0.292E-02    0.24       1.0  T
   5   -669.9049318 -0.397919E-03  0.242E-02    0.22       1.0  T
   6   -669.9055744 -0.642524E-03  0.530E-03    0.17       1.0  T
   7   -669.9054545  0.119892E-03  0.896E-03    0.15       1.0  T
   8   -669.9054503  0.414837E-05  0.849E-03    0.15       1.0  T
   9   -669.9055491 -0.987275E-04  0.457E-03    0.16       1.1  T
  10   -669.9055827 -0.336200E-04  0.184E-03    0.16       2.8  T
  11   -669.9055884 -0.576116E-05  0.540E-04    0.17       9.6  T
  12   -669.9055890 -0.569042E-06  0.112E-04    0.17      46.2  T
  13   -669.9055890 -0.185187E-07  0.497E-05    0.17     103.8  T
     SCC iter.                  ...        0 min,  8.158 sec
     gradient                   ...        0 min,  0.781 sec
 * total energy  :  -658.3388516 Eh     change       -0.2783668E-01 Eh
   gradient norm :     0.0668895 Eh/α   predicted    -0.1953001E-01 ( -29.84%)
   displ. norm   :     0.7368214 α      lambda       -0.3109913E-01
   maximum displ.:     0.2062575 α      in ANC's #191, #47, #109, ...

........................................................................
.............................. CYCLE   24 ..............................
........................................................................
   1   -669.8888744 -0.669889E+03  0.392E-02    0.25       0.0  T
   2   -669.8494943  0.393801E-01  0.150E-01    0.06       1.0  T
   3   -669.8881326 -0.386382E-01  0.497E-02    0.29       1.0  T
   4   -669.8896662 -0.153369E-02  0.237E-02    0.25       1.0  T
   5   -669.8898580 -0.191711E-03  0.197E-02    0.22       1.0  T
   6   -669.8896293  0.228658E-03  0.176E-02    0.15       1.0  T
   7   -669.8898697 -0.240410E-03  0.122E-02    0.16       1.0  T
   8   -669.8901116 -0.241847E-03  0.390E-03    0.18       1.3  T
   9   -669.8901331 -0.215030E-04  0.161E-03    0.18       3.2  T
  10   -669.8901374 -0.436930E-05  0.284E-04    0.19      18.1  T
  11   -669.8901376 -0.136454E-06  0.126E-04    0.19      41.0  T
  12   -669.8901376 -0.143365E-07  0.361E-05    0.19     142.9  T
     SCC iter.                  ...        0 min,  7.591 sec
     gradient                   ...        0 min,  0.790 sec
 * total energy  :  -658.3702726 Eh     change       -0.3142098E-01 Eh
   gradient norm :     0.0644862 Eh/α   predicted    -0.2399159E-01 ( -23.64%)
   displ. norm   :     0.9573710 α      lambda       -0.4398137E-01
   maximum displ.:     0.2808280 α      in ANC's #191, #47, #123, ...

........................................................................
.............................. CYCLE   25 ..............................
........................................................................
   1   -669.8578605 -0.669858E+03  0.630E-02    0.36       0.0  T
   2   -669.8535122  0.434831E-02  0.107E-01    0.17       1.0  T
   3   -669.8602191 -0.670695E-02  0.378E-02    0.27       1.0  T
   4   -669.8599116  0.307490E-03  0.311E-02    0.23       1.0  T
   5   -669.8601868 -0.275192E-03  0.126E-02    0.23       1.0  T
   6   -669.8603029 -0.116108E-03  0.556E-03    0.26       1.0  T
   7   -669.8603221 -0.191836E-04  0.245E-03    0.24       2.1  T
   8   -669.8603256 -0.342043E-05  0.129E-03    0.25       4.0  T
   9   -669.8603272 -0.168980E-05  0.387E-04    0.25      13.3  T
  10   -669.8603274 -0.133022E-06  0.946E-05    0.25      54.5  T
  11   -669.8603274 -0.378509E-08  0.483E-05    0.25     106.8  T
     SCC iter.                  ...        0 min,  7.339 sec
     gradient                   ...        0 min,  0.792 sec
 * total energy  :  -658.3933916 Eh     change       -0.2311898E-01 Eh
   gradient norm :     0.0979817 Eh/α   predicted    -0.4214646E-01 (  82.30%)
   displ. norm   :     0.6895910 α      lambda       -0.3296054E-01
   maximum displ.:     0.2047607 α      in ANC's #47, #109, #29, ...

........................................................................
.............................. CYCLE   26 ..............................
........................................................................
   1   -669.8726976 -0.669873E+03  0.232E-02    0.37       0.0  T
   2   -669.8727280 -0.303514E-04  0.253E-02    0.29       1.0  T
   3   -669.8729588 -0.230881E-03  0.112E-02    0.33       1.0  T
   4   -669.8728652  0.936719E-04  0.127E-02    0.30       1.0  T
   5   -669.8729436 -0.784315E-04  0.705E-03    0.31       1.0  T
   6   -669.8729726 -0.289532E-04  0.141E-03    0.32       3.7  T
   7   -669.8729735 -0.926775E-06  0.325E-04    0.32      15.8  T
   8   -669.8729735 -0.408667E-07  0.181E-04    0.32      28.4  T
   9   -669.8729735 -0.264732E-07  0.876E-05    0.32      58.9  T
     SCC iter.                  ...        0 min,  6.052 sec
     gradient                   ...        0 min,  0.791 sec
 * total energy  :  -658.4109485 Eh     change       -0.1755692E-01 Eh
   gradient norm :     0.0728250 Eh/α   predicted    -0.2431724E-01 (  38.51%)
   displ. norm   :     0.6836848 α      lambda       -0.2049681E-01
   maximum displ.:     0.2224435 α      in ANC's #47, #109, #116, ...

........................................................................
.............................. CYCLE   27 ..............................
........................................................................
   1   -669.8824210 -0.669882E+03  0.306E-02    0.66       0.0  T
   2   -669.8815942  0.826749E-03  0.546E-02    0.60       1.0  T
   3   -669.8832235 -0.162930E-02  0.128E-02    0.61       1.0  T
   4   -669.8832327 -0.919468E-05  0.675E-03    0.64       1.0  T
   5   -669.8832555 -0.227488E-04  0.409E-03    0.62       1.3  T
   6   -669.8832657 -0.102867E-04  0.990E-04    0.63       5.2  T
   7   -669.8832663 -0.566123E-06  0.361E-04    0.63      14.3  T
   8   -669.8832664 -0.705321E-07  0.132E-04    0.63      39.0  T
   9   -669.8832664 -0.541570E-08  0.887E-05    0.63      58.1  T
     SCC iter.                  ...        0 min,  6.004 sec
     gradient                   ...        0 min,  0.790 sec
 * total energy  :  -658.4311938 Eh     change       -0.2024531E-01 Eh
   gradient norm :     0.0631943 Eh/α   predicted    -0.1503877E-01 ( -25.72%)
   displ. norm   :     0.8882096 α      lambda       -0.4044568E-01
   maximum displ.:     0.2066306 α      in ANC's #116, #47, #109, ...

........................................................................
.............................. CYCLE   28 ..............................
........................................................................
   1   -669.9214945 -0.669921E+03  0.623E-02    0.78       0.0  T
   2   -669.9226019 -0.110738E-02  0.642E-02    0.78       1.0  T
   3   -669.9240717 -0.146978E-02  0.202E-02    0.78       1.0  T
   4   -669.9239892  0.824625E-04  0.118E-02    0.78       1.0  T
   5   -669.9240576 -0.683807E-04  0.790E-03    0.78       1.0  T
   6   -669.9241004 -0.427870E-04  0.150E-03    0.78       3.4  T
   7   -669.9241015 -0.111281E-05  0.696E-04    0.78       7.4  T
   8   -669.9241017 -0.253377E-06  0.273E-04    0.78      18.9  T
   9   -669.9241018 -0.288813E-07  0.161E-04    0.78      32.0  T
  10   -669.9241018 -0.263623E-07  0.551E-05    0.78      93.6  T
     SCC iter.                  ...        0 min,  6.678 sec
     gradient                   ...        0 min,  0.790 sec
 * total energy  :  -658.4584368 Eh     change       -0.2724300E-01 Eh
   gradient norm :     0.1088781 Eh/α   predicted    -0.3617695E-01 (  32.79%)
   displ. norm   :     0.9125647 α      lambda       -0.3402395E-01
   maximum displ.:     0.2710564 α      in ANC's #47, #109, #116, ...

........................................................................
.............................. CYCLE   29 ..............................
........................................................................
   1   -669.9121206 -0.669912E+03  0.347E-02    0.79       0.0  T
   2   -669.9124003 -0.279636E-03  0.355E-02    0.79       1.0  T
   3   -669.9126651 -0.264834E-03  0.162E-02    0.79       1.0  T
   4   -669.9125648  0.100295E-03  0.112E-02    0.79       1.0  T
   5   -669.9126654 -0.100588E-03  0.279E-03    0.79       1.9  T
   6   -669.9126726 -0.721689E-05  0.103E-03    0.79       5.0  T
   7   -669.9126735 -0.856009E-06  0.448E-04    0.79      11.5  T
   8   -669.9126736 -0.174244E-06  0.155E-04    0.79      33.3  T
   9   -669.9126737 -0.185664E-07  0.654E-05    0.79      78.8  T
     SCC iter.                  ...        0 min,  5.865 sec
     gradient                   ...        0 min,  0.785 sec
 * total energy  :  -658.4898610 Eh     change       -0.3142421E-01 Eh
   gradient norm :     0.1163524 Eh/α   predicted    -0.3117911E-01 (  -0.78%)
   displ. norm   :     0.8231617 α      lambda       -0.3419124E-01
   maximum displ.:     0.2191056 α      in ANC's #47, #109, #116, ...

........................................................................
.............................. CYCLE   30 ..............................
........................................................................
   1   -669.8620988 -0.669862E+03  0.344E-02    0.78       0.0  T
   2   -669.8622466 -0.147803E-03  0.356E-02    0.78       1.0  T
   3   -669.8624826 -0.236004E-03  0.179E-02    0.78       1.0  T
   4   -669.8623530  0.129567E-03  0.129E-02    0.78       1.0  T
   5   -669.8624789 -0.125873E-03  0.268E-03    0.78       1.9  T
   6   -669.8624881 -0.922607E-05  0.832E-04    0.78       6.2  T
   7   -669.8624886 -0.544868E-06  0.296E-04    0.78      17.4  T
   8   -669.8624887 -0.869272E-07  0.117E-04    0.78      44.2  T
   9   -669.8624887 -0.114807E-07  0.515E-05    0.78     100.1  T
     SCC iter.                  ...        0 min,  5.751 sec
     gradient                   ...        0 min,  0.834 sec
 * total energy  :  -658.5138326 Eh     change       -0.2397155E-01 Eh
   gradient norm :     0.0878582 Eh/α   predicted    -0.2867954E-01 (  19.64%)
   displ. norm   :     0.7995675 α      lambda       -0.2881247E-01
   maximum displ.:     0.2582239 α      in ANC's #47, #109, #50, ...

........................................................................
.............................. CYCLE   31 ..............................
........................................................................
   1   -669.8951460 -0.669895E+03  0.226E-02    0.78       0.0  T
   2   -669.8951738 -0.277456E-04  0.260E-02    0.78       1.0  T
   3   -669.8953531 -0.179296E-03  0.114E-02    0.78       1.0  T
   4   -669.8952839  0.691713E-04  0.886E-03    0.78       1.0  T
   5   -669.8953548 -0.709265E-04  0.195E-03    0.78       2.6  T
   6   -669.8953571 -0.232451E-05  0.370E-04    0.78      13.9  T
   7   -669.8953572 -0.343223E-07  0.166E-04    0.78      31.0  T
   8   -669.8953572 -0.300961E-07  0.640E-05    0.78      80.6  T
     SCC iter.                  ...        0 min,  5.279 sec
     gradient                   ...        0 min,  0.792 sec
 * total energy  :  -658.5319613 Eh     change       -0.1812869E-01 Eh
   gradient norm :     0.0828357 Eh/α   predicted    -0.2361626E-01 (  30.27%)
   displ. norm   :     0.6904879 α      lambda       -0.3859837E-01
   maximum displ.:     0.1777925 α      in ANC's #47, #50, #29, ...

........................................................................
.............................. CYCLE   32 ..............................
........................................................................
   1   -669.9507544 -0.669951E+03  0.356E-02    0.78       0.0  T
   2   -669.9510537 -0.299356E-03  0.304E-02    0.78       1.0  T
   3   -669.9512486 -0.194920E-03  0.144E-02    0.78       1.0  T
   4   -669.9511410  0.107640E-03  0.115E-02    0.78       1.0  T
   5   -669.9512501 -0.109079E-03  0.353E-03    0.78       1.5  T
   6   -669.9512575 -0.737509E-05  0.867E-04    0.78       5.9  T
   7   -669.9512582 -0.753308E-06  0.278E-04    0.78      18.6  T
   8   -669.9512583 -0.800156E-07  0.121E-04    0.78      42.7  T
   9   -669.9512583 -0.123524E-07  0.397E-05    0.78     130.0  T
     SCC iter.                  ...        0 min,  5.925 sec
     gradient                   ...        0 min,  0.787 sec
 * total energy  :  -658.5453340 Eh     change       -0.1337277E-01 Eh
   gradient norm :     0.1067212 Eh/α   predicted    -0.2850054E-01 ( 113.12%)
   displ. norm   :     0.8035295 α      lambda       -0.3792921E-01
   maximum displ.:     0.2029242 α      in ANC's #47, #116, #17, ...

........................................................................
.............................. CYCLE   33 ..............................
........................................................................
   1   -670.0280110 -0.670028E+03  0.371E-02    0.79       0.0  T
   2   -670.0283708 -0.359785E-03  0.282E-02    0.79       1.0  T
   3   -670.0285526 -0.181864E-03  0.126E-02    0.79       1.0  T
   4   -670.0285053  0.473242E-04  0.975E-03    0.79       1.0  T
   5   -670.0285526 -0.473202E-04  0.286E-03    0.79       1.8  T
   6   -670.0285608 -0.818968E-05  0.934E-04    0.79       5.5  T
   7   -670.0285616 -0.825845E-06  0.242E-04    0.79      21.3  T
   8   -670.0285617 -0.573172E-07  0.102E-04    0.79      50.5  T
   9   -670.0285617 -0.120418E-07  0.323E-05    0.79     159.6  T
     SCC iter.                  ...        0 min,  5.992 sec
     gradient                   ...        0 min,  0.797 sec
 * total energy  :  -658.5562286 Eh     change       -0.1089452E-01 Eh
   gradient norm :     0.1230834 Eh/α   predicted    -0.3120930E-01 ( 186.47%)
   displ. norm   :     0.5535023 α      lambda       -0.2796867E-01
   maximum displ.:     0.2132464 α      in ANC's #50, #47, #17, ...

........................................................................
.............................. CYCLE   34 ..............................
........................................................................
   1   -670.0205554 -0.670021E+03  0.203E-02    0.78       0.0  T
   2   -670.0206232 -0.678208E-04  0.147E-02    0.78       1.0  T
   3   -670.0206702 -0.470267E-04  0.754E-03    0.78       1.0  T
   4   -670.0206432  0.270440E-04  0.715E-03    0.78       1.0  T
   5   -670.0206877 -0.445550E-04  0.211E-03    0.78       2.4  T
   6   -670.0206909 -0.315017E-05  0.637E-04    0.78       8.1  T
   7   -670.0206913 -0.436700E-06  0.175E-04    0.78      29.5  T
   8   -670.0206913 -0.304201E-07  0.642E-05    0.78      80.3  T
     SCC iter.                  ...        0 min,  5.158 sec
     gradient                   ...        0 min,  0.826 sec
 * total energy  :  -658.5739737 Eh     change       -0.1774509E-01 Eh
   gradient norm :     0.0524478 Eh/α   predicted    -0.1826867E-01 (   2.95%)
   displ. norm   :     0.8631048 α      lambda       -0.2209181E-01
   maximum displ.:     0.3097316 α      in ANC's #67, #47, #17, ...

........................................................................
.............................. CYCLE   35 ..............................
........................................................................
   1   -670.0015649 -0.670002E+03  0.186E-02    0.78       0.0  T
   2   -670.0015952 -0.303773E-04  0.190E-02    0.78       1.0  T
   3   -670.0017112 -0.115941E-03  0.774E-03    0.78       1.0  T
   4   -670.0016728  0.383664E-04  0.688E-03    0.78       1.0  T
   5   -670.0017105 -0.376927E-04  0.178E-03    0.78       2.9  T
   6   -670.0017140 -0.350737E-05  0.509E-04    0.78      10.1  T
   7   -670.0017143 -0.275055E-06  0.178E-04    0.78      29.0  T
   8   -670.0017143 -0.299250E-07  0.533E-05    0.78      96.7  T
     SCC iter.                  ...        0 min,  5.087 sec
     gradient                   ...        0 min,  0.789 sec
 * total energy  :  -658.5788326 Eh     change       -0.4858907E-02 Eh
   gradient norm :     0.0817168 Eh/α   predicted    -0.1927456E-01 ( 296.69%)
   displ. norm   :     0.6056497 α      lambda       -0.2350992E-01
   maximum displ.:     0.2057831 α      in ANC's #47, #67, #17, ...

........................................................................
.............................. CYCLE   36 ..............................
........................................................................
   1   -670.0647527 -0.670065E+03  0.170E-02    0.78       0.0  T
   2   -670.0647948 -0.420617E-04  0.163E-02    0.78       1.0  T
   3   -670.0648519 -0.571687E-04  0.778E-03    0.78       1.0  T
   4   -670.0648382  0.137313E-04  0.439E-03    0.78       1.2  T
   5   -670.0648511 -0.129501E-04  0.116E-03    0.78       4.4  T
   6   -670.0648528 -0.161896E-05  0.332E-04    0.78      15.5  T
   7   -670.0648529 -0.999720E-07  0.123E-04    0.78      41.8  T
   8   -670.0648529 -0.153527E-07  0.517E-05    0.78      99.8  T
     SCC iter.                  ...        0 min,  5.155 sec
     gradient                   ...        0 min,  0.823 sec
 * total energy  :  -658.5945660 Eh     change       -0.1573347E-01 Eh
   gradient norm :     0.0424842 Eh/α   predicted    -0.1606682E-01 (   2.12%)
   displ. norm   :     0.7622047 α      lambda       -0.1364026E-01
   maximum displ.:     0.2862540 α      in ANC's #47, #17, #15, ...

........................................................................
.............................. CYCLE   37 ..............................
[...]
   135   6 C      136   6 C                                       1.2342756
   137   6 C      138   6 C                                       1.2326148
   139   6 C      140   6 C                                       1.2259122
   141   6 C      142   6 C                                       1.2258703
   143   6 C      144   6 C                                       1.2325795
   145   6 C      146   6 C                                       1.2342340
   147   6 C      148   6 C                                       1.2325697
   149   6 C      150   6 C                                       1.2258599
   151   6 C      152   6 C                                       1.2256593
   153   6 C      154   6 C                                       1.2323176
   155   6 C      156   6 C                                       1.2339206
   157   6 C      158   6 C                                       1.2321800
   159   6 C      160   6 C                                       1.2253861
   161   6 C      162   6 C                                       1.4087035
   162   6 C      163   6 C                                       1.4186081
   163   6 C      164   6 C                                       1.3681794
   164   6 C      165   6 C                                       1.4215998
   162   6 C      166   7 N                                       1.3629186
   165   6 C      166   7 N                                       1.3691331
   165   6 C      167   6 C                                       1.4003412
   168   6 C      169   6 C                                       1.3943062
   169   6 C      170   6 C                                       1.3859612
   170   6 C      171   7 N                                       1.3291220
   171   7 N      172   6 C                                       1.3289942
   168   6 C      173   6 C                                       1.3943801
   172   6 C      173   6 C                                       1.3860632
   167   6 C      174   6 C                                       1.3955322
   174   6 C      175   6 C                                       1.4522793
   175   6 C      176   6 C                                       1.3489550
   174   6 C      177   7 N                                       1.3618498
   176   6 C      178   6 C                                       1.4495723
   177   7 N      178   6 C                                       1.3481654
   178   6 C      179   6 C                                       1.4101727
   179   6 C      180   6 C                                       1.4088686
   180   6 C      181   6 C                                       1.4186991
   181   6 C      182   6 C                                       1.3681526
   182   6 C      183   6 C                                       1.4216396
   180   6 C      184   7 N                                       1.3628890
   183   6 C      184   7 N                                       1.3693636
   183   6 C      185   6 C                                       1.4001489
   186   6 C      187   6 C                                       1.3943414
   187   6 C      188   6 C                                       1.3859458
   188   6 C      189   7 N                                       1.3291271
   189   7 N      190   6 C                                       1.3289766
   186   6 C      191   6 C                                       1.3943418
   190   6 C      191   6 C                                       1.3860886
   185   6 C      192   6 C                                       1.3957525
   192   6 C      193   6 C                                       1.4522911
   193   6 C      194   6 C                                       1.3489653
   161   6 C      195   6 C                                       1.4098227
   194   6 C      195   6 C                                       1.4494666
   192   6 C      196   7 N                                       1.3615650
   195   6 C      196   7 N                                       1.3483577
   163   6 C      197   1 H                                       1.0779981
   164   6 C      198   1 H                                       1.0776855
   166   7 N      199   1 H                                       1.0145095
   169   6 C      200   1 H                                       1.0834303
   170   6 C      201   1 H                                       1.0860461
   172   6 C      202   1 H                                       1.0860749
   173   6 C      203   1 H                                       1.0835502
   175   6 C      204   1 H                                       1.0778426
   176   6 C      205   1 H                                       1.0782021
   181   6 C      206   1 H                                       1.0779955
   182   6 C      207   1 H                                       1.0776958
   184   7 N      208   1 H                                       1.0145158
   187   6 C      209   1 H                                       1.0834323
   188   6 C      210   1 H                                       1.0860455
   190   6 C      211   1 H                                       1.0860708
   191   6 C      212   1 H                                       1.0835457
   193   6 C      213   1 H                                       1.0778324
   194   6 C      214   1 H                                       1.0782040
   215   6 C      216   6 C                                       1.4088922
   216   6 C      217   6 C                                       1.4185840
   217   6 C      218   6 C                                       1.3681879
   218   6 C      219   6 C                                       1.4216474
   216   6 C      220   7 N                                       1.3629451
   219   6 C      220   7 N                                       1.3692268
   219   6 C      221   6 C                                       1.4003087
   222   6 C      223   6 C                                       1.3942747
   223   6 C      224   6 C                                       1.3859786
   224   6 C      225   7 N                                       1.3291106
   225   7 N      226   6 C                                       1.3289813
   222   6 C      227   6 C                                       1.3943508
   226   6 C      227   6 C                                       1.3860751
   221   6 C      228   6 C                                       1.3956031
   228   6 C      229   6 C                                       1.4523354
   229   6 C      230   6 C                                       1.3489714
   228   6 C      231   7 N                                       1.3617718
   230   6 C      232   6 C                                       1.4494813
   231   7 N      232   6 C                                       1.3482806
   232   6 C      233   6 C                                       1.4101311
   233   6 C      234   6 C                                       1.4089341
   234   6 C      235   6 C                                       1.4186042
   235   6 C      236   6 C                                       1.3681818
   236   6 C      237   6 C                                       1.4216570
   234   6 C      238   7 N                                       1.3629687
   237   6 C      238   7 N                                       1.3692878
   237   6 C      239   6 C                                       1.4002997
   240   6 C      241   6 C                                       1.3943104
   241   6 C      242   6 C                                       1.3859640
   242   6 C      243   7 N                                       1.3291154
   243   7 N      244   6 C                                       1.3289771
   240   6 C      245   6 C                                       1.3943505
   244   6 C      245   6 C                                       1.3860816
   239   6 C      246   6 C                                       1.3956761
   246   6 C      247   6 C                                       1.4523485
   247   6 C      248   6 C                                       1.3489730
   215   6 C      249   6 C                                       1.4100581
   248   6 C      249   6 C                                       1.4494405
   246   6 C      250   7 N                                       1.3617062
   249   6 C      250   7 N                                       1.3483096
   217   6 C      251   1 H                                       1.0779967
   218   6 C      252   1 H                                       1.0776894
   220   7 N      253   1 H                                       1.0145073
   223   6 C      254   1 H                                       1.0834291
   224   6 C      255   1 H                                       1.0860427
   226   6 C      256   1 H                                       1.0860704
   227   6 C      257   1 H                                       1.0835492
   229   6 C      258   1 H                                       1.0778388
   230   6 C      259   1 H                                       1.0782084
   235   6 C      260   1 H                                       1.0779946
   236   6 C      261   1 H                                       1.0776898
   238   7 N      262   1 H                                       1.0145102
   241   6 C      263   1 H                                       1.0834304
   242   6 C      264   1 H                                       1.0860430
   244   6 C      265   1 H                                       1.0860684
   245   6 C      266   1 H                                       1.0835474
   247   6 C      267   1 H                                       1.0778331
   248   6 C      268   1 H                                       1.0782081
   269   6 C      270   6 C                                       1.4089347
   270   6 C      271   6 C                                       1.4186014
   271   6 C      272   6 C                                       1.3681813
   272   6 C      273   6 C                                       1.4216580
   270   6 C      274   7 N                                       1.3629691
   273   6 C      274   7 N                                       1.3692893
   273   6 C      275   6 C                                       1.4003028
   276   6 C      277   6 C                                       1.3943161
   277   6 C      278   6 C                                       1.3859602
   278   6 C      279   7 N                                       1.3291162
   279   7 N      280   6 C                                       1.3289769
   276   6 C      281   6 C                                       1.3943501
   280   6 C      281   6 C                                       1.3860830
   275   6 C      282   6 C                                       1.3956814
   282   6 C      283   6 C                                       1.4523493
   283   6 C      284   6 C                                       1.3489727
   282   6 C      285   7 N                                       1.3617044
   284   6 C      286   6 C                                       1.4494387
   285   7 N      286   6 C                                       1.3483119
   286   6 C      287   6 C                                       1.4100621
   287   6 C      288   6 C                                       1.4088910
   288   6 C      289   6 C                                       1.4185844
   289   6 C      290   6 C                                       1.3681893
   290   6 C      291   6 C                                       1.4216474
   288   6 C      292   7 N                                       1.3629477
   291   6 C      292   7 N                                       1.3692279
   291   6 C      293   6 C                                       1.4003048
   294   6 C      295   6 C                                       1.3942744
   295   6 C      296   6 C                                       1.3859775
   296   6 C      297   7 N                                       1.3291112
   297   7 N      298   6 C                                       1.3289808
   294   6 C      299   6 C                                       1.3943448
   298   6 C      299   6 C                                       1.3860782
   293   6 C      300   6 C                                       1.3955989
   300   6 C      301   6 C                                       1.4523362
   301   6 C      302   6 C                                       1.3489711
   269   6 C      303   6 C                                       1.4101302
   302   6 C      303   6 C                                       1.4494833
   300   6 C      304   7 N                                       1.3617694
   303   6 C      304   7 N                                       1.3482808
   271   6 C      305   1 H                                       1.0779943
   272   6 C      306   1 H                                       1.0776888
   274   7 N      307   1 H                                       1.0145109
   277   6 C      308   1 H                                       1.0834310
   278   6 C      309   1 H                                       1.0860430
   280   6 C      310   1 H                                       1.0860681
   281   6 C      311   1 H                                       1.0835470
   283   6 C      312   1 H                                       1.0778330
   284   6 C      313   1 H                                       1.0782084
   289   6 C      314   1 H                                       1.0779968
   290   6 C      315   1 H                                       1.0776899
   292   7 N      316   1 H                                       1.0145080
   295   6 C      317   1 H                                       1.0834299
   296   6 C      318   1 H                                       1.0860432
   298   6 C      319   1 H                                       1.0860706
   299   6 C      320   1 H                                       1.0835487
   301   6 C      321   1 H                                       1.0778397
   302   6 C      322   1 H                                       1.0782086
   323   6 C      324   6 C                                       1.4088838
   324   6 C      325   6 C                                       1.4186954
   325   6 C      326   6 C                                       1.3681561
   326   6 C      327   6 C                                       1.4216374
   324   6 C      328   7 N                                       1.3628874
   327   6 C      328   7 N                                       1.3693670
   327   6 C      329   6 C                                       1.4001604
   330   6 C      331   6 C                                       1.3943654
   331   6 C      332   6 C                                       1.3859323
   332   6 C      333   7 N                                       1.3291302
   333   7 N      334   6 C                                       1.3289772
   330   6 C      335   6 C                                       1.3943444
   334   6 C      335   6 C                                       1.3860922
   329   6 C      336   6 C                                       1.3957753
   336   6 C      337   6 C                                       1.4522838
   337   6 C      338   6 C                                       1.3489774
   336   6 C      339   7 N                                       1.3615551
   338   6 C      340   6 C                                       1.4494532
   339   7 N      340   6 C                                       1.3483613
   340   6 C      341   6 C                                       1.4098455
   341   6 C      342   6 C                                       1.4087062
   342   6 C      343   6 C                                       1.4185950
   343   6 C      344   6 C                                       1.3681945
   344   6 C      345   6 C                                       1.4215944
   342   6 C      346   7 N                                       1.3629218
   345   6 C      346   7 N                                       1.3691191
   345   6 C      347   6 C                                       1.4003608
   348   6 C      349   6 C                                       1.3943003
   349   6 C      350   6 C                                       1.3859661
   350   6 C      351   7 N                                       1.3291204
   351   7 N      352   6 C                                       1.3289977
   348   6 C      353   6 C                                       1.3943951
   352   6 C      353   6 C                                       1.3860549
   347   6 C      354   6 C                                       1.3955296
   354   6 C      355   6 C                                       1.4522826
   355   6 C      356   6 C                                       1.3489629
   323   6 C      357   6 C                                       1.4101714
   356   6 C      357   6 C                                       1.4495661
   354   6 C      358   7 N                                       1.3618558
   357   6 C      358   7 N                                       1.3481606
   325   6 C      359   1 H                                       1.0779947
   326   6 C      360   1 H                                       1.0776942
   328   7 N      361   1 H                                       1.0145135
   331   6 C      362   1 H                                       1.0834348
   332   6 C      363   1 H                                       1.0860467
   334   6 C      364   1 H                                       1.0860695
   335   6 C      365   1 H                                       1.0835447
   337   6 C      366   1 H                                       1.0778333
   338   6 C      367   1 H                                       1.0782029
   343   6 C      368   1 H                                       1.0780007
   344   6 C      369   1 H                                       1.0776880
   346   7 N      370   1 H                                       1.0145078
   349   6 C      371   1 H                                       1.0834289
   350   6 C      372   1 H                                       1.0860456
   352   6 C      373   1 H                                       1.0860754
   353   6 C      374   1 H                                       1.0835524
   355   6 C      375   1 H                                       1.0778434
   356   6 C      376   1 H                                       1.0782044

 * 4 distinct bonds (by element types)

   Z      Z             #   av. dist./Å        max./Å        min./Å
   1 H    6 C          98     1.0814669     1.0861133     1.0776855
   6 C    6 C         191     1.3790848     1.4524072     1.2253732
   1 H    7 N          12     1.0145406     1.0147112     1.0144911
   6 C    7 N          72     1.3500564     1.3700477     1.3289766


optimized geometry written to: xtbopt.xyz


           -------------------------------------------------
          | TOTAL ENERGY             -658.714413979973 Eh   |
          | GRADIENT NORM               0.000334985398 Eh/α |
          | HOMO-LUMO GAP               0.769899460093 eV   |
           -------------------------------------------------

------------------------------------------------------------------------
 * finished run on 2022/07/27 at 19:15:02.619     
------------------------------------------------------------------------
 total:
 * wall-time:     0 d,  0 h, 19 min,  5.652 sec
 *  cpu-time:     0 d,  0 h, 18 min, 59.148 sec
 * ratio c/w:     0.994 speedup
 SCF:
 * wall-time:     0 d,  0 h,  1 min, 34.956 sec
 *  cpu-time:     0 d,  0 h,  1 min, 34.455 sec
 * ratio c/w:     0.995 speedup
 ANC optimizer:
 * wall-time:     0 d,  0 h, 17 min, 30.260 sec
 *  cpu-time:     0 d,  0 h, 17 min, 24.334 sec
 * ratio c/w:     0.994 speedup

