122
 energy: -219.481618078923 gnorm: 0.404769346061 xtb: 6.5.1 (b24c23e)
Co          14.65681800000000       -0.01224800000000       -0.01498600000000
C           11.27111200000000        0.13007500000000        0.03289000000000
C           11.93660700000000        0.91987800000000        0.88041100000000
C           11.28900200000000        1.80540700000000        1.84114500000000
C           12.23351400000000        2.45338100000000        2.49783300000000
C           13.53803600000000        2.01481800000000        1.98244600000000
N           13.35639000000000        1.03730100000000        0.95778700000000
C           14.73140800000000        2.48824700000000        2.38871400000000
C           14.77282000000000        3.50212400000000        3.41892200000000
C           14.80984900000000        4.34734200000000        4.27766300000000
C           14.85475900000000        5.35565400000000        5.30244400000000
C           16.06035200000000        6.00081400000000        5.60172200000000
C           16.08220300000000        6.97739300000000        6.60106900000000
N           14.94115700000000        7.29260700000000        7.27192200000000
C           13.75864600000000        6.67808600000000        6.99745700000000
C           13.69321900000000        5.69607600000000        6.00539600000000
C           16.02630900000000        2.03331900000000        1.82294100000000
C           17.31762400000000        2.65303000000000        2.14386300000000
C           18.25397300000000        1.99096700000000        1.49590900000000
N           16.16672400000000        1.02941300000000        1.01146800000000
C           17.56853700000000        0.93788800000000        0.75554500000000
C           18.16457000000000       -0.00020200000000        0.00005600000000
C           17.40758200000000       -1.04744400000000       -0.72609600000000
C           17.96046400000000       -2.12832000000000       -1.26283000000000
C           16.91401700000000       -2.85053500000000       -1.95796700000000
C           15.78744000000000       -2.16466100000000       -1.80066100000000
N           16.00918900000000       -0.99204200000000       -1.01364900000000
C           14.48997400000000       -2.53574500000000       -2.41981500000000
C           14.48327800000000       -3.54596200000000       -3.45604400000000
C           14.47814100000000       -4.38769700000000       -4.31907000000000
C           14.47184200000000       -5.39203900000000       -5.34877100000000
C           15.66491900000000       -6.01627400000000       -5.72940700000000
C           15.63705300000000       -6.98889100000000       -6.73250800000000
N           14.46013200000000       -7.32080600000000       -7.32831600000000
C           13.28878300000000       -6.72707700000000       -6.97385100000000
C           13.27264800000000       -5.74947100000000       -5.97525900000000
C           13.32691100000000       -1.97317300000000       -2.04866500000000
C           12.00721800000000       -2.28966800000000       -2.59279800000000
C           11.14507100000000       -1.56192900000000       -1.90967300000000
C           11.90452900000000       -0.77867700000000       -0.93607100000000
N           13.17749800000000       -1.01126500000000       -1.00697600000000
H           10.18766700000000        0.15365700000000        0.05196000000000
H           10.22465300000000        1.92426100000000        1.99857200000000
H           12.05111800000000        3.18511400000000        3.27445800000000
H           16.97108300000000        5.75196800000000        5.06923800000000
H           17.00675200000000        7.48480400000000        6.84343800000000
H           12.86897700000000        6.95184600000000        7.54935000000000
H           12.74968800000000        5.20870100000000        5.78907100000000
H           17.49229600000000        3.50115500000000        2.79303400000000
H           19.31318100000000        2.20797000000000        1.53194500000000
H           19.00227900000000       -2.41542900000000       -1.21706100000000
H           17.03970200000000       -3.76679100000000       -2.52028800000000
H           16.60404400000000       -5.75438000000000       -5.25677500000000
H           16.55159700000000       -7.48002700000000       -7.03732200000000
H           12.36960800000000       -7.01378600000000       -7.46716600000000
H           12.33779200000000       -5.27860100000000       -5.69543100000000
H           11.75989900000000       -2.98338500000000       -3.38609700000000
H           10.07237000000000       -1.55850900000000       -2.05187600000000
Co          31.12890600000000        0.01889000000000        0.00267100000000
C           34.51461200000000       -0.09525900000000       -0.09488900000000
C           33.84911600000000       -1.22803300000000       -0.33759000000000
C           34.49672200000000       -2.50710500000000       -0.60432200000000
C           33.55221000000000       -3.40330200000000       -0.82327700000000
C           32.24768700000000       -2.73586900000000       -0.71149400000000
N           32.42933300000000       -1.35471500000000       -0.39863800000000
C           31.05431600000000       -3.32755800000000       -0.90921500000000
C           31.01290300000000       -4.73213900000000       -1.25042700000000
C           30.97587400000000       -5.90299000000000       -1.53492400000000
C           30.93096500000000       -7.30005800000000       -1.87414600000000
C           29.72537200000000       -7.88809100000000       -2.27416600000000
C           29.70352100000000       -9.24704100000000       -2.59921200000000
N           30.84456600000000       -9.98456800000000       -2.52532900000000
C           32.02707700000000       -9.43355700000000       -2.13886400000000
C           32.09250400000000       -8.07807100000000       -1.80541700000000
C           29.75941500000000       -2.60848500000000       -0.80925500000000
C           28.46810000000000       -3.20202700000000       -1.17632500000000
C           27.53175000000000       -2.30609300000000       -0.94079600000000
N           29.61900000000000       -1.39673300000000       -0.36431100000000
C           28.21718600000000       -1.13012200000000       -0.41714800000000
C           27.62115400000000       -0.00020200000000        0.00005600000000
C           28.37814200000000        1.16057500000000        0.52599000000000
C           27.82526000000000        2.17606600000000        1.17802900000000
C           28.87170700000000        3.14337100000000        1.44095600000000
C           29.99828300000000        2.65627300000000        0.93311400000000
N           29.77653500000000        1.37890400000000        0.33082700000000
C           31.29574900000000        3.37811500000000        0.93371700000000
C           31.30244600000000        4.78598500000000        1.26869700000000
C           31.30758300000000        5.95872500000000        1.54800600000000
C           31.31388100000000        7.35797600000000        1.88129400000000
C           30.12080400000000        8.00508600000000        2.22159200000000
C           30.14867100000000        9.36522400000000        2.54131000000000
N           31.32559100000000       10.04692200000000        2.52028500000000
C           32.49694000000000        9.43793300000000        2.19273200000000
C           32.51307600000000        8.07910300000000        1.86641700000000
C           32.45881200000000        2.77080100000000        0.64146800000000
C           33.77850500000000        3.40023800000000        0.63373900000000
C           34.64065200000000        2.44040500000000        0.35990300000000
C           33.88119400000000        1.20279400000000        0.18754900000000
N           32.60822500000000        1.38304600000000        0.35074900000000
H           35.59805600000000       -0.12373100000000       -0.10533600000000
H           35.56107100000000       -2.70322000000000       -0.62550200000000
H           33.73460600000000       -4.44542300000000       -1.05254000000000
H           28.81464000000000       -7.30338000000000       -2.33397000000000
H           28.77897200000000       -9.71552100000000       -2.91023500000000
H           32.91674700000000      -10.04771400000000       -2.09047600000000
H           33.03603500000000       -7.64222700000000       -1.49821900000000
H           28.29342800000000       -4.19452300000000       -1.57090200000000
H           26.47254200000000       -2.44841900000000       -1.10852200000000
H           26.78344500000000        2.28417900000000        1.44791400000000
H           28.74602200000000        4.09631000000000        1.93858800000000
H           29.18167900000000        7.46504000000000        2.23947300000000
H           29.23412700000000        9.87893700000000        2.80630900000000
H           33.41611600000000       10.00846700000000        2.18552900000000
H           33.44793200000000        7.59723500000000        1.60598300000000
H           34.02582399999999        4.43715300000000        0.82181700000000
H           35.71335300000000        2.56068400000000        0.28396700000000
C           23.49678200000000        0.00110900000000        0.00848800000000
C           22.28784300000000       -0.01234600000000        0.00004100000000
C           20.86631400000000       -0.00352700000000       -0.01194200000000
C           19.65464400000000        0.00391200000000       -0.00107900000000
C           24.91338600000000       -0.00556600000000        0.00902100000000
C           26.13408200000000        0.00391200000000       -0.00107900000000
122
 energy: -219.563193657703 gnorm: 0.223900406791 xtb: 6.5.1 (b24c23e)
Co          14.66025709433118        0.00075587258972       -0.01102242404795
C           11.27360658339054        0.11520920859426        0.01630566079971
C           11.94788841027056        0.91483391433482        0.87675025592286
C           11.29561568564353        1.79533965643984        1.83091899256005
C           12.25293326321864        2.45040612215867        2.49493349935667
C           13.54177386175676        2.00428475927434        1.97495460537977
N           13.34628954239900        1.04091318411983        0.96877198949355
C           14.75341982194439        2.48998339852169        2.38907438321822
C           14.78429922033968        3.49599927906077        3.40694578268071
C           14.81333108531353        4.34455487806831        4.27666757685509
C           14.85443733897598        5.34741984289344        5.29391862330550
C           16.05281850859087        5.99904424602792        5.60258741269307
C           16.05756240440013        6.96776545436403        6.59862899115126
N           14.94102394867902        7.29139851083864        7.27066056667770
C           13.78258793517645        6.67468481930109        6.98648287294837
C           13.70052677363340        5.69651929597517        6.00294292687330
C           16.01666278379552        2.04513668578020        1.83261291530205
C           17.29573125970842        2.66063611604119        2.15646249011193
C           18.24324192529924        1.98329760573720        1.49170769697134
N           16.17046180072959        1.03639954535222        0.99042632564189
C           17.56513698888866        0.93663879033345        0.75230973887338
C           18.17282717149079       -0.01881964580850       -0.00656970545250
C           17.40130122112850       -1.03210236819090       -0.72532252327566
C           17.96563886663154       -2.14562947533285       -1.28198812651579
C           16.93990186648401       -2.85048163704342       -1.96017196367744
C           15.78108649838688       -2.14426915971570       -1.79391475312871
N           16.00667410438732       -1.00269273313838       -0.98567382118846
C           14.51415166556088       -2.52581553214433       -2.41316773165933
C           14.50034615641971       -3.53315985940653       -3.43855892153916
C           14.48522097473399       -4.38182939640158       -4.31150974304123
C           14.47240415444276       -5.38135272878461       -5.33755609586240
C           15.65730590098067       -6.01372661617337       -5.72847541011370
C           15.61249899701208       -6.97899297913699       -6.72757920304362
N           14.45997280017249       -7.31870741903878       -7.32615087140153
C           13.31332776346080       -6.72221181016996       -6.96350003714160
C           13.28052775607140       -5.74814297201271       -5.97202747866591
C           13.33205262994884       -1.96298477235479       -2.04219637828992
C           12.02143100737594       -2.28281931976912       -2.58354735519888
C           11.13546256142335       -1.54895693264192       -1.89312705124095
C           11.88892050494194       -0.76856938056090       -0.92610387378775
N           13.18717221712854       -1.00223541652773       -1.01443359704863
H           10.19003382887674        0.14395964746644        0.03946611806220
H           10.23005930584220        1.90879763587066        1.98225946356622
H           12.08033898158269        3.18332490041067        3.27202087289813
H           16.96646662506572        5.75303270512325        5.07189380881606
H           16.98144711211754        7.48319713552844        6.84941916127350
H           12.89436804058517        6.95661841153331        7.54661696605069
H           12.75431421300689        5.21077226484278        5.78983808721277
H           17.46822028852400        3.50696023131185        2.80276946405738
H           19.30463539219783        2.18981955465645        1.51872730999744
H           19.00450740821643       -2.42804472385112       -1.22564163147888
H           17.05274658966844       -3.76761154032764       -2.51789734724171
H           16.59991959254012       -5.75522751346679       -5.25860343099972
H           16.52596260062457       -7.47836560750601       -7.04119355313078
H           12.39511593539849       -7.01748449826739       -7.46544458293322
H           12.34213277690269       -5.27987429908937       -5.69585270216660
H           11.78690833525615       -2.97906317510771       -3.37867266584698
H           10.06587242482889       -1.54482012740030       -2.03662231830570
Co          31.12536908425553        0.00875634524150       -0.00649546576435
C           34.51211189216752       -0.07339964953043       -0.09064736753080
C           33.83782200455975       -1.22230116287598       -0.33514254187513
C           34.49008135229690       -2.49316290666108       -0.60093419899801
C           33.53274148912368       -3.39927488990743       -0.82221331517302
C           32.24388410247305       -2.72399777478551       -0.70629340425372
N           32.43941283055519       -1.36598023822664       -0.39608533808470
C           31.03216056860211       -3.32864222228500       -0.91047699727907
C           31.00135633562967       -4.71864697753419       -1.25130321956551
C           30.97237440931285       -5.90065644421890       -1.53302264286282
C           30.93128843277019       -7.28848566692956       -1.87145257199973
C           29.73290970034118       -7.88791314500719       -2.27220020660844
C           29.72816411100416       -9.23999600948710       -2.59220039058901
N           30.84470051059395       -9.98285710560696       -2.52493779876344
C           32.00313446846068       -9.42238330042663       -2.14157721198731
C           32.08519489043987       -8.07617933506741       -1.80705513026900
C           29.76878910765843       -2.62270123713177       -0.81442076072835
C           28.48985754288521       -3.21677225145842       -1.17639210990151
C           27.54209936666974       -2.29875623423284       -0.93639945264118
N           29.61452366528491       -1.38199615670844       -0.38125678985931
C           28.21952796185953       -1.12676692464738       -0.41789051687952
C           27.61146010469250        0.01519578594930        0.01246274718154
C           28.38445722068214        1.15190301517721        0.51303575949013
C           27.82022739041620        2.20123584310066        1.18306096397682
C           28.84588495331926        3.14517468408006        1.43975266415306
C           30.00467626806977        2.63997561127623        0.91902649139557
N           29.77905704784919        1.36034200637581        0.35417254900223
C           31.27158433342321        3.36730672896438        0.92859866407453
C           31.28538237105171        4.76440153632999        1.26668813395998
C           31.30049959766257        5.94921820799424        1.54686180268546
C           31.31331833572747        7.34286495010764        1.87787609118767
C           30.12841737003506        8.00297833080951        2.21988245299561
C           30.17322477798660        9.35591260452611        2.53534553208596
N           31.32575057258910       10.04398607402389        2.51959493580041
C           32.47239550781541        9.42655145535358        2.19387007214251
C           32.50519570478743        8.07564703496254        1.86693488080156
C           32.45367647892586        2.76001103411200        0.63603878155576
C           33.76429268035861        3.38877862248982        0.63260845212333
C           34.65025805275902        2.41954032738162        0.35726367760420
C           33.89679233984369        1.18904852401242        0.18398822887584
N           32.59853567829411        1.38479411867018        0.33915809757482
H           35.59568533190836       -0.10803483228111       -0.10342770000298
H           35.55564209076080       -2.68128921218024       -0.62060852123934
H           33.70535277192141       -4.44240365529894       -1.05225474626300
H           28.81925682209150       -7.30620199698610       -2.33351931303784
H           28.80427954729901       -9.71982330586936       -2.90578362405923
H           32.89135402726166      -10.04781189323381       -2.09597345388100
H           33.03141043800166       -7.64394346568755       -1.49960095036719
H           28.31753664467614       -4.20590232767321       -1.57089482060390
H           26.48080612258691       -2.42797471414438       -1.09982137198133
H           26.78132206845460        2.29795709525251        1.45430702904369
H           28.73299659814099        4.09462784097075        1.94049750119148
H           29.18580363422694        7.46704392505987        2.23926172863591
H           29.25976122042799        9.88140643778879        2.80289580045241
H           33.39060778404121       10.00888780505332        2.18958636186807
H           33.44359104760808        7.59825011164673        1.60685904174848
H           33.99881485903541        4.42855904897411        0.82191903663548
H           35.71984878452169        2.54056166249741        0.28004992816961
C           23.51029054822352        0.00182534424959        0.00756895444556
C           22.27677426411917       -0.01314317380337        0.00044564533977
C           20.87334421278167       -0.01142912344950       -0.01838979657906
C           19.64340647700991       -0.01460791208989       -0.01568831457590
C           24.91175497009385        0.00151306672743        0.00579236059990
C           26.14190361567210        0.02948503308517        0.01433041608064
122
 energy: -219.609114903339 gnorm: 0.068767460419 xtb: 6.5.1 (b24c23e)
Co          14.67367247963512        0.01090665476428       -0.00793349201427
C           11.28429668580080        0.10041579050344       -0.00038772358931
C           11.96660324860257        0.91128906782514        0.87845836702937
C           11.30727084971195        1.78382715116380        1.81993405632123
C           12.27610492378296        2.44422013056143        2.48977291357422
C           13.54349554163187        1.98903516232974        1.96533783008041
N           13.33720788663043        1.04740738413218        0.98166265989534
C           14.77828262401216        2.49088923609536        2.38478323777472
C           14.79557439973078        3.48840715805679        3.39411165621455
C           14.81582690198254        4.33692576917381        4.26719405711756
C           14.85373121900348        5.33271360252196        5.27963941961670
C           16.04673834871182        5.99465314774842        5.60050315134450
C           16.03560580329649        6.95738899996760        6.59455230142375
N           14.94087950842827        7.29014269456155        7.26946090873935
C           13.80374576928838        6.66982070078313        6.97474403113666
C           13.70608450302832        5.69394908748158        5.99808698313440
C           16.00494528753504        2.05623837359444        1.83881482687664
C           17.27153175830177        2.65764558554670        2.16407445551744
C           18.22540146542618        1.97060266419301        1.48397972641609
N           16.17616248491879        1.03706910870927        0.95970236285552
C           17.55575919358513        0.94064500733372        0.74124251515826
C           18.18904971655389       -0.04244279399242       -0.01883868520576
C           17.39861101165813       -1.01892841003643       -0.71739349619337
C           17.96831268266267       -2.16374686024164       -1.30936594368322
C           16.97486209844258       -2.84089151653675       -1.96323278163301
C           15.77602047714635       -2.12296947207062       -1.77892463181777
N           16.01891210486513       -1.01708437067756       -0.96339588754252
C           14.54980591758790       -2.51455868876625       -2.39903992183923
C           14.52549477651467       -3.52090692512624       -3.41504685979816
C           14.49410897962931       -4.36675441187141       -4.29411552748827
C           14.47311850233946       -5.36230563755019       -5.31759074627433
C           15.65094994540139       -6.00717316847958       -5.72312105133553
C           15.59046188807864       -6.96682189166054       -6.71982033543064
N           14.45973749086370       -7.31541727271073       -7.32275360904685
C           13.33559287378260       -6.71416040408722       -6.95032732411163
C           13.28755825312991       -5.74215913778420       -5.96415488197966
C           13.34018719936503       -1.94169539236490       -2.03169479797953
C           12.04441032520240       -2.26964338558182       -2.56800315967669
C           11.13720301026757       -1.53652457968963       -1.87322936777806
C           11.87592273801743       -0.75481147654430       -0.91470618850074
N           13.20699240226403       -0.98896934174930       -1.02598081540261
H           10.19954371496875        0.13975635527595        0.02880770094765
H           10.24045619846241        1.89020475881774        1.96205850693073
H           12.11648951064254        3.17890674153858        3.26653021889291
H           16.96309952065699        5.75295994108298        5.07312009011724
H           16.95762265567883        7.48073270846275        6.85407169854093
H           12.91817238546641        6.96012512121034        7.54296556584584
H           12.75742608111745        5.21162308168056        5.78951888538604
H           17.44121877033314        3.50379443245821        2.80913762199566
H           19.28944975460574        2.16541273062317        1.50281863738996
H           19.00735182892740       -2.43596448600884       -1.23658255416606
H           17.06368687643658       -3.76181103478837       -2.51725337313189
H           16.59739302954352       -5.75434530154290       -5.25831266240730
H           16.50149178837686       -7.47457567931000       -7.04260632891457
H           12.41957027948545       -7.01823755025238       -7.46093892651790
H           12.34519215692006       -5.27878469489491       -5.69409220953483
H           11.82361702923545       -2.96994610415092       -3.36410014399786
H           10.06879043502886       -1.53245593232927       -2.01808817716249
Co          31.11203476539824        0.00105170117147       -0.01367829191718
C           34.50141463723394       -0.05148406280974       -0.08652521832215
C           33.81907171293145       -1.22194391595962       -0.33122175599636
C           34.47838201939231       -2.47783097462843       -0.59669671127427
C           33.50953201816588       -3.39167358515113       -0.81956420163449
C           32.24212095178154       -2.70792315303264       -0.69815509531629
N           32.44844528909023       -1.38036646371307       -0.39502015071956
C           31.00726311740440       -3.32539605936013       -0.91349391841673
C           30.99002617660026       -4.70372138753544       -1.25133307055081
C           30.96984670490687       -5.88857142878073       -1.53135062923368
C           30.93199228625862       -7.26865632529219       -1.86615542065974
C           29.73899275089525       -7.88385599707473       -2.26949749940024
C           29.75012349057884       -9.23115736130486       -2.58538379206970
N           30.84484705016494       -9.98117020326450       -2.52447212776268
C           31.98197584892035       -9.40979526920780       -2.14342602122206
C           32.07963357162676       -8.07067348614211       -1.80733962374008
C           29.78050927567154       -2.63366697130094       -0.82085523301409
C           28.51402566814342       -3.22166112360100       -1.17003041194216
C           27.55989282300908       -2.28551900456244       -0.92944746383855
N           29.60902208577892       -1.35603923842384       -0.39749522281220
C           28.22907608268876       -1.11973220117152       -0.42609629894503
C           27.59617298557732        0.03645399549300        0.02932795763747
C           28.38774645488497        1.13790462786673        0.50670864302235
C           27.81770866580275        2.23402840648258        1.18451544986924
C           28.81096552432556        3.14295430102350        1.42992030679700
C           30.00983200681131        2.61631423613691        0.90841935394256
N           29.76708481661577        1.34869497756458        0.37806788282133
C           31.23599350661918        3.34947339221632        0.92617572023939
C           31.26027275969395        4.73797286385505        1.26825379587232
C           31.29161517172480        5.92657936274761        1.54286486604665
C           31.31260442582991        7.31597179527018        1.87178150710603
C           30.13477141580939        7.99502843344400        2.21700540701482
C           30.19525977646368        9.34301371038075        2.52888154280298
N           31.32598551728220       10.03938811729365        2.51851328623080
C           32.45013098344482        9.41112166912489        2.19371963432118
C           32.49816618655733        8.06582904979436        1.86583872387652
C           32.44559926119717        2.74011346331191        0.62316348039703
C           33.74136268599864        3.36869674698616        0.62927822086285
C           34.64856179302733        2.39609699027961        0.35680521794159
C           33.90983434790748        1.17222576271671        0.17804017445375
N           32.57878675944528        1.38794387204046        0.32189472459809
H           35.58616860299129       -0.09674797841674       -0.10530097163469
H           35.54520419510013       -2.65441160527300       -0.61502559449786
H           33.66918694823725       -4.43542287580799       -1.05128833644484
H           28.82262237252132       -7.30721072150824       -2.33282704604928
H           28.82810739994865       -9.72253923791957       -2.90127604792713
H           32.86754824227380      -10.04646308548169       -2.10085396664103
H           33.02829997831509       -7.64409625156820       -1.50049419019517
H           28.34446467099017       -4.20965643715546       -1.56498781484503
H           26.49588048902883       -2.40175618798671       -1.08696378960067
H           26.77860223014079        2.31127644943736        1.45544650046202
H           28.72202502779981        4.09114769862356        1.93581166853121
H           29.18833057542115        7.46634596172117        2.23865204917316
H           29.28422988704789        9.88067891186175        2.79891692863446
H           33.36615405467455       10.00541377711472        2.19254312303521
H           33.44053078111729        7.59618531635503        1.60682518090846
H           33.96213895434501        4.41139306382186        0.82157090997859
H           35.71696815427031        2.51831493817840        0.27894528592817
C           23.51546249498644        0.00403922696388        0.00491675204606
C           22.26906118880518       -0.01320764761836       -0.00644633776230
C           20.88330459098688       -0.01956428223290       -0.02227600008756
C           19.64158151532451       -0.04728989280470       -0.02483666851374
C           24.90248677425706        0.01492238356333        0.01363070936817
C           26.14316720706153        0.05302378586846        0.02925113696410
122
 energy: -219.622797379566 gnorm: 0.038363058403 xtb: 6.5.1 (b24c23e)
Co          14.69742552384539        0.01294768193051       -0.00728761681042
C           11.29619021848461        0.10234142869439       -0.00349095145556
C           11.98230034922135        0.91013550829748        0.88281862221331
C           11.32357814503278        1.77632999190736        1.81761043555346
C           12.29787395922397        2.43664962937611        2.48803152976766
C           13.55207690896639        1.97679326248596        1.96035295043830
N           13.34528837244358        1.04194059456681        0.98513972038188
C           14.79299248322988        2.48464391811600        2.37361007867684
C           14.80624823993365        3.48321254662717        3.37871518204026
C           14.82107815109853        4.32822522124344        4.25407464280744
C           14.85510374210897        5.32066163757207        5.26714388102412
C           16.04563947000025        5.98599922817849        5.59297465369554
C           16.03163507678099        6.94831358673687        6.58702435885739
N           14.94029705107770        7.28459440969296        7.26395752493599