716
 energy: -1164.157268954281 gnorm: 0.000979510058 xtb: 6.5.1 (b24c23e)
C          151.13721241331632        0.53463472270886        0.01935426468912
C          151.74371463574732        0.61324034090240       -1.22804055849171
C          151.08691601047275        0.73733348333489       -2.48389070178053
C          152.04245667057543        0.73183904851435       -3.46145506246923
C          153.31489806885281        0.61847963386624       -2.83330355863526
N          153.08351173882394        0.54786960275365       -1.48846597760284
C          154.57214051095266        0.55658266729445       -3.44760292383913
C          154.60071126590469        0.66090926862501       -4.92492296823058
C          155.14378427215320       -0.36626292140419       -5.69928185025213
C          155.16474970602192       -0.28758447711128       -7.08114934690393
C          154.63948133391682        0.83465509463667       -7.72838421822889
N          154.68308874014494        0.99039107309103       -9.10582428419525
C          154.75770806204687       -0.18568564255796       -9.96229007047520
C          154.10769288242381        1.87451195270621       -6.95581144743075
C          154.08363541832861        1.78394295839879       -5.57684998454467
C          155.78356689665929        0.40453173897108       -2.76769522688530
C          157.08306516772961        0.44076988003491       -3.41344635123206
C          158.00104631034029        0.29465500541344       -2.43530036311281
N          155.93512903001482        0.24690699430077       -1.42325213296109
C          157.26158251447455        0.17240728997154       -1.19440398096311
C          157.89673073200782        0.01378156053331        0.05477389689418
C          157.26110489944327       -0.09600111184866        1.30690646586861
C          157.90745679918064       -0.24003675601437        2.56250913083329
C          156.94218535105020       -0.29407873519384        3.53019915950714
C          155.67521382550748       -0.18987556066278        2.89315693997877
N          155.92055665435484       -0.07010941911434        1.55011556511134
C          154.41691839989272       -0.16413994528683        3.50600379381372
C          154.38494496431514       -0.34927700937244        4.97463272240993
C          153.83483354291081        0.62624354800843        5.80846860305642
C          153.80689523990205        0.46127618888588        7.18272510733166
C          154.33169488425028       -0.69786117907895        7.76180096421659
N          154.27871328091720       -0.94121565708931        9.12599900206238
C          154.19148548941874        0.17656173400504       10.05603443815722
C          154.87348662102011       -1.68487705943880        6.92908307528568
C          154.90504983305576       -1.50800795060106        5.55895610574065
C          153.20661106531423        0.02545858177666        2.82859845323640
C          151.89917480542923       -0.00263312264318        3.46493408505073
C          150.99326594404047        0.20590697398299        2.48794657346061
C          151.74477950461107        0.34529417713416        1.25359466634554
N          153.07370983084405        0.22920902361718        1.49646974335733
H          150.05400006821890        0.60563733912429        0.01648429307331
H          150.01831332650852        0.80843887317547       -2.61075408155345
H          151.88301633473000        0.78776624843432       -4.52608958311653
H          153.81052816906947        0.44165239009794       -0.78880436274194
H          155.53731168754570       -1.25053870769923       -5.20981605905610
H          155.59150923661556       -1.10393576021825       -7.65080905527402
H          154.01426971596814        1.67178672088460       -9.44402012583982
H          153.97132510494680       -0.91029378279851       -9.72157046875747
H          154.64154956331262        0.14221598904293      -10.99527114120136
H          155.73185307618266       -0.66464572026611       -9.85586983187442
H          153.71369605263286        2.75726099731449       -7.44844705218083
H          153.67954836374017        2.60335342036729       -4.99227361617792
H          157.25054144005696        0.58360625816393       -4.46869121359019
H          159.07593040240030        0.27551486260720       -2.51896415453689
H          158.97578438672511       -0.28822123552431        2.69929137231633
H          157.09320343355148       -0.38122995817528        4.59382904210408
H          155.19824225272757        0.03963479707595        0.84587875448462
H          153.44262431855603        1.53920779957138        5.37365274423666
H          153.37503240250376        1.23954287964559        7.79988142880289
H          154.94736355411834       -1.64074991825679        9.42522067282435
H          153.21672261548221        0.65855832982351        9.97108130740890
H          154.97764498421046        0.91747085325705        9.87067459468919
H          154.29868270374450       -0.21736602223186       11.06670158934136
H          155.26907303691752       -2.59483531200444        7.36799825216424
H          155.31738929480926       -2.28675086765552        4.92652455263651
H          151.72071712597352       -0.17778738652783        4.51367683588463
H          149.91788649638985        0.25178878026466        2.56246114962230
C          301.96754818996777        0.57157392882720       -0.05276263387068
C          301.36000291340355        0.70226656938535        1.18975120013195
C          302.01453467507758        0.90505120289417        2.43649933930310
C          301.05964311125621        0.93065101050707        3.41440631312898
C          299.78961969675208        0.75849749973127        2.79481777640719
N          300.02194769359306        0.62278109449449        1.45514964774384
C          298.53408066853927        0.70303326104410        3.41323344828643
C          298.50380391469344        0.88405632152885        4.88309643811763
C          297.98208078102203       -0.11187562494213        5.71107387679178
C          297.95987224010247        0.03888943225613        7.08692166484144
C          298.46214054911695        1.20413495329415        7.67358802767156
N          298.41564783807706        1.43118752340468        9.04095855189578
C          298.36517989886471        0.30063730931995        9.95829991804959
C          298.97231278458338        2.21260035102517        6.84673198440678
C          298.99790475171545        2.05015431167324        5.47441696937098
C          297.32581612939265        0.49153629700125        2.74371735851139
C          296.02595980968465        0.53604298793501        3.38822248770085
C          295.11081474845548        0.32236583482021        2.41991935235697
N          297.17713989715094        0.26149333548008        1.40940437833621
C          295.85232241963917        0.15014298924809        1.18616928660181
C          295.22011672950441       -0.08494705679029       -0.05244885204966
C          295.85754135618822       -0.24912308367953       -1.29769455060927
C          295.21380235934384       -0.47125125620304       -2.54322253654643
C          296.17968064231070       -0.55703129724311       -3.50799069496629
C          297.44452481046613       -0.39461255220902       -2.87893603978046
N          297.19727144131969       -0.21010121340248       -1.54358846904017
C          298.70181988023091       -0.37458836983274       -3.49400171338845
C          298.73737335547861       -0.63304251690013       -4.95142638773002
C          299.26732665117612        0.31048539816598       -5.83374759853637
C          299.29895942932160        0.07727962446534       -7.19798370967308
C          298.79831110265326       -1.12007557286994       -7.71761815216789
N          298.85678323186863       -1.43064899775212       -9.06788076143297
C          298.92224262816654       -0.35953713791771      -10.05298124960513
C          298.27670732081663       -2.07486984672922       -6.83588136541968
C          298.24126087710670       -1.83008034586836       -5.47632780768606
C          299.90816809030292       -0.12540166296130       -2.82888024998527
C          301.21567339463297       -0.15915975460762       -3.46478782234883
C          302.11740759460577        0.11841393758756       -2.50118500944889
C          301.36360496409907        0.30580137796294       -1.27462659152376
N          300.03729718450728        0.14958926963534       -1.50924965539510
H          303.04904527068152        0.66519926819946       -0.05517061967044
H          303.08148494018496        1.00478732898122        2.55796062734730
H          301.21825940751160        1.04519764600924        4.47446136917505
H          299.29697814470939        0.46556300095404        0.76299573598874
H          297.60657197820660       -1.02848916950497        5.26927021425739
H          297.55006683356169       -0.75492888117993        7.69927162749587
H          299.07016303877532        2.14318460811913        9.34204111498298
H          299.16632634282240       -0.41934423582195        9.75531633712318
H          298.47453795074358        0.68487562192510       10.97242882092559
H          297.40109846001974       -0.20317702966335        9.87830252233607
H          299.34818265860304        3.12793423911340        7.29176355669630
H          299.38492319687026        2.84580488024354        4.84703993211770
H          295.85595685968258        0.72974177397550        4.43490738411561
H          294.03651772068673        0.28697555157317        2.50569825839149
H          294.14659339544204       -0.54745137982207       -2.67590079185193
H          296.03010917958903       -0.70274796632609       -4.56539761974097
H          297.91743901112460       -0.04887668717805       -0.84709257354502
H          299.64050766175751        1.25204695774939       -5.44568503099566
H          299.71478025262127        0.83231267722768       -7.85380556926666
H          298.20223550043022       -2.15742491122374       -9.33120592404233
H          299.88701230188002        0.14570236787759       -9.99249114915664
H          298.12111233794730        0.37371796871604       -9.90507724973462
H          298.82397833192186       -0.80592928442820      -11.04252423996361
H          297.89998271096158       -3.01366155647497       -7.22819159111152
H          297.84490344910853       -2.58438048896078       -4.80523577908714
H          301.39739153579211       -0.38457808239082       -4.50332300159594
H          303.19157364462524        0.18278114774858       -2.57954610474517
C          163.09773399736480       -0.06879161321396        0.09072669788668
C          161.86877825727410       -0.06680713003268        0.08906072656822
C          160.52525597736130       -0.05175919275054        0.08011619098422
C          159.30105740777338       -0.02757779023266        0.06732173975060
C          164.44118841392680       -0.06746942514505        0.08962783639122
C          165.66578737575387       -0.05885565734939        0.08562145398584
C          179.11940727035915        0.01545324108623        0.01068592843680
C          177.89034923437964        0.00360079893852        0.01832191188678
C          176.54742454803585       -0.00840803469492        0.02763598254216
C          175.32268610591862       -0.02004670162257        0.03899226241357
C          180.46235053630821        0.02793117251807        0.00531226045865
C          181.68712902736848        0.03777689662007       -0.00228369547751
C          195.13872988256549        0.02052744089396       -0.00543414211921
C          193.90957791605845        0.01115556888676       -0.00086027432003
C          192.56665868299345        0.00306100648766        0.00086699754163
C          191.34190414156387       -0.00168185417910        0.00499073115642
C          196.48164179918609        0.02954652645247       -0.00517935228284
C          197.70637482191131        0.03815602110110       -0.00885696619663
C          211.15671372487628        0.02174675426900        0.00067453965531
C          209.92768306472030        0.01141020394155        0.00455192115021
C          208.58482307151255        0.00170169331727        0.00470683410534
C          207.36008138715701       -0.00328464011144        0.00812994072577
C          212.49958876131186        0.03113504981114       -0.00223788139259
C          213.72436482988803        0.03911468560036       -0.00584526780276
C          227.17448852590638        0.02246602676658        0.00076756494647
C          225.94546297571671        0.01289622115140        0.00459578751977
C          224.60259856000741        0.00286504741006        0.00589369302459
C          223.37782513422093       -0.00155932308687        0.00944925808100
C          228.51736715348568        0.03247888908810       -0.00103601268463
C          229.74212217178496        0.04040857651105       -0.00516438354164
C          243.19265341679005        0.02528154216165        0.00068079481424
C          241.96348648849914        0.01317354622412        0.00429427554873
C          240.62055531890172        0.00687288655695        0.00392570744862
C          239.39582492206290        0.00156102062968        0.00867875831909
C          244.53553357844882        0.03449078780167       -0.00109400318709
C          245.76026119392824        0.04171901111996       -0.00538645966700
C          259.21142681163013        0.03085239207698        0.00276344666734
C          257.98227201298988        0.02127728182998        0.00560230107309
C          256.63932368040815        0.01269455498457        0.00679046169122
C          255.41454822451956        0.00569927215075        0.01080865947997
C          260.55432979704591        0.04209019052918        0.00071513051274
C          261.77906196758937        0.05139064262333       -0.00411951317018
C          275.23110975726740        0.01538783976699       -0.01827317793165
C          274.00192966889477        0.01847052788798       -0.00785717489849
C          272.65893430799844        0.01987457080708       -0.00617746183689
C          271.43416102331310        0.02003322242756        0.00232464148882
C          276.57406163606225        0.00998088669042       -0.02839917416012
C          277.79876398922443        0.00236933712854       -0.03802568187733
C          291.24953559497516       -0.21709297717946       -0.07879907861649
C          290.02068368876837       -0.23044780690778       -0.08149863770176
C          288.67727617451510       -0.23440012490944       -0.08006386453839
C          287.45274236127477       -0.22602562182867       -0.07557651075705
C          292.59277600879932       -0.18780525487812       -0.07203067321520
C          293.81660703001791       -0.14836345540135       -0.06204135275012
C          167.06962021186146       -0.03729769040352        0.07933429107975
C          167.69967913000988        0.02070131593368        1.33829248703769
C          167.05202945717218        0.02327045762856        2.59989972119461
C          168.01819296440294        0.06419267191066        3.56861600625131
C          169.28413184891801        0.09789680705253        2.92457475368231
N          169.04067152192675        0.06486544784687        1.57708546723069
C          170.54514361033739        0.12431816529719        3.53563035186641
C          170.56120807039900        0.19195438891300        5.01569569760229
C          171.17855595527999       -0.80981884819317        5.77027244360315
C          171.18560401714223       -0.75199000128658        7.15084592569986
C          170.57968588117498        0.31765011227059        7.82168776178763
N          170.66187009147771        0.36224049051962        9.20520711038066
C          169.68043206620280        1.12837433205625        9.96151778503451
C          169.97484625392394        1.33032868475502        7.07150694830941
C          169.96118231140531        1.25769328964811        5.68902355542053
C          171.76754723796961        0.09217672380830        2.86145706825762
C          173.05708016698389        0.19148424447862        3.52048479871396
C          173.98998332331351        0.13849795831706        2.54693499462840
N          171.93849130032231       -0.00200179447230        1.51323722113275
C          173.26873996263294        0.01873536939481        1.29586788211956
C          173.91920920859863       -0.03964279170265        0.04613331300477
C          173.28931552248133       -0.09627624316792       -1.21304563825480
C          173.93755223247669       -0.09547225763362       -2.47453376137398
C          172.97172737469538       -0.12424912654374       -3.44376231239116
C          171.70521710908776       -0.15498685262840       -2.80039883840771
N          171.94838440227875       -0.13261889449011       -1.45241438571020
C          170.44436610381427       -0.16990413201219       -3.41132271881777
C          170.42623691798659       -0.21649016189332       -4.89210532963761
C          169.81406505196964        0.79923950664691       -5.62901926203205
C          169.79621823788690        0.76897052118091       -7.01277992333806
C          170.38122935247341       -0.29909374633894       -7.69935274185000
N          170.43101189735148       -0.35792313749950       -9.08387127563895
C          169.43218713707029        0.35244464737407       -9.87146939462180
C          171.00051502833659       -1.31807910452655       -6.96498549799542
C          171.02504456799238       -1.27319981243776       -5.58393854886515
C          169.22181368309177       -0.14252939807244       -2.73639501633873
C          167.93255702863118       -0.23574458710920       -3.39673049948267
C          166.99931486821569       -0.19451622461478       -2.42287022680096
C          167.72002051969923       -0.08605562452813       -1.17058985127460
N          169.05064884837464       -0.06211620229528       -1.38767168739011
H          165.98373025064745       -0.01150808002902        2.74053950348591
H          167.86758019271338        0.05672289715900        4.63577647239305
H          169.76166359349199        0.06196287289342        0.86326728413220
H          171.63598583235517       -1.65346564577092        5.26520165685402
H          171.66127267700014       -1.54050033167406        7.72448968837913
H          170.84271960094620       -0.54565156085485        9.61624901194295
H          168.65568118194071        0.85570427872455        9.68428983752010
H          169.83470450261851        0.92095581753204       11.02040291320231
H          169.82651226828582        2.19564914996097        9.79027316529763
H          169.51638079663147        2.18085920602873        7.56089418255077
H          169.49812054070321        2.05575386073478        5.11866078873530
H          173.20767163355742        0.30624025581825        4.58163847873929
H          175.06326774071246        0.18589035305944        2.63957583538221
H          175.00604842377152       -0.06549243328470       -2.61459789571228
H          173.12301844152285       -0.11003777869458       -4.51069830708262
H          171.22710661008782       -0.12781289560513       -0.73892247792715
H          169.36492378253834        1.63795719606753       -5.10830317696038
H          169.32805934868611        1.58227133393538       -7.55352728153285
H          170.59948820080521       -1.29491159079885       -9.42984239395182
H          169.58359556585489        1.42909376922931       -9.78417291870893
H          169.56040683028019        0.06589648516216      -10.91526356799027
H          168.41434389504391        0.10415727932364       -9.54972443204930
H          171.46085112989147       -2.14911426059668       -7.48900549262859
H          171.49104625349017       -2.08009364843071       -5.02882537300114
H          167.78241540639485       -0.33911779436325       -4.45915944577620
H          165.92612952300604       -0.24203936190683       -2.51642552248518
C          183.09067512830845        0.05222804351809       -0.00257736474229
C          183.71385816260062        0.11195786393066        1.25992522734283
C          183.05833006921000        0.12533683628811        2.51743200443451
C          184.01874754921113        0.15734328797631        3.49209891578927
C          185.28900059708286        0.17464869497298        2.85598014023437
N          185.05362187155453        0.14206255215515        1.50693974394413
C          186.54640763228181        0.18554059786162        3.47471315772418
C          186.55438976575257        0.25029700880016        4.95489062663660
C          187.15513555700235       -0.76074942779153        5.71056026015480
C          187.15294711882686       -0.70745419777777        7.09129782961574
C          186.55428360407828        0.36680042654315        7.76133063142783
N          186.62620138921392        0.40556214181418        9.14547663974762
C          185.64776245471433        1.18021759008321        9.89702448856882
C          185.96694758726724        1.38903033873578        7.01013421785738
C          185.96223241197646        1.32096591795044        5.62738063420208
C          187.77230551246672        0.13936993874249        2.80761826123049
C          189.05892479963049        0.22534149868261        3.47404210657342
C          189.99677850772974        0.16429375811202        2.50570759847247
N          187.94989796746921        0.04374346401972        1.46041297555520
C          189.28153293565612        0.05171556566368        1.25056540532249
C          189.93837869418994       -0.01307186908031        0.00452532825470
C          189.31541402866227       -0.06897584073959       -1.25820053719301
C          189.97119265137434       -0.07846134545344       -2.51569565197703
C          189.01100807380354       -0.10527034994304       -3.49063764514513
C          187.74055689342899       -0.12377809176873       -2.85478626948310
N          187.97570930340214       -0.09665742323154       -1.50551354438042
C          186.48321449053657       -0.13252339698483       -3.47334181335155
C          186.47387248927473       -0.18946140699868       -4.95379842914810
C          185.87397482858324        0.82525286458687       -5.70210442904161
C          185.86479830104736        0.78485393233689       -7.08570501840212
C          186.44626281440435       -0.29254573102616       -7.76061660466139
N          186.50459706454043       -0.36200004710849       -9.14427567475579
C          185.51658067115778        0.35015357966723       -9.94377565660305
C          187.05323580285258       -1.31061822115851       -7.01477329257084
C          187.06927073033569       -1.25564822694445       -5.63399207836162
C          185.25717516581713       -0.09045463818451       -2.80582813739151
C          183.97077216218290       -0.17694526852256       -3.47254994811104
C          183.03266924035390       -0.12127226752394       -2.50402575649523
C          183.74757209368371       -0.01053288086787       -1.24862705177050
N          185.07929151769491        0.00045732898388       -1.45847218968709
H          181.98888724171729        0.10313188100015        2.65157259421890
H          183.86123442682012        0.15401428438437        4.55826870957676
H          185.77912854278563        0.12804663778521        0.79785086993193
H          187.60631966189106       -1.60803762455913        5.20595679147853
H          187.61528605665569       -1.50328963613973        7.66571127488190
H          186.79368075395018       -0.50571054482872        9.55469012421335
H          184.62219478053873        0.92055058415350        9.61059205021541
H          185.79118627984266        0.96691114488403       10.95625262161115
H          185.80761788476147        2.24635950833713        9.73114874378650
H          185.51494090150604        2.24325704752324        7.49905604573683
H          185.51262882969158        2.12620941390472        5.05636096584324
H          189.20448476188156        0.33783439308778        4.53613721315754
H          191.06993141669957        0.20110283729413        2.60446534046862
H          191.04069487800439       -0.05685719714396       -2.64946133950800
H          189.16879564926359       -0.09734187141245       -4.55669836537356
H          187.25011873983959       -0.08336549659673       -0.79650972607960
H          185.42784435848890        1.67116634389158       -5.19052132339946
H          185.40623898133001        1.59758814889209       -7.63545958658630
H          186.66842272782296       -1.30269658898426       -9.48231266668815
H          185.67572816633049        1.42622702487873       -9.86339988423353
H          185.64953549165006        0.05488068962956      -10.98454227539954
H          184.49472100819489        0.11209025340199       -9.62706472147698
H          187.51075655777819       -2.14887449022883       -7.52967276003622
H          187.52579963023740       -2.06175523402695       -5.06993917687613
H          183.82550027194873       -0.28599138552443       -4.53510155629311
H          181.95959140499804       -0.16002194367598       -2.60296301445224
C          199.10986347075649        0.05245016717168       -0.00739716930066
C          199.73162191165818        0.11203331759507        1.25577726046998
C          199.07460532485098        0.12574106590908        2.51250499359321
C          200.03388021219013        0.15791576529979        3.48828694280201
C          201.30488014850306        0.17476588479811        2.85364405753204
N          201.07107915579957        0.14177057781189        1.50433758737604
C          202.56161686390791        0.18559189441878        3.47371283978680
C          202.56804663345090        0.25129165804070        4.95383780051082
C          203.16790296856777       -0.75923344806155        5.71090946783728
C          203.16418198490976       -0.70492789736937        7.09160609736584
C          202.56481777641645        0.36983923184974        7.76021075254177
N          202.63516777601330        0.40960262321130        9.14438350733022
C          201.65610287195068        1.18503421494748        9.89431011450319
C          201.97834885566229        1.39154585306297        7.00761696350223
C          201.97516029922588        1.32246221905278        5.62491315946411
C          203.78812297086799        0.13874662831520        2.80773829636802
C          205.07419855744783        0.22445181060074        3.47521168838018
C          206.01283754954295        0.16287607068330        2.50766721204080
N          203.96680721600111        0.04280037481268        1.46069645532835
C          205.29862025920832        0.05042535308297        1.25192226810670
C          205.95655014824001       -0.01435319648200        0.00644324006146
C          205.33495716821960       -0.07007825456299       -1.25697911138600
C          205.99222048359962       -0.07942596258810       -2.51370123885140
C          205.03319026735937       -0.10559271683023       -3.48980407019481
C          203.76201456007277       -0.12409085953675       -2.85544876387842
N          203.99555377809929       -0.09754283365731       -1.50589044505211
C          202.50531914506729       -0.13225320219290       -3.47534018355957
C          202.49719884187704       -0.18810253545051       -4.95582609196275
C          201.89770042525706        0.82715404742427       -5.70373347513937
C          201.88926270761911        0.78776476615088       -7.08735962446809
C          202.47107304401510       -0.28915967567158       -7.76273379403363
N          202.52998845792212       -0.35767790462582       -9.14640925876471
C          201.54234483337046        0.35507100935221       -9.94584106475368
C          203.07773399930116       -1.30771816181835       -7.01729641343477
C          203.09304769789773       -1.25374549817071       -5.63646430344733
C          201.27872984910002       -0.09036774306762       -2.80887173043236
C          199.99288428292692       -0.17654495240629       -3.47667897122650
C          199.05400393930182       -0.12113471146159       -2.50890127404099
C          199.76788475316314       -0.01061525252968       -1.25287880678961
N          201.09974130632946        0.00018980451942       -1.46161432507122
H          198.00499375735490        0.10378431154618        2.64535249167424
H          199.87512501239885        0.15496866823970        4.55426896305765
H          201.79747103974233        0.12746924779312        0.79615757604885
H          203.61959993046250       -1.60691510856109        5.20743194737004
H          203.62583788620435       -1.50037157429535        7.66711072908017
H          202.80215128491395       -0.50134764869325        9.55450427104670
H          200.63079243681776        0.92544445103188        9.60691841963138
H          201.79828904196023        0.97241606439794       10.95384001192992
H          201.81642786677639        2.25101673678782        9.72787870003100
H          201.52582814447959        2.24614637434934        7.49541911867059
H          201.52622524450180        2.12730881541895        5.05281201883655
H          205.21890672047692        0.33710831920062        4.53741033890588
H          207.08591094468363        0.19936650944109        2.60731795999333
H          207.06188008748856       -0.05800949928456       -2.64619859496244
H          205.19222594283306       -0.09724162011494       -4.55567681814288
H          203.26905191020981       -0.08422951875546       -0.79781584865405
H          201.45125784931179        1.67267384774585       -5.19177264150936
H          201.43096188180752        1.60087644353428       -7.63676862688308
H          202.69394035692534       -1.29813858911819       -9.48503004243307
H          201.70157210811493        1.43107535912141       -9.86473453208408
H          201.67565028790452        0.06043524647755      -10.98674137545638
H          200.52034322417506        0.11692358473777       -9.62965841832789
H          203.53553852712398       -2.14559692212813       -7.53255852530398