      -----------------------------------------------------------      
     |                   =====================                   |     
     |                           x T B                           |     
     |                   =====================                   |     
     |                         S. Grimme                         |     
     |          Mulliken Center for Theoretical Chemistry        |     
     |                    University of Bonn                     |     
      -----------------------------------------------------------      

   * xtb version 6.5.1 (b24c23e) compiled by 'conda@728c89f4b128' on 2022-07-12

   xtb is free software: you can redistribute it and/or modify it under
   the terms of the GNU Lesser General Public License as published by
   the Free Software Foundation, either version 3 of the License, or
   (at your option) any later version.
   
   xtb is distributed in the hope that it will be useful,
   but WITHOUT ANY WARRANTY; without even the implied warranty of
   MERCHANTABILITY or FITNESS FOR A PARTICULAR PURPOSE.  See the
   GNU Lesser General Public License for more details.
   
   Cite this work as:
   * C. Bannwarth, E. Caldeweyher, S. Ehlert, A. Hansen, P. Pracht,
     J. Seibert, S. Spicher, S. Grimme, WIREs Comput. Mol. Sci., 2020, 11,
     e01493. DOI: 10.1002/wcms.1493
   
   for GFN2-xTB:
   * C. Bannwarth, S. Ehlert and S. Grimme., J. Chem. Theory Comput., 2019,
     15, 1652-1671. DOI: 10.1021/acs.jctc.8b01176
   for GFN1-xTB:
   * S. Grimme, C. Bannwarth, P. Shushkov, J. Chem. Theory Comput., 2017,
     13, 1989-2009. DOI: 10.1021/acs.jctc.7b00118
   for GFN0-xTB:
   * P. Pracht, E. Caldeweyher, S. Ehlert, S. Grimme, ChemRxiv, 2019, preprint.
     DOI: 10.26434/chemrxiv.8326202.v1
   for GFN-FF:
   * S. Spicher and S. Grimme, Angew. Chem. Int. Ed., 2020, 59, 15665-15673.
     DOI: 10.1002/anie.202004239
   
   for ALPB and GBSA implicit solvation:
   * S. Ehlert, M. Stahn, S. Spicher, S. Grimme, J. Chem. Theory Comput.,
     2021, 17, 4250-4261. DOI: 10.1021/acs.jctc.1c00471
   
   for DFT-D4:
   * E. Caldeweyher, C. Bannwarth and S. Grimme, J. Chem. Phys., 2017,
     147, 034112. DOI: 10.1063/1.4993215
   * E. Caldeweyher, S. Ehlert, A. Hansen, H. Neugebauer, S. Spicher,
     C. Bannwarth and S. Grimme, J. Chem. Phys., 2019, 150, 154122.
     DOI: 10.1063/1.5090222
   * E. Caldeweyher, J.-M. Mewes, S. Ehlert and S. Grimme, Phys. Chem. Chem. Phys.
     2020, 22, 8499-8512. DOI: 10.1039/D0CP00502A
   
   for sTDA-xTB:
   * S. Grimme and C. Bannwarth, J. Chem. Phys., 2016, 145, 054103.
     DOI: 10.1063/1.4959605
   
   in the mass-spec context:
   * V. Asgeirsson, C. Bauer and S. Grimme, Chem. Sci., 2017, 8, 4879.
     DOI: 10.1039/c7sc00601b
   * J. Koopman and S. Grimme, ACS Omega 2019, 4, 12, 15120-15133.
     DOI: 10.1021/acsomega.9b02011
   
   for metadynamics refer to:
   * S. Grimme, J. Chem. Theory Comput., 2019, 155, 2847-2862
     DOI: 10.1021/acs.jctc.9b00143
   
   for SPH calculations refer to:
   * S. Spicher and S. Grimme, J. Chem. Theory Comput., 2021, 17, 1701-1714
     DOI: 10.1021/acs.jctc.0c01306
   
   with help from (in alphabetical order)
   P. Atkinson, C. Bannwarth, F. Bohle, G. Brandenburg, E. Caldeweyher
   M. Checinski, S. Dohm, S. Ehlert, S. Ehrlich, I. Gerasimov, C. Hölzer
   A. Katbashev, J. Koopman, C. Lavigne, S. Lehtola, F. März, M. Müller,
   F. Musil, H. Neugebauer, J. Pisarek, C. Plett, P. Pracht, F. Pultar,
   J. Seibert, P. Shushkov, S. Spicher, M. Stahn, M. Steiner, T. Strunk,
   J. Stückrath, T. Rose, and J. Unsleber
   
 * started run on 2022/07/30 at 05:00:26.048     

           -------------------------------------------------
          |                Calculation Setup                |
           -------------------------------------------------

          program call               : xtb Cu_Py_C8_2.xyz --gfn 1 --opt -T 48
          hostname                   : cx3-14-19.cx3.hpc.ic.ac.uk
          coordinate file            : Cu_Py_C8_2.xyz
          omp threads                :                     1

   ID    Z sym.   atoms
    1   29 Cu     1, 55
    2    6 C      2-6, 8-11, 13-17, 19-24, 26-29, 31-36, 56-60, 62-65, 67-71,
                  73-78, 80-83, 85-90, 109-116
    3    7 N      7, 12, 18, 25, 30, 37, 61, 66, 72, 79, 84, 91
    4    1 H      38-54, 92-108
########################################################################
[WARNING] Please study the warnings concerning your input carefully
-1- prog_main_parseArguments: Unknown option '-T' provided
########################################################################

           -------------------------------------------------
          |                 G F N 1 - x T B                 |
           -------------------------------------------------

        Reference                      10.1021/acs.jctc.7b00118
      * Hamiltonian:
        H0-scaling (s, p, d)           1.850000    2.250000    2.000000
        zeta-weighting                 0.000000
      * Dispersion:
        s8                             2.400000
        a1                             0.630000
        a2                             5.000000
        s9                             0.000000
      * Repulsion:
        kExp                           1.500000
        rExp                           1.000000
      * Coulomb:
        alpha                          2.000000
        third order                    atomic
        anisotropic                    false
      * Halogen bond correction:
        rad-scale                      1.300000
        damping                        0.440000


          ...................................................
          :                      SETUP                      :
          :.................................................:
          :  # basis functions                 408          :
          :  # atomic orbitals                 406          :
          :  # shells                          234          :
          :  # electrons                       388          :
          :  # halogen bonds                     0          :
          :  max. iterations                   250          :
          :  Hamiltonian                  GFN1-xTB          :
          :  restarted?                      false          :
          :  GBSA solvation                  false          :
          :  PC potential                    false          :
          :  electronic temp.          300.0000000     K    :
          :  accuracy                    1.0000000          :
          :  -> integral cutoff          0.2500000E+02      :
          :  -> integral neglect         0.1000000E-07      :
          :  -> SCF convergence          0.1000000E-05 Eh   :
          :  -> wf. convergence          0.2000000E-04 e    :
          :  Broyden damping             0.4000000          :
          ...................................................

 iter      E             dE          RMSdq      gap      omega  full diag
   1   -212.1355964 -0.212136E+03  0.107E+01    0.06       0.0  T
   2   -211.2480888  0.887508E+00  0.655E+00    0.50       1.0  T
   3   -155.8759135  0.553722E+02  0.132E+01    0.12       1.0  T
   4   -210.9540979 -0.550782E+02  0.246E+00    0.24       1.0  T
   5   -212.2036521 -0.124955E+01  0.108E+00    0.09       1.0  T
   6   -211.9131209  0.290531E+00  0.113E+00    0.47       1.0  T
   7   -211.8952096  0.179112E-01  0.108E+00    0.37       1.0  T
   8   -212.1238438 -0.228634E+00  0.901E-01    0.24       1.0  T
   9   -212.1606753 -0.368315E-01  0.805E-01    0.17       1.0  T
  10   -212.2474287 -0.867535E-01  0.581E-01    0.08       1.0  T
  11   -212.2238566  0.235721E-01  0.755E-01    0.10       1.0  T
  12   -212.2547966 -0.309400E-01  0.616E-01    0.07       1.0  T
  13   -212.3612874 -0.106491E+00  0.276E-01    0.03       1.0  T
  14   -212.3222391  0.390483E-01  0.424E-01    0.06       1.0  T
  15   -212.3758794 -0.536403E-01  0.931E-02    0.01       1.0  T
  16   -212.3771294 -0.125006E-02  0.458E-02    0.01       1.0  T
  17   -212.3765286  0.600813E-03  0.621E-02    0.01       1.0  T
  18   -212.3766839 -0.155304E-03  0.557E-02    0.01       1.0  T
  19   -212.3775348 -0.850836E-03  0.790E-03    0.01       1.2  T
  20   -212.3775388 -0.399906E-05  0.703E-03    0.01       1.3  T
  21   -212.3775554 -0.166651E-04  0.773E-04    0.01      12.0  T
  22   -212.3775549  0.581156E-06  0.151E-03    0.01       6.2  T
  23   -212.3775555 -0.668053E-06  0.199E-04    0.01      46.7  T
  24   -212.3775555  0.691565E-07  0.507E-04    0.01      18.3  T
  25   -212.3775555 -0.774342E-07  0.804E-05    0.01     115.5  T

   *** convergence criteria satisfied after 25 iterations ***

         #    Occupation            Energy/Eh            Energy/eV
      -------------------------------------------------------------
         1        2.0000           -0.7758995             -21.1133
       ...           ...                  ...                  ...
       188        2.0000           -0.4028866             -10.9631
       189        2.0000           -0.4017320             -10.9317
       190        2.0000           -0.3974454             -10.8150
       191        2.0000           -0.3933321             -10.7031
       192        2.0000           -0.3768341             -10.2542
       193        2.0000           -0.3758078             -10.2263
       194        0.9853           -0.3575700              -9.7300 (HOMO)
       195        0.7644           -0.3571416              -9.7183 (LUMO)
       196        0.2503           -0.3557507              -9.6805
       197                         -0.3340622              -9.0903
       198                         -0.3312494              -9.0138
       199                         -0.3246145              -8.8332
       ...                                ...                  ...
       406                          2.3844020              64.8829
      -------------------------------------------------------------
                  HL-Gap            0.0004284 Eh            0.0117 eV
             Fermi-level           -0.3575980 Eh           -9.7307 eV

 SCC (total)                   0 d,  0 h,  0 min,  1.934 sec
 SCC setup                      ...        0 min,  0.005 sec (  0.283%)
 Dispersion                     ...        0 min,  0.005 sec (  0.238%)
 classical contributions        ...        0 min,  0.002 sec (  0.078%)
 integral evaluation            ...        0 min,  0.172 sec (  8.905%)
 iterations                     ...        0 min,  1.331 sec ( 68.787%)
 molecular gradient             ...        0 min,  0.406 sec ( 20.976%)
 printout                       ...        0 min,  0.014 sec (  0.731%)

         :::::::::::::::::::::::::::::::::::::::::::::::::::::
         ::                     SUMMARY                     ::
         :::::::::::::::::::::::::::::::::::::::::::::::::::::
         :: total energy            -208.751292406747 Eh    ::
         :: gradient norm              1.046602033937 Eh/a0 ::
         :: HOMO-LUMO gap              0.011657899101 eV    ::
         ::.................................................::
         :: SCC energy              -212.377555530693 Eh    ::
         :: -> electrostatic           0.182230542758 Eh    ::
         :: repulsion energy           3.729274066130 Eh    ::
         :: dispersion energy         -0.103010942184 Eh    ::
         :: halogen bond corr.         0.000000000000 Eh    ::
         :: add. restraining           0.000000000000 Eh    ::
         :: total charge              -0.000000000002 e     ::
         :::::::::::::::::::::::::::::::::::::::::::::::::::::

      ----------------------------------------------------------- 
     |                   =====================                   |
     |                        A N C O P T                        |
     |                   =====================                   |
     |               Approximate Normal Coordinate               |
     |                Rational Function Optimizer                |
      ----------------------------------------------------------- 

          ...................................................
          :                      SETUP                      :
          :.................................................:
          :   optimization level            normal          :
          :   max. optcycles                   348          :
          :   ANC micro-cycles                  20          :
          :   degrees of freedom               342          :
          :.................................................:
          :   RF solver                   davidson          :
          :   write xtbopt.log                true          :
          :   linear?                        false          :
          :   energy convergence         0.5000000E-05 Eh   :
          :   grad. convergence          0.1000000E-02 Eh/α :
          :   maximium RF displ.         1.0000000          :
          :   Hlow (freq-cutoff)         0.1000000E-01      :
          :   Hmax (freq-cutoff)         5.0000000          :
          :   S6 in model hess.         20.0000000          :
          ...................................................

generating ANC from model Hessian ...
Using Lindh-Hessian (1995)
 Shifting diagonal of input Hessian by    1.0021096406585415E-002
 Lowest  eigenvalues of input Hessian
    0.010000    0.010002    0.010015    0.000000    0.000000    0.000000
    0.000000    0.000000    0.000000    0.010031    0.010045    0.010204
    0.010225    0.010424    0.010574    0.010657    0.010718    0.010729
 Highest eigenvalues
    2.164442    2.226528    2.632782    2.888252    3.147928    3.487858


........................................................................
.............................. CYCLE    1 ..............................
........................................................................
   1   -212.3775555 -0.212378E+03  0.163E-05    0.01       0.0  T
   2   -212.3775555  0.272715E-08  0.106E-04    0.01      88.0  T
   3   -212.3775555 -0.246939E-08  0.316E-05    0.01     293.4  T
     SCC iter.                  ...        0 min,  0.162 sec
     gradient                   ...        0 min,  0.405 sec
 * total energy  :  -208.7512924 Eh     change       -0.1231257E-08 Eh
   gradient norm :     1.0466028 Eh/α   predicted     0.0000000E+00 (-100.00%)
   displ. norm   :     0.4296322 α      lambda       -0.3922414E+00
   maximum displ.:     0.2036067 α      in ANC's #341, #340, #342, ...

........................................................................
.............................. CYCLE    2 ..............................
........................................................................
   1   -212.3898567 -0.212390E+03  0.256E-01    0.01       0.0  T
   2   -212.2280882  0.161769E+00  0.759E-01    0.12       1.0  T
   3   -212.1779602  0.501279E-01  0.799E-01    0.21       1.0  T
   4   -212.2567797 -0.788194E-01  0.658E-01    0.12       1.0  T
   5   -212.3947821 -0.138002E+00  0.117E-01    0.02       1.0  T
   6   -212.3868152  0.796686E-02  0.193E-01    0.03       1.0  T
   7   -212.3982589 -0.114437E-01  0.218E-02    0.01       1.0  T
   8   -212.3884605  0.979839E-02  0.182E-01    0.03       1.0  T
   9   -212.3966522 -0.819167E-02  0.737E-02    0.01       1.0  T
  10   -212.3972624 -0.610192E-03  0.598E-02    0.01       1.0  T
  11   -212.3983040 -0.104157E-02  0.903E-03    0.01       1.0  T
  12   -212.3983265 -0.225087E-04  0.296E-03    0.01       3.1  T
  13   -212.3983287 -0.218366E-05  0.961E-04    0.01       9.7  T
  14   -212.3983288 -0.150581E-06  0.633E-04    0.01      14.7  T
  15   -212.3983289 -0.113466E-06  0.143E-04    0.01      64.9  T
  16   -212.3983289 -0.625786E-08  0.141E-05    0.01     656.3  T
     SCC iter.                  ...        0 min,  0.854 sec
     gradient                   ...        0 min,  0.408 sec
 * total energy  :  -209.0097670 Eh     change       -0.2584746E+00 Eh
   gradient norm :     0.3970206 Eh/α   predicted    -0.2323307E+00 ( -10.11%)
   displ. norm   :     0.4236668 α      lambda       -0.1244926E+00
   maximum displ.:     0.1170299 α      in ANC's #341, #159, #133, ...

........................................................................
.............................. CYCLE    3 ..............................
........................................................................
   1   -212.4953597 -0.212495E+03  0.153E-01    0.01       0.0  T
   2   -212.3867896  0.108570E+00  0.607E-01    0.11       1.0  T
   3   -212.3257516  0.610380E-01  0.753E-01    0.18       1.0  T
   4   -212.4969062 -0.171155E+00  0.889E-02    0.01       1.0  T
   5   -212.4971181 -0.211953E-03  0.839E-02    0.01       1.0  T
   6   -212.4989870 -0.186884E-02  0.244E-02    0.01       1.0  T
   7   -212.4983952  0.591788E-03  0.503E-02    0.01       1.0  T
   8   -212.4991585 -0.763286E-03  0.141E-03    0.01       6.6  T
   9   -212.4991078  0.506257E-04  0.131E-02    0.01       1.0  T
  10   -212.4991573 -0.494756E-04  0.236E-03    0.01       3.9  T
  11   -212.4991568  0.516669E-06  0.274E-03    0.01       3.4  T
  12   -212.4991589 -0.210437E-05  0.584E-04    0.01      15.9  T
  13   -212.4991590 -0.824525E-07  0.256E-04    0.01      36.2  T
  14   -212.4991590 -0.187052E-07  0.531E-05    0.01     174.8  T
  15   -212.4991590 -0.586539E-09  0.293E-05    0.01     316.8  T
     SCC iter.                  ...        0 min,  0.802 sec
     gradient                   ...        0 min,  0.405 sec
 * total energy  :  -209.0843008 Eh     change       -0.7453384E-01 Eh
   gradient norm :     0.1683993 Eh/α   predicted    -0.7341931E-01 (  -1.50%)
   displ. norm   :     0.4713618 α      lambda       -0.4326010E-01
   maximum displ.:     0.1268396 α      in ANC's #98, #102, #159, ...

........................................................................
.............................. CYCLE    4 ..............................
........................................................................
   1   -212.5211267 -0.212521E+03  0.108E-01    0.01       0.0  T
   2   -212.3269905  0.194136E+00  0.802E-01    0.28       1.0  T
   3   -212.5049200 -0.177930E+00  0.247E-01    0.04       1.0  T
   4   -212.5118110 -0.689094E-02  0.200E-01    0.03       1.0  T
   5   -212.5231588 -0.113479E-01  0.375E-02    0.01       1.0  T
   6   -212.5189458  0.421306E-02  0.125E-01    0.02       1.0  T
   7   -212.5228906 -0.394479E-02  0.473E-02    0.01       1.0  T
   8   -212.5232130 -0.322411E-03  0.349E-02    0.01       1.0  T
   9   -212.5235745 -0.361507E-03  0.858E-04    0.01      10.8  T
  10   -212.5235693  0.515540E-05  0.426E-03    0.01       2.2  T
  11   -212.5235746 -0.527175E-05  0.671E-04    0.01      13.8  T
  12   -212.5235746  0.359058E-07  0.753E-04    0.01      12.3  T
  13   -212.5235747 -0.163792E-06  0.128E-04    0.01      72.6  T
  14   -212.5235747 -0.486551E-08  0.803E-06    0.01    1156.4  T
     SCC iter.                  ...        0 min,  0.748 sec
     gradient                   ...        0 min,  0.406 sec
 * total energy  :  -209.1075006 Eh     change       -0.2319982E-01 Eh
   gradient norm :     0.0954127 Eh/α   predicted    -0.2643590E-01 (  13.95%)
   displ. norm   :     0.4303777 α      lambda       -0.1396303E-01
   maximum displ.:     0.1408102 α      in ANC's #25, #56, #34, ...

........................................................................
.............................. CYCLE    5 ..............................
........................................................................
   1   -212.5174813 -0.212517E+03  0.381E-02    0.01       0.0  T
   2   -212.4946130  0.228683E-01  0.278E-01    0.04       1.0  T
   3   -212.5119679 -0.173549E-01  0.139E-01    0.02       1.0  T
   4   -212.5175755 -0.560763E-02  0.214E-02    0.01       1.0  T
   5   -212.5176294 -0.538963E-04  0.169E-02    0.01       1.0  T
   6   -212.5177095 -0.800316E-04  0.291E-03    0.01       3.2  T
   7   -212.5177108 -0.133934E-05  0.869E-04    0.01      10.7  T
   8   -212.5177107  0.113845E-06  0.102E-03    0.01       9.1  T
   9   -212.5177110 -0.318760E-06  0.197E-04    0.01      47.0  T
  10   -212.5177110 -0.814262E-08  0.110E-04    0.01      84.6  T
     SCC iter.                  ...        0 min,  0.537 sec
     gradient                   ...        0 min,  0.402 sec
 * total energy  :  -209.1154874 Eh     change       -0.7986726E-02 Eh
   gradient norm :     0.0462082 Eh/α   predicted    -0.8274678E-02 (   3.61%)
   displ. norm   :     0.4569375 α      lambda       -0.5987491E-02
   maximum displ.:     0.1638005 α      in ANC's #26, #25, #56, ...

........................................................................
.............................. CYCLE    6 ..............................
........................................................................
   1   -212.5029202 -0.212503E+03  0.263E-02    0.01       0.0  T
   2   -212.4230323  0.798879E-01  0.520E-01    0.08       1.0  T
   3   -212.5018500 -0.788176E-01  0.639E-02    0.01       1.0  T
   4   -212.5030173 -0.116734E-02  0.769E-03    0.01       1.2  T
   5   -212.5030318 -0.145288E-04  0.488E-03    0.01       1.9  T
   6   -212.5030356 -0.374616E-05  0.255E-03    0.01       3.6  T
   7   -212.5030366 -0.102378E-05  0.156E-03    0.01       5.9  T
   8   -212.5030373 -0.716248E-06  0.183E-04    0.01      50.8  T
   9   -212.5030373 -0.121394E-07  0.522E-05    0.01     178.0  T
     SCC iter.                  ...        0 min,  0.483 sec
     gradient                   ...        0 min,  0.403 sec
 * total energy  :  -209.1198310 Eh     change       -0.4343620E-02 Eh
   gradient norm :     0.0260675 Eh/α   predicted    -0.3618863E-02 ( -16.69%)
   displ. norm   :     0.6395890 α      lambda       -0.5602687E-02
   maximum displ.:     0.3272536 α      in ANC's #25, #31, #32, ...

........................................................................
.............................. CYCLE    7 ..............................
........................................................................
   1   -212.4770773 -0.212477E+03  0.402E-02    0.01       0.0  T
   2   -212.3140584  0.163019E+00  0.748E-01    0.16       1.0  T
   3   -212.4768725 -0.162814E+00  0.449E-02    0.01       1.0  T
   4   -212.4773560 -0.483527E-03  0.160E-02    0.00       1.0  T
   5   -212.4774187 -0.626771E-04  0.554E-03    0.00       1.7  T
   6   -212.4773921  0.265218E-04  0.114E-02    0.00       1.0  T
   7   -212.4774203 -0.282032E-04  0.535E-03    0.00       1.7  T
   8   -212.4774282 -0.782797E-05  0.134E-03    0.00       6.9  T
   9   -212.4774283 -0.137371E-06  0.112E-03    0.00       8.3  T
  10   -212.4774287 -0.351166E-06  0.186E-04    0.00      49.9  T
  11   -212.4774286  0.605007E-08  0.237E-04    0.00      39.1  T
  12   -212.4774287 -0.162683E-07  0.424E-06    0.00    2189.9  T
     SCC iter.                  ...        0 min,  0.640 sec
     gradient                   ...        0 min,  0.405 sec
 * total energy  :  -209.1214934 Eh     change       -0.1662443E-02 Eh
   gradient norm :     0.0329303 Eh/α   predicted    -0.3947338E-02 ( 137.44%)
   displ. norm   :     0.4199641 α      lambda       -0.4714151E-02
   maximum displ.:     0.2296126 α      in ANC's #26, #25, #24, ...

........................................................................
.............................. CYCLE    8 ..............................
........................................................................
   1   -212.4798127 -0.212480E+03  0.183E-02    0.00       0.0  T
   2   -212.4117703  0.680424E-01  0.485E-01    0.07       1.0  T
   3   -212.4798635 -0.680932E-01  0.134E-02    0.00       1.0  T
   4   -212.4798917 -0.281304E-04  0.449E-03    0.00       2.1  T
   5   -212.4798902  0.142681E-05  0.346E-03    0.00       2.7  T
   6   -212.4798893  0.958123E-06  0.326E-03    0.00       2.9  T
   7   -212.4798925 -0.317480E-05  0.798E-04    0.00      11.6  T
   8   -212.4798926 -0.177466E-06  0.136E-04    0.00      68.3  T
   9   -212.4798926 -0.224574E-08  0.105E-04    0.00      88.4  T
     SCC iter.                  ...        0 min,  0.482 sec
     gradient                   ...        0 min,  0.403 sec
 * total energy  :  -209.1239441 Eh     change       -0.2450667E-02 Eh
   gradient norm :     0.0265423 Eh/α   predicted    -0.2772795E-02 (  13.14%)
   displ. norm   :     0.3179044 α      lambda       -0.1631837E-02
   maximum displ.:     0.1703654 α      in ANC's #25, #9, #26, ...

........................................................................
.............................. CYCLE    9 ..............................
........................................................................
   1   -212.4836091 -0.212484E+03  0.134E-02    0.00       0.0  T
   2   -212.4363374  0.472717E-01  0.404E-01    0.06       1.0  T
   3   -212.4836345 -0.472971E-01  0.901E-03    0.00       1.0  T
   4   -212.4836511 -0.166060E-04  0.342E-03    0.00       2.7  T
   5   -212.4836529 -0.180165E-05  0.215E-03    0.00       4.3  T
   6   -212.4836539 -0.986570E-06  0.810E-04    0.00      11.5  T
   7   -212.4836541 -0.162324E-06  0.114E-04    0.00      81.3  T
   8   -212.4836541 -0.651085E-09  0.793E-05    0.00     117.1  T
     SCC iter.                  ...        0 min,  0.424 sec
     gradient                   ...        0 min,  0.403 sec
 * total energy  :  -209.1250566 Eh     change       -0.1112482E-02 Eh
   gradient norm :     0.0139647 Eh/α   predicted    -0.8983802E-03 ( -19.25%)
   displ. norm   :     0.4710214 α      lambda       -0.1610317E-02
   maximum displ.:     0.2820385 α      in ANC's #25, #9, #31, ...

........................................................................
.............................. CYCLE   10 ..............................
........................................................................
   1   -212.4865948 -0.212487E+03  0.190E-02    0.00       0.0  T
   2   -212.4011006  0.854942E-01  0.543E-01    0.08       1.0  T
   3   -212.4864349 -0.853343E-01  0.296E-02    0.00       1.0  T
   4   -212.4866804 -0.245533E-03  0.448E-03    0.00       2.1  T
   5   -212.4866849 -0.455340E-05  0.288E-03    0.00       3.2  T
   6   -212.4866858 -0.896747E-06  0.217E-03    0.00       4.3  T
   7   -212.4866867 -0.864734E-06  0.117E-03    0.00       7.9  T
   8   -212.4866871 -0.395059E-06  0.946E-05    0.00      98.1  T
   9   -212.4866871 -0.107184E-08  0.781E-05    0.00     118.9  T
     SCC iter.                  ...        0 min,  0.481 sec
     gradient                   ...        0 min,  0.402 sec
 * total energy  :  -209.1262829 Eh     change       -0.1226367E-02 Eh
   gradient norm :     0.0106978 Eh/α   predicted    -0.9838000E-03 ( -19.78%)
   displ. norm   :     0.5247896 α      lambda       -0.1102300E-02
   maximum displ.:     0.2960659 α      in ANC's #25, #9, #26, ...

........................................................................
.............................. CYCLE   11 ..............................
........................................................................
   1   -212.4824611 -0.212482E+03  0.221E-02    0.00       0.0  T
   2   -212.3719588  0.110502E+00  0.618E-01    0.10       1.0  T
   3   -212.4824577 -0.110499E+00  0.216E-02    0.00       1.0  T
   4   -212.4825892 -0.131445E-03  0.268E-03    0.00       3.5  T
   5   -212.4825925 -0.335459E-05  0.145E-03    0.00       6.4  T
   6   -212.4825917  0.778857E-06  0.212E-03    0.00       4.4  T
   7   -212.4825926 -0.830324E-06  0.118E-03    0.00       7.9  T
   8   -212.4825930 -0.403413E-06  0.703E-05    0.00     132.0  T
   9   -212.4825930  0.219063E-08  0.117E-04    0.00      79.2  T
     SCC iter.                  ...        0 min,  0.482 sec
     gradient                   ...        0 min,  0.401 sec
 * total energy  :  -209.1271140 Eh     change       -0.8310880E-03 Eh
   gradient norm :     0.0103555 Eh/α   predicted    -0.7029444E-03 ( -15.42%)
   displ. norm   :     0.4644672 α      lambda       -0.6803650E-03
   maximum displ.:     0.2611055 α      in ANC's #9, #25, #26, ...

........................................................................
.............................. CYCLE   12 ..............................
........................................................................
   1   -212.4792403 -0.212479E+03  0.106E-02    0.00       0.0  T
   2   -212.4432060  0.360343E-01  0.353E-01    0.05       1.0  T
   3   -212.4792380 -0.360320E-01  0.105E-02    0.00       1.0  T
   4   -212.4792682 -0.302187E-04  0.202E-03    0.00       4.6  T
   5   -212.4792688 -0.581125E-06  0.146E-03    0.00       6.3  T
   6   -212.4792691 -0.289490E-06  0.942E-04    0.00       9.9  T
   7   -212.4792693 -0.247860E-06  0.192E-04    0.00      48.5  T
   8   -212.4792694 -0.101419E-07  0.303E-05    0.00     306.1  T
     SCC iter.                  ...        0 min,  0.429 sec
     gradient                   ...        0 min,  0.401 sec
 * total energy  :  -209.1276417 Eh     change       -0.5276891E-03 Eh
   gradient norm :     0.0078469 Eh/α   predicted    -0.4135708E-03 ( -21.63%)
   displ. norm   :     0.4058574 α      lambda       -0.4874264E-03
   maximum displ.:     0.2531953 α      in ANC's #9, #25, #11, ...

........................................................................
.............................. CYCLE   13 ..............................
........................................................................
   1   -212.4760488 -0.212476E+03  0.535E-03    0.00       0.0  T
   2   -212.4686931  0.735562E-02  0.160E-01    0.02       1.0  T
   3   -212.4760397 -0.734659E-02  0.745E-03    0.00       1.2  T
   4   -212.4760543 -0.145932E-04  0.172E-03    0.00       5.4  T
   5   -212.4760546 -0.253466E-06  0.131E-03    0.00       7.1  T
   6   -212.4760551 -0.474942E-06  0.254E-04    0.00      36.5  T
   7   -212.4760551 -0.869190E-08  0.114E-04    0.00      81.6  T
   8   -212.4760551 -0.358108E-08  0.303E-05    0.00     306.3  T
     SCC iter.                  ...        0 min,  0.432 sec
     gradient                   ...        0 min,  0.401 sec
 * total energy  :  -209.1280290 Eh     change       -0.3872597E-03 Eh
   gradient norm :     0.0051621 Eh/α   predicted    -0.2838593E-03 ( -26.70%)
   displ. norm   :     0.3647353 α      lambda       -0.3854202E-03
   maximum displ.:     0.2420390 α      in ANC's #9, #11, #13, ...

........................................................................
.............................. CYCLE   14 ..............................
........................................................................
   1   -212.4735685 -0.212474E+03  0.150E-02    0.00       0.0  T
   2   -212.4074090  0.661596E-01  0.479E-01    0.07       1.0  T
   3   -212.4735706 -0.661617E-01  0.143E-02    0.00       1.0  T
   4   -212.4736275 -0.568862E-04  0.201E-03    0.00       4.6  T
   5   -212.4736278 -0.307612E-06  0.205E-03    0.00       4.5  T
   6   -212.4736285 -0.707852E-06  0.127E-03    0.00       7.3  T
   7   -212.4736289 -0.393859E-06  0.387E-04    0.00      24.0  T
   8   -212.4736290 -0.437024E-07  0.312E-05    0.00     298.1  T
   9   -212.4736290 -0.248576E-09  0.205E-05    0.00     452.9  T
     SCC iter.                  ...        0 min,  0.483 sec
     gradient                   ...        0 min,  0.400 sec
 * total energy  :  -209.1283422 Eh     change       -0.3132710E-03 Eh
   gradient norm :     0.0050812 Eh/α   predicted    -0.2183495E-03 ( -30.30%)
   displ. norm   :     0.3543832 α      lambda       -0.3353566E-03
   maximum displ.:     0.2369821 α      in ANC's #9, #11, #13, ...

........................................................................
.............................. CYCLE   15 ..............................
........................................................................
   1   -212.4717975 -0.212472E+03  0.174E-02    0.00       0.0  T
   2   -212.3882078  0.835897E-01  0.538E-01    0.08       1.0  T
   3   -212.4718136 -0.836058E-01  0.152E-02    0.00       1.0  T
   4   -212.4718791 -0.654980E-04  0.146E-03    0.00       6.4  T
   5   -212.4718793 -0.188531E-06  0.164E-03    0.00       5.7  T
   6   -212.4718793  0.722522E-08  0.161E-03    0.00       5.8  T
   7   -212.4718800 -0.661857E-06  0.452E-04    0.00      20.5  T
   8   -212.4718800 -0.593765E-07  0.364E-05    0.00     255.2  T
   9   -212.4718800  0.514433E-11  0.410E-05    0.00     226.7  T
     SCC iter.                  ...        0 min,  0.484 sec
     gradient                   ...        0 min,  0.401 sec
 * total energy  :  -209.1286216 Eh     change       -0.2793568E-03 Eh
   gradient norm :     0.0061176 Eh/α   predicted    -0.1887396E-03 ( -32.44%)
   displ. norm   :     0.3721891 α      lambda       -0.3217463E-03
   maximum displ.:     0.2444056 α      in ANC's #9, #11, #13, ...

........................................................................
.............................. CYCLE   16 ..............................
........................................................................
   1   -212.4711555 -0.212471E+03  0.119E-02    0.00       0.0  T
   2   -212.4245227  0.466329E-01  0.402E-01    0.06       1.0  T
   3   -212.4711538 -0.466311E-01  0.119E-02    0.00       1.0  T
   4   -212.4711930 -0.392307E-04  0.183E-03    0.00       5.1  T
   5   -212.4711932 -0.218979E-06  0.175E-03    0.00       5.3  T
   6   -212.4711936 -0.413929E-06  0.122E-03    0.00       7.6  T
   7   -212.4711940 -0.400206E-06  0.253E-04    0.00      36.7  T
   8   -212.4711940 -0.181323E-07  0.104E-05    0.00     890.9  T
   9   -212.4711940 -0.104592E-10  0.981E-06    0.00     946.3  T
     SCC iter.                  ...        0 min,  0.483 sec
     gradient                   ...        0 min,  0.400 sec
 * total energy  :  -209.1288938 Eh     change       -0.2722277E-03 Eh
   gradient norm :     0.0061511 Eh/α   predicted    -0.1831613E-03 ( -32.72%)
   displ. norm   :     0.4070250 α      lambda       -0.3228666E-03
   maximum displ.:     0.2651753 α      in ANC's #9, #13, #11, ...

........................................................................
.............................. CYCLE   17 ..............................
........................................................................
   1   -212.4712730 -0.212471E+03  0.303E-03    0.00       0.0  T
   2   -212.4689225  0.235046E-02  0.903E-02    0.01       1.0  T
   3   -212.4712694 -0.234685E-02  0.449E-03    0.00       2.1  T
   4   -212.4712746 -0.527210E-05  0.117E-03    0.00       7.9  T
   5   -212.4712749 -0.306255E-06  0.519E-04    0.00      17.9  T
   6   -212.4712750 -0.649038E-07  0.244E-04    0.00      38.1  T
   7   -212.4712750 -0.138154E-07  0.393E-05    0.00     236.2  T
   8   -212.4712750 -0.232035E-09  0.125E-05    0.00     744.2  T
     SCC iter.                  ...        0 min,  0.430 sec
     gradient                   ...        0 min,  0.399 sec
 * total energy  :  -209.1291668 Eh     change       -0.2730154E-03 Eh
   gradient norm :     0.0053436 Eh/α   predicted    -0.1881789E-03 ( -31.07%)
   displ. norm   :     0.4418259 α      lambda       -0.3147232E-03
   maximum displ.:     0.2902851 α      in ANC's #9, #13, #11, ...

........................................................................
.............................. CYCLE   18 ..............................
........................................................................
   1   -212.4724579 -0.212472E+03  0.805E-03    0.00       0.0  T
   2   -212.4497858  0.226721E-01  0.281E-01    0.04       1.0  T
   3   -212.4724596 -0.226738E-01  0.745E-03    0.00       1.2  T
   4   -212.4724748 -0.151148E-04  0.137E-03    0.00       6.8  T
   5   -212.4724747  0.894167E-07  0.150E-03    0.00       6.2  T
   6   -212.4724752 -0.534260E-06  0.618E-04    0.00      15.0  T
   7   -212.4724753 -0.900805E-07  0.178E-04    0.00      52.3  T
   8   -212.4724753 -0.896188E-08  0.136E-05    0.00     685.2  T
     SCC iter.                  ...        0 min,  0.429 sec
     gradient                   ...        0 min,  0.406 sec
 * total energy  :  -209.1294292 Eh     change       -0.2623458E-03 Eh
   gradient norm :     0.0045822 Eh/α   predicted    -0.1880825E-03 ( -28.31%)
   displ. norm   :     0.4590348 α      lambda       -0.2828978E-03
   maximum displ.:     0.3067008 α      in ANC's #9, #11, #13, ...

........................................................................
.............................. CYCLE   19 ..............................
........................................................................
   1   -212.4736000 -0.212474E+03  0.131E-02    0.00       0.0  T
   2   -212.4192516  0.543484E-01  0.434E-01    0.06       1.0  T
   3   -212.4736051 -0.543535E-01  0.120E-02    0.00       1.0  T
   4   -212.4736457 -0.405784E-04  0.146E-03    0.00       6.3  T
   5   -212.4736451  0.516601E-06  0.200E-03    0.00       4.6  T
   6   -212.4736459 -0.789204E-06  0.109E-03    0.00       8.5  T
   7   -212.4736462 -0.291081E-06  0.343E-04    0.00      27.1  T
   8   -212.4736463 -0.337213E-07  0.314E-05    0.00     295.8  T
   9   -212.4736463 -0.257387E-09  0.114E-05    0.00     814.7  T
     SCC iter.                  ...        0 min,  0.484 sec
     gradient                   ...        0 min,  0.404 sec
 * total energy  :  -209.1296608 Eh     change       -0.2316160E-03 Eh
   gradient norm :     0.0045886 Eh/α   predicted    -0.1712554E-03 ( -26.06%)
   displ. norm   :     0.4616465 α      lambda       -0.2422409E-03
   maximum displ.:     0.3122910 α      in ANC's #9, #11, #13, ...

........................................................................
.............................. CYCLE   20 ..............................
........................................................................
   1   -212.4756518 -0.212476E+03  0.126E-02    0.00       0.0  T
   2   -212.4245889  0.510629E-01  0.421E-01    0.06       1.0  T
   3   -212.4756543 -0.510653E-01  0.119E-02    0.00       1.0  T
   4   -212.4756939 -0.396674E-04  0.143E-03    0.00       6.5  T
   5   -212.4756936  0.360938E-06  0.181E-03    0.00       5.1  T
   6   -212.4756942 -0.603116E-06  0.104E-03    0.00       8.9  T
   7   -212.4756945 -0.280092E-06  0.274E-04    0.00      33.9  T
   8   -212.4756945 -0.216608E-07  0.143E-05    0.00     651.3  T
   9   -212.4756945 -0.289333E-10  0.114E-05    0.00     815.7  T
     SCC iter.                  ...        0 min,  0.482 sec
     gradient                   ...        0 min,  0.405 sec
 * total energy  :  -209.1298555 Eh     change       -0.1947485E-03 Eh
   gradient norm :     0.0044248 Eh/α   predicted    -0.1469380E-03 ( -24.55%)
   displ. norm   :     0.4649272 α      lambda       -0.2091233E-03
   maximum displ.:     0.3128836 α      in ANC's #9, #11, #13, ...
 * RMSD in coord.:     0.5538430 α      energy gain  -0.3785631E+00 Eh

generating ANC from model Hessian ...
Using Lindh-Hessian (1995)
 Shifting diagonal of input Hessian by    1.0025098810492947E-002
 Lowest  eigenvalues of input Hessian
    0.010000    0.010005    0.010016    0.010018    0.000000    0.000000
    0.000000    0.000000    0.000000    0.000000    0.010029    0.010181
    0.010229    0.010271    0.010403    0.010668    0.010712    0.010751
 Highest eigenvalues
    2.136212    2.136344    2.137969    2.489970    2.813082    3.037596


........................................................................
.............................. CYCLE   21 ..............................
........................................................................
   1   -212.4757391 -0.212476E+03  0.627E-03    0.00       0.0  T
   2   -212.4619315  0.138076E-01  0.219E-01    0.03       1.0  T
   3   -212.4757362 -0.138048E-01  0.677E-03    0.00       1.4  T
   4   -212.4757484 -0.121948E-04  0.164E-03    0.00       5.7  T
   5   -212.4757489 -0.410298E-06  0.115E-03    0.00       8.1  T
   6   -212.4757491 -0.277937E-06  0.530E-04    0.00      17.5  T
   7   -212.4757492 -0.773525E-07  0.319E-05    0.00     291.0  T
   8   -212.4757492 -0.249742E-09  0.707E-06    0.00    1313.4  T
     SCC iter.                  ...        0 min,  0.429 sec
     gradient                   ...        0 min,  0.402 sec
 * total energy  :  -209.1300211 Eh     change       -0.1655395E-03 Eh
   gradient norm :     0.0041045 Eh/α   predicted     0.0000000E+00 (-100.00%)
   displ. norm   :     0.0614475 α      lambda       -0.6938266E-04
   maximum displ.:     0.0332571 α      in ANC's #22, #14, #26, ...

........................................................................
.............................. CYCLE   22 ..............................
........................................................................
   1   -212.4771230 -0.212477E+03  0.711E-03    0.00       0.0  T
   2   -212.4586663  0.184567E-01  0.253E-01    0.03       1.0  T
   3   -212.4771230 -0.184567E-01  0.692E-03    0.00       1.3  T
   4   -212.4771362 -0.131663E-04  0.109E-03    0.00       8.5  T
   5   -212.4771361  0.150355E-06  0.134E-03    0.00       6.9  T
   6   -212.4771365 -0.433292E-06  0.494E-04    0.00      18.8  T
   7   -212.4771366 -0.644359E-07  0.924E-05    0.00     100.5  T
   8   -212.4771366 -0.249040E-08  0.168E-05    0.00     552.2  T
     SCC iter.                  ...        0 min,  0.428 sec
     gradient                   ...        0 min,  0.402 sec
 * total energy  :  -209.1300821 Eh     change       -0.6105834E-04 Eh
   gradient norm :     0.0022077 Eh/α   predicted    -0.3753220E-04 ( -38.53%)
   displ. norm   :     0.2839443 α      lambda       -0.2509567E-03
   maximum displ.:     0.1525742 α      in ANC's #22, #14, #21, ...

........................................................................
.............................. CYCLE   23 ..............................
........................................................................
   1   -212.4793132 -0.212479E+03  0.261E-02    0.00       0.0  T
   2   -212.3462073  0.133106E+00  0.680E-01    0.12       1.0  T
   3   -212.4793919 -0.133185E+00  0.192E-02    0.00       1.0  T
   4   -212.4794920 -0.100069E-03  0.368E-03    0.00       2.5  T
   5   -212.4794957 -0.372887E-05  0.188E-03    0.00       4.9  T
   6   -212.4794928  0.288486E-05  0.368E-03    0.00       2.5  T
   7   -212.4794960 -0.317472E-05  0.146E-03    0.00       6.4  T
   8   -212.4794966 -0.617798E-06  0.891E-05    0.00     104.2  T
   9   -212.4794966  0.190585E-07  0.277E-04    0.00      33.5  T
  10   -212.4794966 -0.156896E-07  0.144E-04    0.00      64.6  T
     SCC iter.                  ...        0 min,  0.537 sec
     gradient                   ...        0 min,  0.400 sec
 * total energy  :  -209.1300767 Eh     change        0.5446211E-05 Eh
   gradient norm :     0.0071652 Eh/α   predicted    -0.1355959E-03 (*******%)
   displ. norm   :     0.1276926 α      lambda       -0.3198371E-03
   maximum displ.:     0.0633486 α      in ANC's #17, #22, #14, ...

........................................................................
.............................. CYCLE   24 ..............................
........................................................................
   1   -212.4778456 -0.212478E+03  0.224E-03    0.00       0.0  T
   2   -212.4763213  0.152431E-02  0.728E-02    0.01       1.0  T
   3   -212.4778457 -0.152442E-02  0.203E-03    0.00       4.6  T
   4   -212.4778466 -0.864541E-06  0.856E-04    0.00      10.8  T
   5   -212.4778467 -0.165751E-06  0.371E-04    0.00      25.0  T
   6   -212.4778468 -0.302520E-07  0.100E-04    0.00      92.6  T
   7   -212.4778468 -0.228900E-08  0.211E-05    0.00     440.2  T
     SCC iter.                  ...        0 min,  0.375 sec
     gradient                   ...        0 min,  0.402 sec
 * total energy  :  -209.1302286 Eh     change       -0.1519436E-03 Eh
   gradient norm :     0.0055636 Eh/α   predicted    -0.1625288E-03 (   6.97%)
   displ. norm   :     0.0623477 α      lambda       -0.8938331E-04
   maximum displ.:     0.0267756 α      in ANC's #15, #14, #22, ...

........................................................................
.............................. CYCLE   25 ..............................
........................................................................
   1   -212.4763161 -0.212476E+03  0.789E-03    0.00       0.0  T
   2   -212.4544403  0.218758E-01  0.276E-01    0.04       1.0  T
   3   -212.4763068 -0.218665E-01  0.951E-03    0.00       1.0  T
   4   -212.4763320 -0.252337E-04  0.110E-03    0.00       8.4  T
   5   -212.4763313  0.683949E-06  0.192E-03    0.00       4.8  T
   6   -212.4763322 -0.904549E-06  0.675E-04    0.00      13.8  T
   7   -212.4763324 -0.120829E-06  0.126E-04    0.00      73.7  T
   8   -212.4763324 -0.467850E-08  0.213E-05    0.00     435.4  T
     SCC iter.                  ...        0 min,  0.426 sec
     gradient                   ...        0 min,  0.400 sec
 * total energy  :  -209.1302652 Eh     change       -0.3659054E-04 Eh
   gradient norm :     0.0033529 Eh/α   predicted    -0.4486929E-04 (  22.63%)
   displ. norm   :     0.1099987 α      lambda       -0.1097759E-03
   maximum displ.:     0.0551062 α      in ANC's #14, #22, #10, ...

........................................................................
.............................. CYCLE   26 ..............................
........................................................................
   1   -212.4748341 -0.212475E+03  0.104E-02    0.00       0.0  T
   2   -212.4378062  0.370279E-01  0.359E-01    0.05       1.0  T
   3   -212.4748347 -0.370285E-01  0.100E-02    0.00       1.0  T
   4   -212.4748628 -0.280614E-04  0.125E-03    0.00       7.4  T
   5   -212.4748622  0.592040E-06  0.191E-03    0.00       4.9  T
   6   -212.4748631 -0.851604E-06  0.788E-04    0.00      11.8  T
   7   -212.4748632 -0.159537E-06  0.197E-04    0.00      47.2  T
   8   -212.4748632 -0.112701E-07  0.156E-05    0.00     595.4  T
     SCC iter.                  ...        0 min,  0.424 sec
     gradient                   ...        0 min,  0.402 sec
 * total energy  :  -209.1303364 Eh     change       -0.7120894E-04 Eh
   gradient norm :     0.0019824 Eh/α   predicted    -0.5555442E-04 ( -21.98%)
   displ. norm   :     0.3190634 α      lambda       -0.7913642E-04
   maximum displ.:     0.1697421 α      in ANC's #22, #14, #10, ...

........................................................................
.............................. CYCLE   27 ..............................
........................................................................
   1   -212.4730560 -0.212473E+03  0.393E-03    0.00       0.0  T
   2   -212.4675634  0.549266E-02  0.138E-01    0.02       1.0  T
   3   -212.4730547 -0.549134E-02  0.433E-03    0.00       2.1  T
   4   -212.4730597 -0.500485E-05  0.954E-04    0.00       9.7  T
   5   -212.4730598 -0.977363E-07  0.746E-04    0.00      12.4  T
   6   -212.4730600 -0.140414E-06  0.211E-04    0.00      44.1  T
   7   -212.4730600 -0.121046E-07  0.298E-05    0.00     311.3  T
   8   -212.4730600 -0.132076E-09  0.197E-05    0.00     471.6  T
     SCC iter.                  ...        0 min,  0.430 sec
     gradient                   ...        0 min,  0.402 sec
 * total energy  :  -209.1304205 Eh     change       -0.8409975E-04 Eh
   gradient norm :     0.0029437 Eh/α   predicted    -0.4135943E-04 ( -50.82%)
   displ. norm   :     0.2115880 α      lambda       -0.6745256E-04
   maximum displ.:     0.1094900 α      in ANC's #14, #22, #12, ...

........................................................................
.............................. CYCLE   28 ..............................
........................................................................
   1   -212.4731936 -0.212473E+03  0.166E-03    0.00       0.0  T
   2   -212.4723229  0.870712E-03  0.551E-02    0.01       1.0  T
   3   -212.4731936 -0.870704E-03  0.157E-03    0.00       5.9  T
   4   -212.4731942 -0.564020E-06  0.609E-04    0.00      15.3  T
   5   -212.4731943 -0.906862E-07  0.287E-04    0.00      32.4  T
   6   -212.4731943 -0.197062E-07  0.612E-05    0.00     151.8  T
   7   -212.4731943 -0.819540E-09  0.156E-05    0.00     594.4  T
     SCC iter.                  ...        0 min,  0.378 sec
     gradient                   ...        0 min,  0.406 sec
 * total energy  :  -209.1304773 Eh     change       -0.5672804E-04 Eh
   gradient norm :     0.0024062 Eh/α   predicted    -0.3523664E-04 ( -37.88%)
   displ. norm   :     0.3136254 α      lambda       -0.9395595E-04
   maximum displ.:     0.1711968 α      in ANC's #14, #22, #12, ...

........................................................................
.............................. CYCLE   29 ..............................
........................................................................
   1   -212.4742043 -0.212474E+03  0.176E-03    0.00       0.0  T
   2   -212.4737751  0.429267E-03  0.387E-02    0.00       1.0  T
   3   -212.4742035 -0.428418E-03  0.225E-03    0.00       4.1  T
   4   -212.4742047 -0.123405E-05  0.642E-04    0.00      14.5  T
   5   -212.4742048 -0.979660E-07  0.373E-04    0.00      24.9  T
   6   -212.4742048 -0.322491E-07  0.774E-05    0.00     120.0  T
   7   -212.4742048 -0.111106E-08  0.277E-05    0.00     335.4  T
     SCC iter.                  ...        0 min,  0.379 sec
     gradient                   ...        0 min,  0.402 sec
 * total energy  :  -209.1305489 Eh     change       -0.7164659E-04 Eh
   gradient norm :     0.0016037 Eh/α   predicted    -0.5160080E-04 ( -27.98%)
   displ. norm   :     0.4237616 α      lambda       -0.6479411E-04
   maximum displ.:     0.2453092 α      in ANC's #14, #22, #12, ...

........................................................................
.............................. CYCLE   30 ..............................
........................................................................
   1   -212.4743001 -0.212474E+03  0.297E-03    0.00       0.0  T
   2   -212.4719432  0.235698E-02  0.906E-02    0.01       1.0  T
   3   -212.4742959 -0.235278E-02  0.466E-03    0.00       2.0  T
   4   -212.4743017 -0.577450E-05  0.113E-03    0.00       8.2  T
   5   -212.4743021 -0.334611E-06  0.584E-04    0.00      15.9  T
   6   -212.4743021 -0.766449E-07  0.145E-04    0.00      63.9  T
   7   -212.4743021 -0.522931E-08  0.278E-05    0.00     334.2  T
     SCC iter.                  ...        0 min,  0.375 sec
     gradient                   ...        0 min,  0.402 sec
 * total energy  :  -209.1306116 Eh     change       -0.6264889E-04 Eh
   gradient norm :     0.0020159 Eh/α   predicted    -0.3498575E-04 ( -44.16%)
   displ. norm   :     0.1289158 α      lambda       -0.3549285E-04
   maximum displ.:     0.0830286 α      in ANC's #14, #12, #10, ...

........................................................................
.............................. CYCLE   31 ..............................
........................................................................
   1   -212.4755904 -0.212476E+03  0.313E-03    0.00       0.0  T
   2   -212.4718475  0.374291E-02  0.114E-01    0.01       1.0  T
   3   -212.4755901 -0.374263E-02  0.320E-03    0.00       2.9  T
   4   -212.4755928 -0.263608E-05  0.934E-04    0.00       9.9  T
   5   -212.4755929 -0.164176E-06  0.609E-04    0.00      15.2  T
   6   -212.4755930 -0.937301E-07  0.141E-04    0.00      65.9  T
   7   -212.4755930 -0.536679E-08  0.173E-05    0.00     537.1  T
     SCC iter.                  ...        0 min,  0.374 sec
     gradient                   ...        0 min,  0.400 sec
 * total energy  :  -209.1306392 Eh     change       -0.2760983E-04 Eh
   gradient norm :     0.0017191 Eh/α   predicted    -0.1804407E-04 ( -34.65%)
   displ. norm   :     0.2182465 α      lambda       -0.4126340E-04
   maximum displ.:     0.1434143 α      in ANC's #14, #12, #18, ...

........................................................................
.............................. CYCLE   32 ..............................
........................................................................
   1   -212.4775370 -0.212478E+03  0.622E-03    0.00       0.0  T
   2   -212.4632217  0.143153E-01  0.223E-01    0.03       1.0  T
   3   -212.4775383 -0.143166E-01  0.569E-03    0.00       1.6  T
   4   -212.4775465 -0.820161E-05  0.178E-03    0.00       5.2  T
   5   -212.4775471 -0.604771E-06  0.113E-03    0.00       8.2  T
   6   -212.4775474 -0.298940E-06  0.414E-04    0.00      22.4  T
   7   -212.4775474 -0.456239E-07  0.575E-05    0.00     161.6  T
   8   -212.4775474 -0.861206E-09  0.905E-06    0.00    1025.6  T
     SCC iter.                  ...        0 min,  0.430 sec
     gradient                   ...        0 min,  0.399 sec
 * total energy  :  -209.1306838 Eh     change       -0.4467045E-04 Eh
   gradient norm :     0.0018704 Eh/α   predicted    -0.2106983E-04 ( -52.83%)
   displ. norm   :     0.1949658 α      lambda       -0.3188005E-04
   maximum displ.:     0.1329938 α      in ANC's #14, #12, #18, ...

........................................................................
.............................. CYCLE   33 ..............................
........................................................................
   1   -212.4759516 -0.212476E+03  0.136E-03    0.00       0.0  T
   2   -212.4759364  0.152015E-04  0.732E-03    0.00       1.3  T
   3   -212.4759399 -0.355349E-05  0.644E-03    0.00       1.4  T
   4   -212.4759516 -0.117249E-04  0.520E-04    0.00      17.8  T
   5   -212.4759517 -0.356039E-07  0.260E-04    0.00      35.6  T
   6   -212.4759517 -0.178509E-07  0.103E-04    0.00      90.0  T
   7   -212.4759517 -0.343252E-08  0.245E-05    0.00     378.5  T
     SCC iter.                  ...        0 min,  0.373 sec
     gradient                   ...        0 min,  0.401 sec
 * total energy  :  -209.1307188 Eh     change       -0.3494958E-04 Eh
   gradient norm :     0.0014750 Eh/α   predicted    -0.1621341E-04 ( -53.61%)
   displ. norm   :     0.1460828 α      lambda       -0.2463194E-04
   maximum displ.:     0.0940455 α      in ANC's #14, #12, #18, ...

........................................................................
.............................. CYCLE   34 ..............................
........................................................................
   1   -212.4767376 -0.212477E+03  0.368E-03    0.00       0.0  T
   2   -212.4714495  0.528811E-02  0.136E-01    0.02       1.0  T
   3   -212.4767382 -0.528870E-02  0.331E-03    0.00       2.8  T
   4   -212.4767411 -0.286855E-05  0.880E-04    0.00      10.5  T
   5   -212.4767412 -0.125816E-06  0.554E-04    0.00      16.8  T
   6   -212.4767413 -0.686826E-07  0.215E-04    0.00      43.2  T
   7   -212.4767413 -0.135588E-07  0.340E-05    0.00     272.8  T
   8   -212.4767413 -0.315481E-09  0.641E-06    0.00    1448.2  T
     SCC iter.                  ...        0 min,  0.428 sec
     gradient                   ...        0 min,  0.402 sec
 * total energy  :  -209.1307479 Eh     change       -0.2910180E-04 Eh
   gradient norm :     0.0013470 Eh/α   predicted    -0.1243343E-04 ( -57.28%)
   displ. norm   :     0.1840113 α      lambda       -0.2700658E-04
   maximum displ.:     0.1189577 α      in ANC's #14, #18, #12, ...

........................................................................
.............................. CYCLE   35 ..............................
........................................................................
   1   -212.4770409 -0.212477E+03  0.619E-03    0.00       0.0  T
   2   -212.4623931  0.146478E-01  0.226E-01    0.03       1.0  T
   3   -212.4770428 -0.146497E-01  0.552E-03    0.00       1.7  T
   4   -212.4770509 -0.805871E-05  0.138E-03    0.00       6.7  T
   5   -212.4770511 -0.253288E-06  0.105E-03    0.00       8.8  T
   6   -212.4770514 -0.230502E-06  0.521E-04    0.00      17.8  T
   7   -212.4770514 -0.735197E-07  0.773E-05    0.00     120.2  T
   8   -212.4770515 -0.167256E-08  0.597E-06    0.00    1554.9  T
     SCC iter.                  ...        0 min,  0.432 sec
     gradient                   ...        0 min,  0.400 sec
 * total energy  :  -209.1307794 Eh     change       -0.3154395E-04 Eh
   gradient norm :     0.0011439 Eh/α   predicted    -0.1370936E-04 ( -56.54%)
   displ. norm   :     0.1792625 α      lambda       -0.2215644E-04
   maximum displ.:     0.1208546 α      in ANC's #14, #12, #18, ...

........................................................................
.............................. CYCLE   36 ..............................
........................................................................
   1   -212.4764534 -0.212476E+03  0.243E-03    0.00       0.0  T
   2   -212.4742319  0.222159E-02  0.880E-02    0.01       1.0  T
   3   -212.4764534 -0.222151E-02  0.242E-03    0.00       3.8  T
   4   -212.4764548 -0.145396E-05  0.799E-04    0.00      11.6  T
   5   -212.4764550 -0.133970E-06  0.448E-04    0.00      20.7  T
   6   -212.4764550 -0.495342E-07  0.124E-04    0.00      75.1  T
   7   -212.4764550 -0.390486E-08  0.171E-05    0.00     543.7  T
     SCC iter.                  ...        0 min,  0.378 sec
     gradient                   ...        0 min,  0.400 sec
 * total energy  :  -209.1308042 Eh     change       -0.2471828E-04 Eh
   gradient norm :     0.0011777 Eh/α   predicted    -0.1123890E-04 ( -54.53%)
   displ. norm   :     0.1627374 α      lambda       -0.1704350E-04
   maximum displ.:     0.1118822 α      in ANC's #14, #12, #18, ...

........................................................................
.............................. CYCLE   37 ..............................
........................................................................
   1   -212.4762515 -0.212476E+03  0.144E-03    0.00       0.0  T
   2   -212.4755698  0.681720E-03  0.487E-02    0.01       1.0  T
   3   -212.4762517 -0.681872E-03  0.112E-03    0.00       8.3  T
   4   -212.4762520 -0.325735E-06  0.279E-04    0.00      33.3  T
   5   -212.4762520 -0.871432E-08  0.204E-04    0.00      45.4  T
   6   -212.4762520 -0.944078E-08  0.747E-05    0.00     124.4  T
   7   -212.4762520 -0.138365E-08  0.172E-05    0.00     539.1  T
     SCC iter.                  ...        0 min,  0.375 sec
     gradient                   ...        0 min,  0.401 sec
 * total energy  :  -209.1308220 Eh     change       -0.1785035E-04 Eh
   gradient norm :     0.0010291 Eh/α   predicted    -0.8624022E-05 ( -51.69%)
   displ. norm   :     0.1357797 α      lambda       -0.1174161E-04
   maximum displ.:     0.0964109 α      in ANC's #14, #12, #5, ...

........................................................................
.............................. CYCLE   38 ..............................
........................................................................
   1   -212.4758330 -0.212476E+03  0.154E-03    0.00       0.0  T
   2   -212.4749705  0.862484E-03  0.548E-02    0.01       1.0  T
   3   -212.4758333 -0.862765E-03  0.109E-03    0.00       8.5  T
   4   -212.4758336 -0.276415E-06  0.429E-04    0.00      21.7  T
   5   -212.4758336 -0.415838E-07  0.193E-04    0.00      48.2  T
   6   -212.4758336 -0.773079E-08  0.775E-05    0.00     119.8  T
     SCC iter.                  ...        0 min,  0.323 sec
     gradient                   ...        0 min,  0.403 sec
 * total energy  :  -209.1308351 Eh     change       -0.1304113E-04 Eh
   gradient norm :     0.0007813 Eh/α   predicted    -0.5921457E-05 ( -54.59%)
   displ. norm   :     0.1038005 α      lambda       -0.8150263E-05
   maximum displ.:     0.0738295 α      in ANC's #14, #12, #5, ...

........................................................................
.............................. CYCLE   39 ..............................
........................................................................
   1   -212.4756038 -0.212476E+03  0.294E-03    0.00       0.0  T
   2   -212.4721963  0.340746E-02  0.109E-01    0.01       1.0  T
   3   -212.4756042 -0.340787E-02  0.262E-03    0.00       3.5  T
   4   -212.4756060 -0.176123E-05  0.793E-04    0.00      11.7  T
   5   -212.4756061 -0.107362E-06  0.554E-04    0.00      16.8  T
   6   -212.4756062 -0.713080E-07  0.216E-04    0.00      42.9  T
   7   -212.4756062 -0.127433E-07  0.233E-05    0.00     398.2  T
   8   -212.4756062 -0.148418E-09  0.336E-06    0.00    2766.0  T
     SCC iter.                  ...        0 min,  0.429 sec
     gradient                   ...        0 min,  0.405 sec
 * total energy  :  -209.1308447 Eh     change       -0.9679536E-05 Eh
   gradient norm :     0.0006406 Eh/α   predicted    -0.4097389E-05 ( -57.67%)
   displ. norm   :     0.1004747 α      lambda       -0.7183983E-05
   maximum displ.:     0.0700372 α      in ANC's #14, #5, #6, ...

........................................................................
.............................. CYCLE   40 ..............................
........................................................................
   1   -212.4755386 -0.212476E+03  0.907E-04    0.00       0.0  T
   2   -212.4752705  0.268124E-03  0.306E-02    0.00       1.0  T
   3   -212.4755382 -0.267711E-03  0.147E-03    0.00       6.3  T
   4   -212.4755387 -0.514370E-06  0.596E-04    0.00      15.6  T
   5   -212.4755388 -0.866621E-07  0.253E-04    0.00      36.7  T
   6   -212.4755388 -0.165336E-07  0.403E-05    0.00     230.3  T
   7   -212.4755388 -0.388496E-09  0.545E-06    0.00    1702.7  T
     SCC iter.                  ...        0 min,  0.379 sec
     gradient                   ...        0 min,  0.405 sec
 * total energy  :  -209.1308528 Eh     change       -0.8093120E-05 Eh
   gradient norm :     0.0005788 Eh/α   predicted    -0.3610279E-05 ( -55.39%)
   displ. norm   :     0.0885547 α      lambda       -0.5391714E-05
   maximum displ.:     0.0614250 α      in ANC's #14, #5, #6, ...

........................................................................
.............................. CYCLE   41 ..............................
........................................................................
   1   -212.4755468 -0.212476E+03  0.624E-04    0.00       0.0  T
   2   -212.4754272  0.119592E-03  0.204E-02    0.00       1.0  T
   3   -212.4755469 -0.119639E-03  0.405E-04    0.00      22.9  T
   4   -212.4755469 -0.398725E-07  0.132E-04    0.00      70.3  T
   5   -212.4755469 -0.637331E-08  0.650E-05    0.00     142.9  T
     SCC iter.                  ...        0 min,  0.275 sec
     gradient                   ...        0 min,  0.398 sec
 * total energy  :  -209.1308587 Eh     change       -0.5912721E-05 Eh
   gradient norm :     0.0005966 Eh/α   predicted    -0.2708376E-05 ( -54.19%)
   displ. norm   :     0.0689989 α      lambda       -0.4120363E-05
   maximum displ.:     0.0484504 α      in ANC's #14, #5, #6, ...

........................................................................
.............................. CYCLE   42 ..............................
........................................................................
   1   -212.4757931 -0.212476E+03  0.711E-04    0.00       0.0  T
   2   -212.4756155  0.177563E-03  0.249E-02    0.00       1.0  T
   3   -212.4757932 -0.177661E-03  0.335E-04    0.00      27.7  T
   4   -212.4757932 -0.172164E-07  0.207E-04    0.00      44.9  T
   5   -212.4757932 -0.921557E-08  0.110E-04    0.00      84.3  T
   6   -212.4757932 -0.308236E-08  0.158E-05    0.00     587.6  T
     SCC iter.                  ...        0 min,  0.325 sec
     gradient                   ...        0 min,  0.401 sec
 * total energy  :  -209.1308636 Eh     change       -0.4882265E-05 Eh
   gradient norm :     0.0005498 Eh/α   predicted    -0.2066336E-05 ( -57.68%)
   displ. norm   :     0.0736105 α      lambda       -0.4258293E-05
   maximum displ.:     0.0520089 α      in ANC's #14, #6, #5, ...

   *** GEOMETRY OPTIMIZATION CONVERGED AFTER 42 ITERATIONS ***

------------------------------------------------------------------------
 total energy gain   :        -0.3795712 Eh     -238.1845 kcal/mol
 total RMSD          :         0.7495943 a0        0.3967 Å
 total power (kW/mol):       -23.7277162 (step)  -22.4388 (real)
------------------------------------------------------------------------

 ANCopt (total)                0 d,  0 h,  0 min, 44.413 sec
 optimizer setup                ...        0 min,  0.000 sec (  0.001%)
 model hessian                  ...        0 min,  0.118 sec (  0.265%)
 ANC generation                 ...        0 min,  0.052 sec (  0.117%)
 coordinate transformation      ...        0 min,  0.006 sec (  0.014%)
 single point calculation       ...        0 min, 44.170 sec ( 99.455%)
 optimization log               ...        0 min,  0.029 sec (  0.064%)
 hessian update                 ...        0 min,  0.007 sec (  0.016%)
 rational function              ...        0 min,  0.022 sec (  0.050%)

================
 final structure:
================
116
 xtb: 6.5.1 (b24c23e)
Cu           9.79897583230538       -0.02836205505476       -0.00313872343472
C            6.39184934175069       -0.05776294513544       -0.00167090752652
C            7.02555773857396       -1.28593095859866        0.11284679834584
C            6.34989365748602       -2.54315292537362        0.26254023539953
C            7.30821912246151       -3.49710497470912        0.36328314695600
C            8.57914577151953       -2.83131711920294        0.26668050676660
N            8.37609617984240       -1.48949556166075        0.12098920350316
C            9.82440067457597       -3.45929012960657        0.34576863707641
C            9.83705502001301       -4.93349135387452        0.50767970877775
C           10.37722985644676       -5.52979503856913        1.64651765533653
C           10.36284835986720       -6.91108528916490        1.75797751383577
N            9.85802343056390       -7.70792619763465        0.82159815332983
C            9.34378166313669       -7.14778513872533       -0.26849143749035
C            9.30836479334647       -5.77669949203211       -0.46864369979577
C           11.05824031440312       -2.80844097937125        0.28989002697852
C           12.33486442631629       -3.46436941828695        0.32358774896100
C           13.28192851944964       -2.49730068350587        0.22688886126274
N           11.24822843414051       -1.45797149181525        0.16131675729274
C           12.59208459711798       -1.24635772679884        0.12593292802048
C           13.22927517817652        0.00041447809599       -0.00577712915719
C           12.57144078429877        1.23654871205861       -0.13449646028422
C           13.24034808986328        2.49194317520397       -0.30086586368937
C           12.27739482802422        3.44317750040365       -0.39818222923956
C           11.01191461045601        2.77475875616386       -0.28322345955331
N           11.22445928323476        1.42983421076820       -0.13282707665966
C            9.76666665363833        3.40330039884697       -0.34451017576227
C            9.75216937057493        4.87878626905212       -0.49231578671413
C            9.18717202365003        5.48867313365566       -1.61181896476970
C            9.19893694889987        6.87132594531068       -1.70679310534208
N            9.72385645354800        7.65723976855961       -0.77218738125864
C           10.26260773106285        7.08416025537476        0.29935099410049
C           10.30223878950576        5.71088540599404        0.48210288884509
C            8.53267110108817        2.75148579147997       -0.27885529828445
C            7.25074841651750        3.40283274715784       -0.29638174830069
C            6.30892329987880        2.43179863195833       -0.20353145648827
C            7.00575606557660        1.18011244053759       -0.11929609497226
N            8.35265212809085        1.40364058309846       -0.16111723966174
H            5.30679159652719       -0.06489131789084        0.01225192033391
H            5.27857864196081       -2.66502244649082        0.29237630228691
H            7.17386419241890       -4.55772393479011        0.50236698808940
H           10.78894407635636       -4.91863411527333        2.44079462636972
H           10.77369812917898       -7.39805063882786        2.63748020540671
H            8.94204912331128       -7.82505684905601       -1.01633835551130
H            8.88952674249178       -5.36530049200651       -1.37931076798565
H           12.48325930429274       -4.52940043553415        0.39762546269192
H           14.35401438407533       -2.61182377431256        0.21761012189540
H           14.31034163768979        2.61817431447556       -0.34305871606663
H           12.40828631894181        4.50261575689072       -0.54793957299861
H            8.75883735434203        4.88753616982855       -2.40512724823056
H            8.76864095622548        7.36859737503808       -2.57132686609679
H           10.68131055389460        7.75247982760657        1.04622530487246
H           10.74109625593209        5.28879148722980        1.37840489469270
H            7.09826036327259        4.46824440779179       -0.35885960443236
H            5.23581590170095        2.53934920618838       -0.18566420776129
Cu          28.40515300901218        0.02351009459592       -0.01051338391017
C           31.81228633769792        0.05381148508833       -0.01786868643746
C           31.17813938925548        1.26092505799442       -0.27051061188462
C           31.85320337225889        2.50653619443557       -0.49917852989758
C           30.89438076076551        3.44801864695273       -0.68040813528522
C           29.62374243747851        2.78333339503151       -0.57306499666329
N           29.82747686826285        1.45780107753796       -0.31934651410832
C           28.37820070174696        3.40721061338150       -0.67575055913283
C           28.36478492292768        4.86500829663403       -0.94883486107103
C           27.83237568141543        5.76653576869410       -0.02796486474868
C           27.84607018289266        7.12075515483743       -0.32212509062981
N           28.34279567698633        7.61107433631586       -1.45322235625317
C           28.84926843972411        6.75823362458323       -2.33785705545088
C           28.88502818452638        5.38802874092676       -2.13179961250819
C           27.14475016928775        2.76847965550198       -0.53592210020259
C           25.86781474153070        3.40636701260425       -0.68954850738106
C           24.92112965972624        2.45264244218006       -0.50054399827906
N           26.95531967177165        1.43848865763979       -0.26806391080329
C           25.61153106319621        1.22570360387772       -0.23798503529434
C           24.97487543586910       -0.00637650462590       -0.00464750758447
C           25.63335581802576       -1.22697019561776        0.22760564292052
C           24.96508331223595       -2.47776083916774        0.42771088039208
C           25.92844070271379       -3.41579603109855        0.61115655094354
C           27.19347505310307       -2.74125672609182        0.53302758531383
N           26.98034268688334       -1.41034124672177        0.28832745317311
C           28.43904742921047       -3.35888658445089        0.66212899694159
C           28.45451148516393       -4.81372618103930        0.94852092958360
C           29.02914334182373       -5.72027043748543        0.05820526167408
C           29.01804364613054       -7.07125024818587        0.36728838729293
N           28.48468582501009       -7.55434857177622        1.48483263533899
C           27.93666627381572       -6.69694461083391        2.34008836860118
C           27.89582717764381       -5.32960369469377        2.11739590347979
C           29.67265020537609       -2.71432819681590        0.54033389672504
C           30.95474053130958       -3.34040118152519        0.71970331614818
C           31.89608367604382       -2.38402473948340        0.52531918420272
C           31.19876447479841       -1.16386169068195        0.23495817506603
N           29.85201483249111       -1.39113398755128        0.25752821866578
H           32.89734111668268        0.06501221932071       -0.00674859206252
H           32.92450227992900        2.63173133457275       -0.50986739905059
H           31.02816269253278        4.50262120644912       -0.85992915587344
H           27.42703968381860        5.41240768779009        0.91240115325556
H           27.44107377532383        7.84240803421604        0.38127911797431
H           29.24498396187410        7.18908114262995       -3.25297871093799
H           29.29782471804415        4.72961695124086       -2.88690179154151
H           25.71898155814348        4.44750063084159       -0.92556822461332
H           23.84896095051479        2.55972945757221       -0.53983615408786
H           23.89524127195902       -2.61190549854057        0.42021345179587
H           25.79800527106249       -4.47366120520993        0.77197088750790
H           29.46447883473824       -5.37341752488890       -0.87148713044708
H           29.45609792371132       -7.79632285813623       -0.31255553117926
H           27.51107560313885       -7.12156753289582        3.24471330265771
H           27.44934657018130       -4.66735730926416        2.84965488916834
H           31.10763461334258       -4.37666265580398        0.97474241650129
H           32.96914249891032       -2.48026032184434        0.57750504427938
C           14.63498611757015        0.00871549860528       -0.01811894892455
C           15.85937512725072        0.00608104970323       -0.02581135684956
C           17.20238751057587        0.00308532442691       -0.02997379438366
C           18.43296931188048       -0.00495414497330       -0.02967413252820
C           19.77118849005243       -0.01173727533121       -0.02760958513283
C           21.00173986618449       -0.01697792175645       -0.02450100419186
C           22.34473912063289       -0.01846944706820       -0.01937070441146
C           23.56918993210885       -0.01888329859336       -0.01305812989390

 Bond Distances (Angstroems)
 ---------------------------
Cu1-N7=2.0433        Cu1-N18=2.0423       Cu1-N25=2.0433       Cu1-N37=2.0414       C2-C3=1.3868         C2-C36=1.3867        
C2-H38=1.0852        C3-C2=1.3868         C3-C4=1.4351         C3-N7=1.3658         C4-C3=1.4351         C4-C5=1.3559         
C4-H39=1.0786        C5-C4=1.3559         C5-C6=1.4380         C5-H40=1.0781        C6-C5=1.4380         C6-N7=1.3649         
C6-C8=1.3969         N7-Cu1=2.0433        N7-C3=1.3658         N7-C6=1.3649         C8-C6=1.3969         C8-C9=1.4831         
C8-C15=1.3961        C9-C8=1.4831         C9-C10=1.3944        C9-C14=1.3942        C10-C9=1.3944        C10-C11=1.3859       
C10-H41=1.0835       C11-C10=1.3859       C11-N12=1.3291       C11-H42=1.0860       N12-C11=1.3291       N12-C13=1.3291       
C13-N12=1.3291       C13-C14=1.3861       C13-H43=1.0860       C14-C9=1.3942        C14-C13=1.3861       C14-H44=1.0835       
C15-C8=1.3961        C15-C16=1.4357       C15-N18=1.3698       C16-C15=1.4357       C16-C17=1.3570       C16-H45=1.0779       
C17-C16=1.3570       C17-C19=1.4321       C17-H46=1.0782       N18-Cu1=2.0423       N18-C15=1.3698       N18-C19=1.3609       
C19-C17=1.4321       C19-N18=1.3609       C19-C20=1.4063       C20-C19=1.4063       C20-C21=1.4062       C20-C109=1.4058      
C21-C20=1.4062       C21-C22=1.4322       C21-N25=1.3608       C22-C21=1.4322       C22-C23=1.3571       C22-H47=1.0782       
C23-C22=1.3571       C23-C24=1.4358       C23-H48=1.0779       C24-C23=1.4358       C24-N25=1.3699       C24-C26=1.3962       
N25-Cu1=2.0433       N25-C21=1.3608       N25-C24=1.3699       C26-C24=1.3962       C26-C27=1.4829       C26-C33=1.3971       
C27-C26=1.4829       C27-C28=1.3944       C27-C32=1.3944       C28-C27=1.3944       C28-C29=1.3860       C28-H49=1.0836       
C29-C28=1.3860       C29-N30=1.3292       C29-H50=1.0862       N30-C29=1.3292       N30-C31=1.3292       C31-N30=1.3292       
C31-C32=1.3859       C31-H51=1.0862       C32-C27=1.3944       C32-C31=1.3859       C32-H52=1.0836       C33-C26=1.3971       
C33-C34=1.4380       C33-N37=1.3649       C34-C33=1.4380       C34-C35=1.3559       C34-H53=1.0781       C35-C34=1.3559       
C35-C36=1.4351       C35-H54=1.0786       C36-C2=1.3867        C36-C35=1.4351       C36-N37=1.3660       N37-Cu1=2.0414       
N37-C33=1.3649       N37-C36=1.3660       H38-C2=1.0852        H39-C4=1.0786        H40-C5=1.0781        H41-C10=1.0835       
H42-C11=1.0860       H43-C13=1.0860       H44-C14=1.0835       H45-C16=1.0779       H46-C17=1.0782       H47-C22=1.0782       
H48-C23=1.0779       H49-C28=1.0836       H50-C29=1.0862       H51-C31=1.0862       H52-C32=1.0836       H53-C34=1.0781       
H54-C35=1.0786       Cu55-N61=2.0434      Cu55-N72=2.0422      Cu55-N79=2.0434      Cu55-N91=2.0412      C56-C57=1.3868       
C56-C90=1.3867       C56-H92=1.0852       C57-C56=1.3868       C57-C58=1.4351       C57-N61=1.3658       C58-C57=1.4351       
C58-C59=1.3559       C58-H93=1.0786       C59-C58=1.3559       C59-C60=1.4380       C59-H94=1.0781       C60-C59=1.4380       
C60-N61=1.3649       C60-C62=1.3968       N61-Cu55=2.0434      N61-C57=1.3658       N61-C60=1.3649       C62-C60=1.3968       
C62-C63=1.4832       C62-C69=1.3960       C63-C62=1.4832       C63-C64=1.3944       C63-C68=1.3941       C64-C63=1.3944       
C64-C65=1.3859       C64-H95=1.0835       C65-C64=1.3859       C65-N66=1.3291       C65-H96=1.0861       N66-C65=1.3291       
N66-C67=1.3291       C67-N66=1.3291       C67-C68=1.3861       C67-H97=1.0861       C68-C63=1.3941       C68-C67=1.3861       
C68-H98=1.0836       C69-C62=1.3960       C69-C70=1.4356       C69-N72=1.3699       C70-C69=1.4356       C70-C71=1.3570       
C70-H99=1.0779       C71-C70=1.3570       C71-C73=1.4321       C71-H100=1.0782      N72-Cu55=2.0422      N72-C69=1.3699       
N72-C73=1.3609       C73-C71=1.4321       C73-N72=1.3609       C73-C74=1.4063       C74-C73=1.4063       C74-C75=1.4062       
C74-C116=1.4058      C75-C74=1.4062       C75-C76=1.4322       C75-N79=1.3608       C76-C75=1.4322       C76-C77=1.3571       
C76-H101=1.0782      C77-C76=1.3571       C77-C78=1.4358       C77-H102=1.0779      C78-C77=1.4358       C78-N79=1.3699       
C78-C80=1.3963       N79-Cu55=2.0434      N79-C75=1.3608       N79-C78=1.3699       C80-C78=1.3963       C80-C81=1.4828       
C80-C87=1.3972       C81-C80=1.4828       C81-C82=1.3945       C81-C86=1.3945       C82-C81=1.3945       C82-C83=1.3859       
C82-H103=1.0836      C83-C82=1.3859       C83-N84=1.3292       C83-H104=1.0862      N84-C83=1.3292       N84-C85=1.3293       
C85-N84=1.3293       C85-C86=1.3860       C85-H105=1.0862      C86-C81=1.3945       C86-C85=1.3860       C86-H106=1.0836      
C87-C80=1.3972       C87-C88=1.4380       C87-N91=1.3649       C88-C87=1.4380       C88-C89=1.3559       C88-H107=1.0781      
C89-C88=1.3559       C89-C90=1.4350       C89-H108=1.0786      C90-C56=1.3867       C90-C89=1.4350       C90-N91=1.3660       
N91-Cu55=2.0412      N91-C87=1.3649       N91-C90=1.3660       H92-C56=1.0852       H93-C58=1.0786       H94-C59=1.0781       
H95-C64=1.0835       H96-C65=1.0861       H97-C67=1.0861       H98-C68=1.0836       H99-C70=1.0779       H100-C71=1.0782      
H101-C76=1.0782      H102-C77=1.0779      H103-C82=1.0836      H104-C83=1.0862      H105-C85=1.0862      H106-C86=1.0836      
H107-C88=1.0781      H108-C89=1.0786      C109-C20=1.4058      C109-C110=1.2244     C110-C109=1.2244     C110-C111=1.3430     
C111-C110=1.3430     C111-C112=1.2306     C112-C111=1.2306     C112-C113=1.3382     C113-C112=1.3382     C113-C114=1.2306     
C114-C113=1.2306     C114-C115=1.3430     C115-C114=1.3430     C115-C116=1.2245     C116-C74=1.4058      C116-C115=1.2245     
 C  H  Rav=1.0817 sigma=0.0034  Rmin=1.0779  Rmax=1.0862    34
[...]

Wiberg/Mayer (AO) data.
largest (>0.10) Wiberg bond orders for each atom

 ---------------------------------------------------------------------------
     #   Z sym  total        # sym  WBO       # sym  WBO       # sym  WBO
 ---------------------------------------------------------------------------
     1  29 Cu   2.183 --    37 N    0.505     7 N    0.504    18 N    0.502
                            25 N    0.502
     2   6 C    3.930 --    36 C    1.362     3 C    1.362    38 H    0.971
     3   6 C    3.916 --     2 C    1.362     7 N    1.229     4 C    1.170
     4   6 C    3.955 --     5 C    1.657     3 C    1.170    39 H    0.975
     5   6 C    3.958 --     4 C    1.657     6 C    1.171    40 H    0.973
     6   6 C    3.914 --     8 C    1.319     7 N    1.240     5 C    1.171
     7   7 N    3.243 --     6 C    1.240     3 C    1.229     1 Cu   0.504
     8   6 C    3.935 --    15 C    1.327     6 C    1.319     9 C    1.027
     9   6 C    3.986 --    14 C    1.393    10 C    1.393     8 C    1.027
                            12 N    0.107
    10   6 C    3.987 --    11 C    1.442     9 C    1.393    41 H    0.973
                            13 C    0.109
    11   6 C    3.972 --    10 C    1.442    12 N    1.415    42 H    0.972
                            14 C    0.108
    12   7 N    3.030 --    13 C    1.416    11 C    1.415     9 C    0.107
    13   6 C    3.972 --    14 C    1.442    12 N    1.416    43 H    0.972
                            10 C    0.109
    14   6 C    3.987 --    13 C    1.442     9 C    1.393    44 H    0.973
                            11 C    0.108
    15   6 C    3.908 --     8 C    1.327    18 N    1.222    16 C    1.178
    16   6 C    3.954 --    17 C    1.643    15 C    1.178    45 H    0.973
    17   6 C    3.956 --    16 C    1.643    19 C    1.186    46 H    0.974
    18   7 N    3.248 --    19 C    1.257    15 C    1.222     1 Cu   0.502
    19   6 C    3.896 --    20 C    1.259    18 N    1.257    17 C    1.186
    20   6 C    3.940 --    21 C    1.259    19 C    1.259   109 C    1.189
    21   6 C    3.896 --    20 C    1.259    25 N    1.257    22 C    1.186
    22   6 C    3.956 --    23 C    1.643    21 C    1.186    47 H    0.974
    23   6 C    3.954 --    22 C    1.643    24 C    1.178    48 H    0.973
    24   6 C    3.908 --    26 C    1.326    25 N    1.222    23 C    1.178
    25   7 N    3.248 --    21 C    1.257    24 C    1.222     1 Cu   0.502
    26   6 C    3.935 --    24 C    1.326    33 C    1.318    27 C    1.028
    27   6 C    3.986 --    32 C    1.393    28 C    1.393    26 C    1.028
                            30 N    0.107
    28   6 C    3.987 --    29 C    1.442    27 C    1.393    49 H    0.973
                            31 C    0.108
    29   6 C    3.972 --    28 C    1.442    30 N    1.415    50 H    0.972
                            32 C    0.108
    30   7 N    3.030 --    29 C    1.415    31 C    1.415    27 C    0.107
    31   6 C    3.972 --    32 C    1.442    30 N    1.415    51 H    0.972
                            28 C    0.108
    32   6 C    3.987 --    31 C    1.442    27 C    1.393    52 H    0.973
                            29 C    0.108
    33   6 C    3.914 --    26 C    1.318    37 N    1.240    34 C    1.172
    34   6 C    3.958 --    35 C    1.656    33 C    1.172    53 H    0.973
    35   6 C    3.955 --    34 C    1.656    36 C    1.170    54 H    0.975
    36   6 C    3.916 --     2 C    1.362    37 N    1.229    35 C    1.170
    37   7 N    3.244 --    33 C    1.240    36 C    1.229     1 Cu   0.505
    38   1 H    1.001 --     2 C    0.971
    39   1 H    0.998 --     4 C    0.975
    40   1 H    1.004 --     5 C    0.973
    41   1 H    1.004 --    10 C    0.973
    42   1 H    1.013 --    11 C    0.972
    43   1 H    1.013 --    13 C    0.972
    44   1 H    1.004 --    14 C    0.973
    45   1 H    1.004 --    16 C    0.973
    46   1 H    1.002 --    17 C    0.974
    47   1 H    1.002 --    22 C    0.974
    48   1 H    1.004 --    23 C    0.973
    49   1 H    1.004 --    28 C    0.973
    50   1 H    1.013 --    29 C    0.972
    51   1 H    1.013 --    31 C    0.972
    52   1 H    1.004 --    32 C    0.973
    53   1 H    1.004 --    34 C    0.973
    54   1 H    0.998 --    35 C    0.975
    55  29 Cu   2.183 --    91 N    0.505    61 N    0.504    72 N    0.502
                            79 N    0.502
    56   6 C    3.930 --    90 C    1.362    57 C    1.362    92 H    0.971
    57   6 C    3.916 --    56 C    1.362    61 N    1.229    58 C    1.170
    58   6 C    3.955 --    59 C    1.657    57 C    1.170    93 H    0.975
    59   6 C    3.958 --    58 C    1.657    60 C    1.171    94 H    0.973
    60   6 C    3.914 --    62 C    1.319    61 N    1.240    59 C    1.171
    61   7 N    3.243 --    60 C    1.240    57 C    1.229    55 Cu   0.504
    62   6 C    3.935 --    69 C    1.327    60 C    1.319    63 C    1.027
    63   6 C    3.986 --    68 C    1.394    64 C    1.393    62 C    1.027
                            66 N    0.107
    64   6 C    3.987 --    65 C    1.442    63 C    1.393    95 H    0.973
                            67 C    0.109
    65   6 C    3.972 --    64 C    1.442    66 N    1.415    96 H    0.972
                            68 C    0.108
    66   7 N    3.030 --    67 C    1.416    65 C    1.415    63 C    0.107
    67   6 C    3.972 --    68 C    1.442    66 N    1.416    97 H    0.972
                            64 C    0.109
    68   6 C    3.987 --    67 C    1.442    63 C    1.394    98 H    0.973
                            65 C    0.108
    69   6 C    3.908 --    62 C    1.327    72 N    1.222    70 C    1.178
    70   6 C    3.954 --    71 C    1.643    69 C    1.178    99 H    0.973
    71   6 C    3.956 --    70 C    1.643    73 C    1.186   100 H    0.974
    72   7 N    3.248 --    73 C    1.257    69 C    1.222    55 Cu   0.502
    73   6 C    3.896 --    74 C    1.258    72 N    1.257    71 C    1.186
    74   6 C    3.940 --    75 C    1.259    73 C    1.258   116 C    1.189
    75   6 C    3.896 --    74 C    1.259    79 N    1.257    76 C    1.186
    76   6 C    3.956 --    77 C    1.643    75 C    1.186   101 H    0.974
    77   6 C    3.954 --    76 C    1.643    78 C    1.178   102 H    0.973
    78   6 C    3.908 --    80 C    1.326    79 N    1.222    77 C    1.178
    79   7 N    3.248 --    75 C    1.257    78 C    1.222    55 Cu   0.502
    80   6 C    3.935 --    78 C    1.326    87 C    1.318    81 C    1.028
    81   6 C    3.986 --    86 C    1.393    82 C    1.392    80 C    1.028
                            84 N    0.107
    82   6 C    3.987 --    83 C    1.442    81 C    1.392   103 H    0.973
                            85 C    0.108
    83   6 C    3.972 --    82 C    1.442    84 N    1.415   104 H    0.972
                            86 C    0.108
    84   7 N    3.030 --    83 C    1.415    85 C    1.415    81 C    0.107
    85   6 C    3.972 --    86 C    1.442    84 N    1.415   105 H    0.972
                            82 C    0.108
    86   6 C    3.987 --    85 C    1.442    81 C    1.393   106 H    0.973
                            83 C    0.108
    87   6 C    3.914 --    80 C    1.318    91 N    1.240    88 C    1.172
    88   6 C    3.958 --    89 C    1.656    87 C    1.172   107 H    0.973
    89   6 C    3.955 --    88 C    1.656    90 C    1.170   108 H    0.975
    90   6 C    3.916 --    56 C    1.362    91 N    1.229    89 C    1.170
    91   7 N    3.244 --    87 C    1.240    90 C    1.229    55 Cu   0.505
    92   1 H    1.001 --    56 C    0.971
    93   1 H    0.998 --    58 C    0.975
    94   1 H    1.004 --    59 C    0.973
    95   1 H    1.004 --    64 C    0.973
    96   1 H    1.013 --    65 C    0.972
    97   1 H    1.013 --    67 C    0.972
    98   1 H    1.004 --    68 C    0.973
    99   1 H    1.004 --    70 C    0.973
   100   1 H    1.002 --    71 C    0.974
   101   1 H    1.002 --    76 C    0.974
   102   1 H    1.004 --    77 C    0.973
   103   1 H    1.004 --    82 C    0.973
   104   1 H    1.013 --    83 C    0.972
   105   1 H    1.013 --    85 C    0.972
   106   1 H    1.004 --    86 C    0.973
   107   1 H    1.004 --    88 C    0.973
   108   1 H    0.998 --    89 C    0.975
   109   6 C    3.878 --   110 C    2.442    20 C    1.189   112 C    0.187
   110   6 C    3.936 --   109 C    2.442   111 C    1.342
   111   6 C    3.894 --   112 C    2.339   110 C    1.342   114 C    0.183
   112   6 C    3.927 --   111 C    2.339   113 C    1.368   109 C    0.187
   113   6 C    3.927 --   114 C    2.339   112 C    1.368   116 C    0.187
   114   6 C    3.894 --   113 C    2.339   115 C    1.343   111 C    0.183
   115   6 C    3.936 --   116 C    2.442   114 C    1.343
   116   6 C    3.878 --   115 C    2.442    74 C    1.189   113 C    0.187
 ---------------------------------------------------------------------------

Topologies differ in total number of bonds
Writing topology from bond orders to xtbtopo.mol

 dipole moment from electron density (au)
     X       Y       Z   
   0.0016   0.0014  -0.0045  total (Debye):    0.013

           -------------------------------------------------
          |                Geometry Summary                 |
           -------------------------------------------------

      molecular mass/u    :     1146.1725451
   center of mass at/Å    :       19.1021182      -0.0019522      -0.0027791
  moments of inertia/u·Å² :        0.1698684E+05   0.9601094E+05   0.1124024E+06
rotational constants/cm⁻¹ :        0.9923934E-03   0.1755803E-03   0.1499757E-03

 * 118 selected distances

     #   Z          #   Z                                           value/Å
     2   6 C        3   6 C                                       1.3867580
     3   6 C        4   6 C                                       1.4351089
     4   6 C        5   6 C                                       1.3559357
     5   6 C        6   6 C                                       1.4380057
     3   6 C        7   7 N                                       1.3658182
     6   6 C        7   7 N                                       1.3648958
     6   6 C        8   6 C                                       1.3968769
     9   6 C       10   6 C                                       1.3943885
    10   6 C       11   6 C                                       1.3858547
    11   6 C       12   7 N                                       1.3291389
    12   7 N       13   6 C                                       1.3290968
     9   6 C       14   6 C                                       1.3941740
    13   6 C       14   6 C                                       1.3860705
     8   6 C       15   6 C                                       1.3960973
    15   6 C       16   6 C                                       1.4356696
    16   6 C       17   6 C                                       1.3570200
    15   6 C       18   7 N                                       1.3698156
    17   6 C       19   6 C                                       1.4321087
    18   7 N       19   6 C                                       1.3608755
    19   6 C       20   6 C                                       1.4063430
    20   6 C       21   6 C                                       1.4061803
    21   6 C       22   6 C                                       1.4321772
    22   6 C       23   6 C                                       1.3570544
    23   6 C       24   6 C                                       1.4357715
    21   6 C       25   7 N                                       1.3607798
    24   6 C       25   7 N                                       1.3698966
    24   6 C       26   6 C                                       1.3962319
    27   6 C       28   6 C                                       1.3944432
    28   6 C       29   6 C                                       1.3859609
    29   6 C       30   7 N                                       1.3291686
    30   7 N       31   6 C                                       1.3292358
    27   6 C       32   6 C                                       1.3944380
    31   6 C       32   6 C                                       1.3859484
    26   6 C       33   6 C                                       1.3971107
    33   6 C       34   6 C                                       1.4380147
    34   6 C       35   6 C                                       1.3559363
     2   6 C       36   6 C                                       1.3867419
    35   6 C       36   6 C                                       1.4350576
    33   6 C       37   7 N                                       1.3649015
    36   6 C       37   7 N                                       1.3659587
     2   6 C       38   1 H                                       1.0851706
     4   6 C       39   1 H                                       1.0786373
     5   6 C       40   1 H                                       1.0781041
    10   6 C       41   1 H                                       1.0834678
    11   6 C       42   1 H                                       1.0860285
    13   6 C       43   1 H                                       1.0859840
    14   6 C       44   1 H                                       1.0835078
    16   6 C       45   1 H                                       1.0778654 (min)
    17   6 C       46   1 H                                       1.0782254
    22   6 C       47   1 H                                       1.0782397
    23   6 C       48   1 H                                       1.0779469
    28   6 C       49   1 H                                       1.0835933
    29   6 C       50   1 H                                       1.0862101
    31   6 C       51   1 H                                       1.0861789
    32   6 C       52   1 H                                       1.0835666
    34   6 C       53   1 H                                       1.0780808
    35   6 C       54   1 H                                       1.0786316
    56   6 C       57   6 C                                       1.3867566
    57   6 C       58   6 C                                       1.4351125
    58   6 C       59   6 C                                       1.3559405
    59   6 C       60   6 C                                       1.4380025
    57   6 C       61   7 N                                       1.3658092
    60   6 C       61   7 N                                       1.3648872
    60   6 C       62   6 C                                       1.3968327
    63   6 C       64   6 C                                       1.3943505
    64   6 C       65   6 C                                       1.3858673
    65   6 C       66   7 N                                       1.3291089
    66   7 N       67   6 C                                       1.3290714
    63   6 C       68   6 C                                       1.3941339
    67   6 C       68   6 C                                       1.3860737
    62   6 C       69   6 C                                       1.3960408
    69   6 C       70   6 C                                       1.4356413
    70   6 C       71   6 C                                       1.3570285
    69   6 C       72   7 N                                       1.3698570
    71   6 C       73   6 C                                       1.4321210
    72   7 N       73   6 C                                       1.3608638
    73   6 C       74   6 C                                       1.4063423
    74   6 C       75   6 C                                       1.4061960
    75   6 C       76   6 C                                       1.4321689
    76   6 C       77   6 C                                       1.3570631
    77   6 C       78   6 C                                       1.4357645
    75   6 C       79   7 N                                       1.3607667
    78   6 C       79   7 N                                       1.3699051
    78   6 C       80   6 C                                       1.3962753
    81   6 C       82   6 C                                       1.3945202
    82   6 C       83   6 C                                       1.3859302
    83   6 C       84   7 N                                       1.3291953
    84   7 N       85   6 C                                       1.3292591
    81   6 C       86   6 C                                       1.3944629
    85   6 C       86   6 C                                       1.3859586
    80   6 C       87   6 C                                       1.3971635
    87   6 C       88   6 C                                       1.4380183 (max)
    88   6 C       89   6 C                                       1.3559382
    56   6 C       90   6 C                                       1.3867440
    89   6 C       90   6 C                                       1.4350477
    87   6 C       91   7 N                                       1.3649154
    90   6 C       91   7 N                                       1.3659784
    56   6 C       92   1 H                                       1.0851697
    58   6 C       93   1 H                                       1.0786425
    59   6 C       94   1 H                                       1.0781058
    64   6 C       95   1 H                                       1.0835093
    65   6 C       96   1 H                                       1.0860859
    67   6 C       97   1 H                                       1.0861253
    68   6 C       98   1 H                                       1.0835528
    70   6 C       99   1 H                                       1.0778757
    71   6 C      100   1 H                                       1.0782196
    76   6 C      101   1 H                                       1.0782454
    77   6 C      102   1 H                                       1.0779395
    82   6 C      103   1 H                                       1.0835830
    83   6 C      104   1 H                                       1.0861905
    85   6 C      105   1 H                                       1.0861761
    86   6 C      106   1 H                                       1.0835676
    88   6 C      107   1 H                                       1.0780814
    89   6 C      108   1 H                                       1.0786288
   109   6 C      110   6 C                                       1.2244161
   111   6 C      112   6 C                                       1.2306082
   113   6 C      114   6 C                                       1.2305666
   115   6 C      116   6 C                                       1.2244673

 * 3 distinct bonds (by element types)

   Z      Z             #   av. dist./Å        max./Å        min./Å
   1 H    6 C          34     1.0817393     1.0862101     1.0778654
   6 C    6 C          60     1.3885505     1.4380183     1.2244161
   6 C    7 N          24     1.3533000     1.3699051     1.3290714


optimized geometry written to: xtbopt.xyz


           -------------------------------------------------
          | TOTAL ENERGY             -209.130863619385 Eh   |
          | GRADIENT NORM               0.000549824540 Eh/α |
          | HOMO-LUMO GAP               0.000031799028 eV   |
           -------------------------------------------------

------------------------------------------------------------------------
 * finished run on 2022/07/30 at 05:01:13.366     
------------------------------------------------------------------------
 total:
 * wall-time:     0 d,  0 h,  0 min, 47.317 sec
 *  cpu-time:     0 d,  0 h,  0 min, 46.869 sec
 * ratio c/w:     0.991 speedup
 SCF:
 * wall-time:     0 d,  0 h,  0 min,  1.936 sec
 *  cpu-time:     0 d,  0 h,  0 min,  1.918 sec
 * ratio c/w:     0.991 speedup
 ANC optimizer:
 * wall-time:     0 d,  0 h,  0 min, 45.189 sec
 *  cpu-time:     0 d,  0 h,  0 min, 44.771 sec
 * ratio c/w:     0.991 speedup

