116
 energy: -208.751292407979 gnorm: 1.046602832074 xtb: 6.5.1 (b24c23e)
Cu           9.94158500000000        0.00785800000000        0.00013300000000
C            6.57555000000000       -0.10629400000000       -0.03180400000000
C            7.23848900000000       -1.26472000000000        0.02574900000000
C            6.58685300000000       -2.56765000000000        0.08456100000000
C            7.52671100000000       -3.48802200000000        0.19148700000000
C            8.83287300000000       -2.81524800000000        0.20543900000000
N            8.65671400000000       -1.40233400000000        0.09550400000000
C           10.02176800000000       -3.43317900000000        0.35898100000000
C           10.05754400000000       -4.90437200000000        0.50932500000000
C           10.26281700000000       -5.48083200000000        1.76986300000000
C           10.29148600000000       -6.87213400000000        1.89086200000000
N           10.11882400000000       -7.65596200000000        0.79313700000000
C            9.91688400000000       -7.12101100000000       -0.44061900000000
C            9.88354500000000       -5.73434100000000       -0.60638700000000
C           11.31601000000000       -2.70242900000000        0.39887100000000
C           12.60602600000000       -3.34012200000000        0.68833500000000
C           13.54065500000000       -2.41588000000000        0.60455600000000
N           11.45786700000000       -1.43826800000000        0.13972200000000
C           12.85702900000000       -1.17815000000000        0.25158000000000
C           13.45341600000000       -0.00098100000000       -0.00068600000000
C           12.69555200000000        1.21488500000000       -0.37398600000000
C           13.23884600000000        2.28833700000000       -0.93384900000000
C           12.19617400000000        3.28791000000000       -1.05194400000000
C           11.08451900000000        2.76113900000000       -0.55291500000000
N           11.30926900000000        1.42408300000000       -0.10245000000000
C            9.79941200000000        3.49439300000000       -0.41600600000000
C            9.82226000000000        4.97703400000000       -0.46320100000000
C            9.16054700000000        5.67096600000000       -1.48674700000000
C            9.20475700000000        7.06687300000000       -1.50953600000000
N            9.89139200000000        7.74405900000000       -0.55078400000000
C           10.55059400000000        7.09617600000000        0.44575000000000
C           10.53169300000000        5.70084100000000        0.50620700000000
C            8.63252100000000        2.84561400000000       -0.23868600000000
C            7.32031500000000        3.46191000000000       -0.04882200000000
C            6.45807400000000        2.46837900000000        0.04498500000000
C            7.21046600000000        1.22043200000000       -0.07039200000000
N            8.47882900000000        1.42760100000000       -0.23587700000000
H            5.49240000000000       -0.13427600000000       -0.03199900000000
H            5.52246800000000       -2.76218700000000        0.05941200000000
H            7.33817500000000       -4.55100400000000        0.26908100000000
H           10.39921800000000       -4.85942100000000        2.64630700000000
H           10.45030000000000       -7.32927900000000        2.85832200000000
H            9.78171200000000       -7.77257300000000       -1.29354600000000
H            9.72211000000000       -5.31135000000000       -1.59011800000000
H           12.78412100000000       -4.38084400000000        0.92307300000000
H           14.59841300000000       -2.57900500000000        0.75859400000000
H           14.27202500000000        2.41344200000000       -1.22750600000000
H           12.31415900000000        4.28702300000000       -1.44972000000000
H            8.61990400000000        5.13629300000000       -2.25701800000000
H            8.69409800000000        7.61233800000000       -2.29185900000000
H           11.08885100000000        7.66442700000000        1.19289000000000
H           11.05718700000000        5.18974100000000        1.30344200000000
H            7.07579000000000        4.51425000000000        0.01200500000000
H            5.39095400000000        2.57288900000000        0.19123000000000
Cu          28.25699400000000       -0.00920000000000        0.00266700000000
C           31.62302800000000        0.09073600000000       -0.06107800000000
C           30.96009000000000        1.21585500000000       -0.34280600000000
C           31.61172500000000        2.47960100000000       -0.66534300000000
C           30.67186700000000        3.39130400000000       -0.83062000000000
C           29.36570500000000        2.75164700000000       -0.62167100000000
N           29.54186400000000        1.36780400000000       -0.31607400000000
C           28.17681000000000        3.38752600000000       -0.65441700000000
C           28.14103400000000        4.83887900000000       -0.93829400000000
C           27.93576200000000        5.75692100000000        0.10019600000000
C           27.90709200000000        7.12330200000000       -0.18853300000000
N           28.07975400000000        7.55412400000000       -1.46672600000000
C           28.28169400000000        6.68358500000000       -2.49165900000000
C           28.31503300000000        5.30862000000000       -2.24711200000000
C           26.88256800000000        2.69993900000000       -0.40379500000000
C           25.59255200000000        3.39424300000000       -0.31223500000000
C           24.65792300000000        2.48556900000000       -0.12368500000000
N           26.74071100000000        1.41504200000000       -0.28421300000000
C           25.34154900000000        1.19868100000000       -0.10156200000000
C           24.74516200000000       -0.00098100000000       -0.00068600000000
C           25.50302600000000       -1.27285700000000       -0.00436600000000
C           24.95973200000000       -2.46271200000000       -0.22795400000000
C           26.00240400000000       -3.45344200000000       -0.05033700000000
C           27.11405900000000       -2.80433900000000        0.27398500000000
N           26.88930900000000       -1.39407400000000        0.31626300000000
C           28.39916600000000       -3.46611500000000        0.61816200000000
C           28.37631800000000       -4.89843300000000        1.00406200000000
C           29.03803100000000       -5.85997100000000        0.22648000000000
C           28.99382100000000       -7.20220500000000        0.61051500000000
N           28.30718600000000       -7.57139500000000        1.72473400000000
C           27.64798400000000       -6.66177100000000        2.48985900000000
C           27.66688500000000       -5.30913300000000        2.14203100000000
C           29.56605700000000       -2.79380800000000        0.59920000000000
C           30.87826400000000       -3.32828200000000        0.96004200000000
C           31.74050400000000       -2.35039500000000        0.76094200000000
C           30.98811300000000       -1.18990000000000        0.28772700000000
N           29.71974900000000       -1.43623100000000        0.18962100000000
H           32.70617800000000        0.11745200000000       -0.06940000000000
H           32.67611100000000        2.65842300000000       -0.74596400000000
H           30.86040300000000        4.43092800000000       -1.06542300000000
H           27.79936000000000        5.41716500000000        1.11944700000000
H           27.74827800000000        7.84197500000000        0.60422900000000
H           28.41686700000000        7.05902600000000       -3.49717500000000
H           28.47646800000000        4.61789500000000       -3.06537200000000
H           25.41445700000000        4.45825600000000       -0.39021100000000
H           23.60016600000000        2.68643100000000       -0.02372700000000
H           23.92655299999999       -2.66778900000000       -0.47255400000000
H           25.88442000000000       -4.52504400000000       -0.14045300000000
H           29.57867500000000       -5.57233800000000       -0.66596600000000
H           29.50448000000000       -7.95155700000000        0.02057100000000
H           27.10972700000000       -6.98825600000000        3.36993600000000
H           27.14139100000000       -4.58832600000000        2.75623400000000
H           31.12278800000000       -4.31748000000000        1.32419300000000
H           32.80762400000000       -2.40787200000000        0.93125400000000
C           14.60480900000000        0.01324500000000        0.00926500000000
C           16.06303500000000       -0.00859200000000       -0.00860900000000
C           17.19696400000000       -0.02934600000000       -0.01010000000000
C           18.55834500000000       -0.04193500000000       -0.01229100000000
C           19.83256400000000       -0.03162900000000       -0.01705600000000
C           21.02102600000000       -0.01283100000000       -0.02321200000000
C           22.37338700000000        0.01195400000000       -0.00734400000000
C           23.47365500000000        0.01324500000000        0.00926500000000
116
 energy: -209.009766973099 gnorm: 0.397020613180 xtb: 6.5.1 (b24c23e)
Cu           9.94455378573872        0.00597841966082       -0.00392427558199
C            6.57578678133559       -0.08876833185411       -0.03262179752016
C            7.24419213012981       -1.26608567988721        0.02535800110052
C            6.58659917789059       -2.56036809769875        0.08420262750093
C            7.53721437427341       -3.49013026770106        0.19104116528388
C            8.83108772247642       -2.81064551305335        0.20362679954689
N            8.63771811721358       -1.41877189394477        0.10181064825815
C           10.03566101355774       -3.43035739019534        0.36023996549391
C           10.06098915527248       -4.90468534013536        0.50981740849566
C           10.26352184163448       -5.48353502877990        1.76513591491886
C           10.28884321888373       -6.86998080943386        1.87479188340839
N           10.11876696326453       -7.65535201350924        0.79305296216564
C            9.91909406759994       -7.11515784818816       -0.42518697215848
C            9.88365532750334       -5.73532461939848       -0.60060479715064
C           11.30643700274303       -2.72823591142694        0.40207787061064
C           12.58694175570283       -3.35553767100442        0.68693116705456
C           13.53222475282836       -2.40707228257386        0.60274546713496
N           11.46125652977804       -1.44059301066887        0.14516131548858
C           12.82810508507709       -1.19940120417216        0.25818391665724
C           13.41269990141893        0.01333994511003       -0.00503508615091
C           12.66700843216163        1.21861135961212       -0.36981942459812
C           13.23655855119009        2.30923108819768       -0.94036674403140
C           12.21427571451945        3.29305083915850       -1.05409819839550
C           11.07311777646808        2.75589914390589       -0.54329144093664
N           11.30707965490420        1.43134890612815       -0.10820557068889
C            9.81192630904900        3.48632679643628       -0.41530293694219
C            9.82909235318135        4.97256255492329       -0.46613347841547
C            9.16300916760082        5.67109619698337       -1.48098153346688
C            9.21368625041050        7.06207224867190       -1.49585995345702
N            9.89128758472383        7.74309744509969       -0.55097797375995
C           10.54089761705110        7.09110204575490        0.43287611333515
C           10.53007764562138        5.70128038671472        0.50115722629334
C            8.63194227910391        2.84406243076120       -0.23741100446663
C            7.32788242735831        3.46041115226080       -0.04991113187890
C            6.44885462552970        2.45648635637036        0.04548725411607
C            7.19153392913473        1.21121049638095       -0.06996837618801
N            8.47931807765654        1.43661333063056       -0.23402637470588
H            5.49272071954064       -0.12829694470017       -0.03139918787326
H            5.52284209095868       -2.75383420510816        0.05838443064256
H            7.34849719488478       -4.55168550597519        0.26921922238755
H           10.39886456549748       -4.86062614797719        2.64392179692590
H           10.44851448915515       -7.33207812819388        2.84808101298868
H            9.78353350462958       -7.77291121949133       -1.28289884739485
H            9.72282615952953       -5.31175429128623       -1.58731345455970
H           12.77528371716059       -4.38761611262038        0.92368170718359
H           14.59384087054524       -2.56659965942471        0.75586882300420
H           14.27123575345110        2.41659481928949       -1.22910905649224
H           12.31951521051394        4.28822033602683       -1.45222128264149
H            8.62145372167603        5.13671866973339       -2.25499074280057
H            8.70033882891703        7.61357027397371       -2.28298380709538
H           11.08267249480738        7.66542069432484        1.18386399416215
H           11.05604967564933        5.19023800608001        1.30131236928530
H            7.08532709904357        4.51296100676535        0.01081049487817
H            5.38693922384476        2.56573672767445        0.19148130215712
Cu          28.25469302599354       -0.00868188516239       -0.00066746002984
C           31.62256511809442        0.07432785754372       -0.05677156402431
C           30.95466554995327        1.21709499287572       -0.34328057012353
C           31.61220573328693        2.47302015099082       -0.66375114443210
C           30.66203231553206        3.39343146479139       -0.83116012776270
C           29.36758196889544        2.74616409013062       -0.62162241380188
N           29.56098567293621        1.38588484844189       -0.31763331718244
C           28.16289804663007        3.38498544719727       -0.65273400663287
C           28.13746440402841        4.83939921372547       -0.93801497831709
C           27.93501620073688        5.75814246604233        0.09487255571083
C           27.90973381107464        7.11660720457980       -0.20328048675942
N           28.07978460685372        7.55348879470729       -1.46662059506245
C           28.27951781693140        6.68251754847554       -2.47521490054570
C           28.31492754299565        5.31129638885311       -2.24190180662321
C           26.89311552281407        2.72346417013969       -0.40797943968963
C           25.60826039358516        3.40747312901195       -0.31657566383912
C           24.66509796328533        2.47786312852327       -0.12369383797617
N           26.74161773646662        1.42132967043459       -0.27982728047173
C           25.37224803376494        1.21344118285526       -0.10141070695543
C           24.81555059069843       -0.01318140919328       -0.00170259038407
C           25.53133969978943       -1.27005457820524        0.00123751942930
C           24.96099277448292       -2.48479005942814       -0.22685129502322
C           25.98233221812219       -3.45829168201433       -0.05145923350195
C           27.12552806455108       -2.79558429788377        0.28176266732185
N           26.89229044831913       -1.40355939426444        0.31180861765532
C           28.38595596022312       -3.45792021162548        0.61651544217791
C           28.36934258181292       -4.89500261110465        0.99987280370254
C           29.03554830272974       -5.85838779922231        0.23202034337386
C           28.98488723279087       -7.19363358485197        0.62220390381147
N           28.30729182417601       -7.57049124740455        1.72426153464305
C           27.65769557063942       -6.66066989563517        2.47606880234240
C           27.66850242668752       -5.31099648046006        2.13731383394963
C           29.56693896191842       -2.79195129993789        0.59997141715013
C           30.87082933139360       -3.32744146869292        0.95838581075882
C           31.74993529706150       -2.33904195819326        0.75805762148527
C           31.00707937177082       -1.18154426126932        0.28553078006592
N           29.72010194076717       -1.44501387991400        0.19523888263513
H           32.70576985072606        0.11201237220871       -0.06724787199816
H           32.67588570862281        2.65034484150572       -0.74449253289927
H           30.85023847844270        4.43173476476847       -1.06547837063511
H           27.79973322630689        5.41762492919174        1.11681795912034
H           27.75006961955754        7.84168681231727        0.59361941958190
H           28.41504403691714        7.06246591015439       -3.48709524252622
H           28.47575311720358        4.61910788019335       -3.06280661024829
H           25.42247330142285        4.46451920243251       -0.39162783616101
H           23.60425689398826        2.67486545795315       -0.02275057929097
H           23.92717711966808       -2.67179131985736       -0.47337125397718
H           25.87861523559598       -4.52669642481993       -0.14263107705143
H           29.57711864766765       -5.57214786563607       -0.66390779347274
H           29.49823795147782       -7.95014807388290        0.02942476000961
H           27.11590657541675       -6.99182905967986        3.36157938989657
H           27.14253752041941       -4.58941477426128        2.75434481835038
H           31.11328283889360       -4.31670646092451        1.32268397243124
H           32.81176545516082       -2.40103021692256        0.92941231333588
C           14.70019642367494        0.02949819226097        0.00536730624363
C           15.99974230446499       -0.00482504190023       -0.00800227921021
C           17.24686225616091       -0.02984419909865       -0.00914984997406
C           18.52655703328212       -0.04296376247452       -0.01263245708103
C           19.79552672839772       -0.03164884910825       -0.01736739843637
C           21.01486787581473       -0.01008069014466       -0.02390334388179
C           22.30119068322652        0.00608963739967       -0.00747195074224
C           23.50829163590495       -0.00419455475793        0.01384098041447
116
 energy: -209.084300808625 gnorm: 0.168399280202 xtb: 6.5.1 (b24c23e)
Cu           9.94810135703460        0.00364565277200       -0.00677700542654
C            6.57756139776372       -0.07069338455628       -0.03264483610934
C            7.24716432841839       -1.26853917448198        0.02662420158470
C            6.58761007477175       -2.55352607884543        0.08399400204868
C            7.54830306012279       -3.49083115687795        0.19048984246169
C            8.82688468137484       -2.80480091748178        0.20232868591148
N            8.61224211720782       -1.44214333086880        0.10404167496791
C           10.05199838287740       -3.42336948196667        0.36096165124120
C           10.06600645898767       -4.90111183797226        0.51014402202777
C           10.26571271217363       -5.48536283472228        1.75902935973838
C           10.28587419068577       -6.86860463433484        1.85625745590506
N           10.11885050222269       -7.65756552872971        0.79330411259978
C            9.92116036819739       -7.10872293753042       -0.40673144459767
C            9.88400991035263       -5.73445411838327       -0.59296267101714
C           11.29711999265812       -2.75258922495428        0.40598987575252
C           12.57037796420824       -3.36996850788827        0.68506812226519
C           13.51871418155009       -2.40298261718903        0.60035867650520
N           11.47199163810825       -1.44212297516512        0.15825001190960
C           12.81576220080808       -1.20186264547002        0.26105645540535
C           13.39858168829469        0.03161128360308       -0.01294764703183
C           12.65429981955122        1.21799972805209       -0.35889720351604
C           13.23695571822741        2.33833409563882       -0.94226644570436
C           12.24153950617341        3.29934269775399       -1.04956857922901
C           11.06911442534930        2.75097911004724       -0.53019627975663
N           11.31448391711848        1.43955556158980       -0.12509220876873
C            9.83296062923995        3.46963755166634       -0.41347356973308
C            9.84374707594013        4.95944893304423       -0.47316870955047
C            9.16854011466142        5.66608938481059       -1.47366392334594
C            9.22375347381592        7.05384542577155       -1.47869357377065
N            9.89131522802628        7.74254790600277       -0.55125829667097
C           10.52933792436687        7.08371389181351        0.41768047775584
C           10.53090934452663        5.69773537265058        0.49271315069366
C            8.62990633269089        2.83613148908591       -0.23286034237369
C            7.33516982803962        3.45240468869333       -0.05162282447731
C            6.43860895566059        2.44491507632408        0.04401908963132
C            7.16872452119567        1.20394273188720       -0.06977028763587
N            8.47501637064654        1.44869884434004       -0.22825988816850
H            5.49410819166302       -0.11876661890211       -0.02911528132388
H            5.52389062726115       -2.73907595980724        0.05639665060503
H            7.36877825086464       -4.55261494375360        0.26900497455010
H           10.39887584897997       -4.86374380841980        2.63946893085487
H           10.44485385111177       -7.33781090340344        2.82872417228723
H            9.78678507835068       -7.77315889075043       -1.26246402418451
H            9.72427994742621       -5.31280019262131       -1.58121418678810
H           12.76069791298637       -4.40029252895810        0.92341590940186
H           14.58123976601422       -2.54987987308087        0.75203437745963
H           14.27060296739507        2.42622828593994       -1.23421664608957
H           12.32965883874856        4.29150128997705       -1.45660389763251
H            8.62503262252430        5.13641937526734       -2.25038790153488
H            8.71201262363854        7.61334617338049       -2.26509652799614
H           11.07009004257201        7.66599792756524        1.16684859571330
H           11.05519505569048        5.19084964296846        1.29686390421391
H            7.10398372367979        4.50708615296556        0.00863763375534
H            5.37849389319166        2.55449665032000        0.19117052579936
Cu          28.25349897044386       -0.00712839417366       -0.00477658882120
C           31.62106630053666        0.05675509252759       -0.05180089945693
C           30.95203804633216        1.21970723731472       -0.34345075998173
C           31.61173211351425        2.46636316832200       -0.66188251828443
C           30.65171993269220        3.39423899905310       -0.83221386937938
C           29.37291128880581        2.74124409489865       -0.62183228916942
N           29.58697608990220        1.40972702574242       -0.32063409471136
C           28.14983518229046        3.38195107292709       -0.65051886544848
C           28.13398607269370        4.83778296487853       -0.93685526911293
C           27.93308800394597        5.75882313070252        0.08854604995228
C           27.91261728146593        7.11037835438540       -0.22061623789323
N           28.07969420508931        7.55607369796876       -1.46710067792275
C           28.27739128140454        6.68221597465313       -2.45592343437881
C           28.31483228927562        5.31337671667228       -2.23469705558601
C           26.90711068642216        2.75485040472679       -0.41222599673328
C           25.62827589885156        3.42405272231989       -0.32369846904345
C           24.68442277052515        2.47367630405644       -0.12435882880366
N           26.74218566799679        1.43386524267188       -0.26959628835670
C           25.40191287857988        1.22732593616191       -0.09919230932390
C           24.85952922450716       -0.03557077408926       -0.00424278982545
C           25.55940233210411       -1.27444006909803        0.00887515334097
C           24.96587610356460       -2.51413598530426       -0.22021601657322
C           25.95746299508531       -3.46509852852981       -0.04456643733531
C           27.13290374636376       -2.79144324636456        0.29273128087472
N           26.89527093941291       -1.42201986816490        0.29902013172116
C           28.36717779056225       -3.44342725894071        0.61360720934025
C           28.35551837770181       -4.88541073049177        0.98975214987656
C           29.03028879287578       -5.85199307417708        0.23757080362434
C           28.97488765011096       -7.18111440312681        0.63625218055778
N           28.30723533501403       -7.57026660449265        1.72387181574756
C           27.66921394227372       -6.65822305511297        2.45944868492050
C           27.66777222185279       -5.31035830716051        2.12830780296747
C           29.56961989944669       -2.78363771355007        0.60218144280077
C           30.86406933969664       -3.32036470222470        0.95454266727883
C           31.76044250277354       -2.32832464347745        0.75330349301973
C           31.03010083767011       -1.17433670218577        0.28368642293240
N           29.72436539728040       -1.45504549450033        0.20409282654065
H           32.70454478323419        0.10336746788944       -0.06214683306861
H           32.67535492605189        2.63546098268011       -0.74202452836608
H           30.83042612910086        4.43289785467689       -1.06598953108656
H           27.79980801073986        5.41950271327776        1.11155200486439
H           27.75366365329464        7.84185967100929        0.57349472497747
H           28.41177389819993        7.06897836646240       -3.46782566494882
H           28.47438350209817        4.62212126868855       -3.05733153410817
H           25.43751848552481        4.47856576888598       -0.39580154648475
H           23.62032367287224        2.65426963937861       -0.02143714734779
H           23.93071030152237       -2.67960846314589       -0.47465230773504
H           25.86850029908738       -4.53227964156766       -0.14551684698184
H           29.57362676352666       -5.57072920340147       -0.65960437042617
H           29.48659518582518       -7.94498515692601        0.04644740248938
H           27.12844099911204       -6.99742892172082        3.34553520336190
H           27.14347998871569       -4.59138014106556        2.75019640708235
H           31.09503683784719       -4.31185515420719        1.31895116438955
H           32.82046501886424       -2.39033124632771        0.92581764645353
C           14.75644843668855        0.04946676158318       -0.00490690084747
C           15.93636451878887        0.00237153239355       -0.00892938299812
C           17.24273188372997       -0.02771636074985       -0.00698235000723
C           18.46235664029793       -0.04261438314926       -0.01343846565990
C           19.76349278731889       -0.03044349163465       -0.01722427040035
C           20.99909661722610       -0.00566552403609       -0.02441256052896
C           22.29056962557087       -0.00713527156851       -0.00771803400831
C           23.50787201054931       -0.03770846905872        0.01943796141869
116
 energy: -209.107500624002 gnorm: 0.095412663943 xtb: 6.5.1 (b24c23e)
Cu           9.93992200405980        0.00228896460100       -0.01075561662585
C            6.57334334200020       -0.06179028672993       -0.03092252007422
C            7.24098108768165       -1.27323601116759        0.02817659590401
C            6.58336938843919       -2.55184792012791        0.08310839023901
C            7.54984698520721       -3.49370939229423        0.18925148146740
C            8.81500037102028       -2.80565086815241        0.20196327415527
N            8.58993277218451       -1.45992458375485        0.10613710425976
C           10.04899736476665       -3.42618415989927        0.36363260348063
C           10.06400416452366       -4.90196690552105        0.51216112022088
C           10.26755998204089       -5.48967614781529        1.75572868846797
C           10.28473524295088       -6.87172305160691        1.84504804852086
N           10.11897040241672       -7.66459119913731        0.79414727930003
C            9.92223818052673       -7.10753491506459       -0.39414233893225
C            9.88314656556444       -5.73606652382572       -0.58647883204224
C           11.27485155113796       -2.77555860746303        0.41442498891982
C           12.54951750406234       -3.38062705562295        0.68218150439640
C           13.48536810927891       -2.39369453387830        0.59511946620369
N           11.44246750357713       -1.45140349738676        0.17501314886350
C           12.76580377054109       -1.19561750517356        0.26763757718399
C           13.32144781574070        0.05399253651442       -0.02003158599549
C           12.61564512018805        1.22770084688536       -0.36041252374992
C           13.22832435069461        2.36707255906504       -0.93662977657868
C           12.26000837128798        3.31986830194896       -1.03954021109940
C           11.06250782831482        2.76152500684750       -0.52559643470937
N           11.29367344584719        1.45799796655053       -0.14640767045362
C            9.84332764385901        3.45742889261373       -0.41254518068439
C            9.85735390244204        4.94515674419647       -0.48082786895775
C            9.17569023807250        5.65681334337231       -1.46982125517544
C            9.23051357894271        7.04315578854005       -1.46704339058040
N            9.89093962035459        7.74001161825754       -0.55126182031132
C           10.52339388685779        7.07477889621763        0.40657456754394
C           10.53709122180255        5.69024158040746        0.48266211617424