120
 energy: -209.031960523471 gnorm: 3.161052185284 xtb: 6.5.1 (b24c23e)
Zn          15.74816200000000        0.02992600000000       -0.00380300000000
C           12.41787700000000       -0.12080500000000       -0.15360000000000
C           13.08399900000000       -1.27786700000000       -0.12042300000000
C           12.43490900000000       -2.58315500000000       -0.10908500000000
C           13.37464400000000       -3.50347400000000       -0.00585900000000
C           14.67921900000000       -2.82833100000000        0.04685600000000
N           14.50143200000000       -1.41330900000000       -0.02887200000000
C           15.86790700000000       -3.44873200000000        0.19457400000000
C           15.90288100000000       -4.92380600000000        0.30757400000000
C           15.71026300000000       -5.72494800000000       -0.82845800000000
C           15.73601800000000       -7.11827000000000       -0.71775000000000
C           15.95877700000000       -7.72123600000000        0.52813000000000
O           15.98457300000000       -9.10830200000000        0.65076900000000
C           16.15607800000000       -6.92369600000000        1.66079700000000
C           16.12688500000000       -5.53008300000000        1.55309300000000
C           17.16333200000000       -2.72010200000000        0.25771000000000
C           18.45732200000000       -3.37559000000000        0.48474100000000
C           19.39244300000000       -2.44932500000000        0.44151500000000
N           17.30282700000000       -1.44169600000000        0.07515400000000
C           18.70531000000000       -1.19069900000000        0.17912500000000
C           19.30207400000000        0.00023400000000        0.00006600000000
C           18.54688700000000        1.24556100000000       -0.27696100000000
C           19.10340700000000        2.37259000000000       -0.70153000000000
C           18.05905100000000        3.37476600000000       -0.76455400000000
C           16.93091600000000        2.79644100000000       -0.37246600000000
N           17.14747900000000        1.42142600000000       -0.04700500000000
C           15.63326700000000        3.50781400000000       -0.23901500000000
C           15.64252400000000        4.98927000000000       -0.18885400000000
C           16.25752500000000        5.65132400000000        0.88567700000000
C           16.27530600000000        7.04798000000000        0.93523700000000
C           15.68815900000000        7.79463300000000       -0.09034600000000
O           15.70779800000000        9.18536500000000       -0.02397900000000
C           15.08711700000000        7.13767300000000       -1.17409000000000
C           15.06564300000000        5.74126200000000       -1.22409700000000
C           14.46465800000000        2.84473900000000       -0.15295200000000
C           13.14212700000000        3.44648200000000        0.00860000000000
C           12.28257000000000        2.44666400000000        0.02007400000000
C           13.04639100000000        1.20879200000000       -0.12033200000000
N           14.31974100000000        1.42781000000000       -0.22263100000000
H           11.33471800000000       -0.15325500000000       -0.17997800000000
H           11.37151500000000       -2.77940500000000       -0.15822800000000
H           13.18671500000000       -4.56830600000000        0.04181100000000
H           15.53716600000000       -5.26944100000000       -1.79598800000000
H           15.58247900000000       -7.72778700000000       -1.59928300000000
H           15.83871600000000       -9.71314200000000       -0.14969900000000
H           16.33010600000000       -7.38463200000000        2.62519200000000
H           16.27890400000000       -4.92349100000000        2.43761500000000
H           18.63782200000000       -4.42948500000000        0.65165500000000
H           20.45312300000000       -2.62367500000000        0.56709300000000
H           20.14642300000000        2.53342500000000       -0.93764900000000
H           18.18604600000000        4.40753100000000       -1.06059600000000
H           16.71367400000000        5.08513400000000        1.68768200000000
H           16.74105500000000        7.55060000000000        1.77438500000000
H           15.28444600000000        9.75477500000000       -0.74835500000000
H           14.63820900000000        7.70799900000000       -1.97702700000000
H           14.60267800000000        5.24508400000000       -2.06944200000000
H           12.88963300000000        4.49401100000000        0.10564300000000
H           11.20959400000000        2.54028600000000        0.12596900000000
Zn          28.83645600000000       -0.02970600000000        0.00049700000000
C           32.16674100000000        0.09797300000000       -0.16937600000000
C           31.50061900000000        1.24782400000000       -0.30255100000000
C           32.14970900000000        2.54123400000000       -0.47860600000000
C           31.20997400000000        3.46684200000000       -0.50849100000000
C           29.90539900000000        2.80624700000000       -0.35945500000000
N           30.08318600000000        1.39500000000000       -0.23138000000000
C           28.71671100000000        3.44142400000000       -0.30227800000000
C           28.68173700000000        4.91744900000000       -0.40208200000000
C           28.87435500000000        5.54731000000000       -1.64130400000000
C           28.84860000000000        6.94210100000000       -1.73164800000000
C           28.62584100000000        7.71758100000000       -0.58516800000000
O           28.60004500000000        9.10789200000000       -0.66280600000000
C           28.42854000000000        7.09080200000000        0.65020800000000
C           28.45773399999999        5.69615400000000        0.74356500000000
C           27.42128599999999        2.72939000000000       -0.13525400000000
C           26.12729600000000        3.41066900000000       -0.00461900000000
C           25.19217500000000        2.48778500000000        0.08549900000000
N           27.28179100000000        1.43801900000000       -0.13250300000000
C           25.87930800000000        1.20453500000000        0.00640400000000
C           25.28254400000000        0.00023400000000        0.00006600000000
C           26.03773100000000       -1.27195600000000       -0.09542200000000
C           25.48121200000000       -2.44824000000000       -0.35389900000000
C           26.52556700000000       -3.44909000000000       -0.27248300000000
C           27.65370200000000       -2.82049300000000        0.03257300000000
N           27.43713899999999       -1.41300900000000        0.15738700000000
C           28.95135200000000       -3.50535900000000        0.26670700000000
C           28.94209400000000       -4.96429200000000        0.52890100000000
C           28.32709300000000       -5.46532800000000        1.68730200000000
C           28.30931200000000       -6.84042300000000        1.93673400000000
C           28.89645900000000       -7.72649700000000        1.02888800000000
O           28.87682000000000       -9.09331800000000        1.29410300000000
C           29.49750100000000       -7.23182300000000       -0.13790200000000
C           29.51897500000000       -5.85703400000000       -0.38774000000000
C           30.11996000000000       -2.83679700000000        0.25674500000000
C           31.44249100000000       -3.40913500000000        0.50296000000000
C           32.30204800000000       -2.41801500000000        0.37086800000000
C           31.53822700000000       -1.21309500000000        0.05431100000000
N           30.26487700000000       -1.44452500000000       -0.01550600000000
H           33.24990000000000        0.12630300000000       -0.20013700000000
H           33.21310300000000        2.72840300000000       -0.55539800000000
H           31.39790300000000        4.52749700000000       -0.61409000000000
H           29.04745200000000        4.95770000000000       -2.53347000000000
H           29.00213900000000        7.41883500000000       -2.69151100000000
H           28.74590200000000        9.59162700000000       -1.54177200000000
H           28.25451200000000        7.68533400000000        1.53849200000000
H           28.30571400000000        5.22274400000000        1.70596700000000
H           25.94679600000000        4.47760900000000        0.00936100000000
H           24.13149500000000        2.67834900000000        0.18476300000000
H           24.43819500000000       -2.64128700000000       -0.56449900000000
H           26.39857200000000       -4.51364300000000       -0.41728700000000
H           27.87094400000000       -4.78992800000000        2.39977600000000
H           27.84356300000000       -7.21744700000000        2.83931300000000
H           29.30017200000000       -9.76076700000000        0.65891700000000
H           29.94640900000000       -7.91145000000000       -0.85070300000000
H           29.98194000000000       -5.48727500000000       -1.29552900000000
H           31.69498500000000       -4.43190300000000        0.74929400000000
H           33.37502400000000       -2.49547500000000        0.48910000000000
C           21.55681800000000        0.01240500000000        0.00243300000000
C           20.30454700000000       -0.00677600000000       -0.00191600000000
C           22.87048600000000        0.01163900000000        0.00436500000000
C           24.37361900000000       -0.00677600000000       -0.00191600000000
120
 energy: -209.857617275400 gnorm: 0.533142231635 xtb: 6.5.1 (b24c23e)
Zn          15.75076744568192        0.02987980306776       -0.00416768496363
C           12.41820819672327       -0.11155370963031       -0.15352115713784
C           13.08869555799935       -1.28040329697355       -0.12000416587366
C           12.43357132062921       -2.57966672296725       -0.10934041732435
C           13.37945843651053       -3.50519009330312       -0.00541448863770
C           14.67648989866691       -2.82408681070144        0.04632310376529
N           14.49138678563287       -1.42324217720316       -0.02923870050905
C           15.87669572210633       -3.44675373811985        0.19499680421054
C           15.90376373345423       -4.92507303536069        0.30772569346191
C           15.71030425280013       -5.72635670966407       -0.82627932573329
C           15.73613691526892       -7.11731344559386       -0.71681314167645
C           15.95831168519732       -7.72426398369815        0.52554470992098
O           15.98427223238128       -9.10813914765595        0.64927601110039
C           16.15577567070481       -6.92425660495792        1.65937237868213
C           16.12693723725887       -5.53252877581587        1.55106734070453
C           17.15854254212997       -2.73267798206553        0.25889765999803
C           18.44953783563123       -3.38183329834182        0.48479631182634
C           19.39223505468156       -2.44287989577788        0.44068233877473
N           17.30628510738888       -1.44142880253315        0.07707338365698
C           18.67839988019238       -1.20861269033626        0.18168028004286
C           19.19823002382000        0.00769320996652       -0.00201104210168
C           18.52382329119694        1.24727408560644       -0.27500987864048
C           19.10331033340460        2.38346728502963       -0.70432287190538
C           18.07028816991983        3.37634691285114       -0.76634396610083
C           16.92220669583555        2.79182822694543       -0.36817580599694
N           17.14908950819478        1.42747775822672       -0.04980011825131
C           15.63966778947287        3.50463836026281       -0.23911611296351
C           15.64428908362700        4.98935626083377       -0.18950958026011
C           16.25678011755218        5.65343233519492        0.88371115094421
C           16.27445281918218        7.04823740969841        0.93415042586072
C           15.68668921837259        7.79769173835949       -0.09284280452505
O           15.70697855401381        9.18504474773428       -0.02541052989876
C           15.08756311545787        7.13673258160581       -1.17315880338014
C           15.06620068272342        5.74254627955987       -1.22214816413722
C           14.46263551361222        2.84389256722544       -0.15270454633044
C           13.14642731038349        3.44781286074472        0.00816568058601
C           12.27830194729103        2.44115161679987        0.01995321472232
C           13.03680847434147        1.20373979354986       -0.12028017833276
N           14.32037261537808        1.43421495717751       -0.22185637639245
H           11.33483840735063       -0.15213329705071       -0.17988892147167
H           11.37148997286625       -2.77743941511424       -0.15840326837094
H           13.18907181349794       -4.56846988926621        0.04190529352287
H           15.53733118302714       -5.26943776638006       -1.79542850921599
H           15.58254026191558       -7.72789909142186       -1.59914586993175
H           15.83958942567709       -9.70488754224300       -0.14502428664670
H           16.33001401730048       -7.38489496804602        2.62487239220140
H           16.27877217535486       -4.92375984856333        2.43699498635680
H           18.63599909666636       -4.43046889683902        0.65157612975152
H           20.45267507015690       -2.62073452521218        0.56665926543888
H           20.14640905840943        2.53373175831883       -0.93794898273833
H           18.18717144949299        4.40755098719759       -1.06092554198381
H           16.71344806907194        5.08527257218199        1.68719406162497
H           16.74088506189925        7.55076998773724        1.77403100565660
H           15.28710760591711        9.74677510879990       -0.74398293129365
H           14.63827536717503        7.70813067213810       -1.97693047935510
H           14.60301500251543        5.24514122556431       -2.06890352003304
H           12.89183321209721        4.49400513158840        0.10544988455558
H           11.20898122336410        2.53864413008713        0.12587844750376
Zn          28.83416504136970       -0.02955914024013        0.00010645357863
C           32.16646612749440        0.08868429101354       -0.16795627318848
C           31.49580539111401        1.25043224011712       -0.30249742039018
C           32.15102443704382        2.53772969313638       -0.47835746144509
C           31.20511870516604        3.46861324232777       -0.50829850506783
C           29.90799778903838        2.80231670761507       -0.35938819709385
N           30.09331415737062        1.40453609491437       -0.23316245055246
C           28.70830989906117        3.43961026857618       -0.30157307569933
C           28.68086023221747        4.91871073291750       -0.40211842458570
C           28.87431068019552        5.54901447668313       -1.63934787799619
C           28.84848181353474        6.94129001299099       -1.73058190913443
C           28.62630557427044        7.72019426271782       -0.58816107265428
O           28.60034619951125        9.10753343307876       -0.66425993392211
C           28.42884478798941        7.09114885483354        0.64871714341994
C           28.45767817216117        5.69827988017212        0.74120647482625
C           27.42562619490177        2.74281435722555       -0.13581276094270
C           26.13585053316779        3.41703649218768       -0.00556179941216
C           25.19252325491896        2.48015830260345        0.08555499490598
N           27.27918370761268        1.43842458354019       -0.13093192674301
C           25.91257563892776        1.22693566299387        0.00654165126482
C           25.42872245057144       -0.00599792797485       -0.00088601836760
C           26.06674081262649       -1.27674015531133       -0.09394649339568
C           25.48129902155862       -2.45878889054568       -0.35499411330441
C           26.51472848392097       -3.45093261520659       -0.27399808476367
C           27.66208313812106       -2.81554497926306        0.03605899295794
N           27.43650095498631       -1.41992781402409        0.15584473061514
C           28.94539247040734       -3.50228469374808        0.26619169678026
C           28.94032300706587       -4.96447383106917        0.52828216994319
C           28.32783416315853       -5.46770586897894        1.68566376227959
C           28.31016118729595       -6.84083619313192        1.93569755294753
C           28.89793279575177       -7.72988396654591        1.02685538736222
O           28.87763501542801       -9.09320604234830        1.29263875113111
C           29.49705651370998       -7.23075866750154       -0.13711291847130
C           29.51841108939164       -5.85802560968542       -0.38562820877566
C           30.12179510642000       -2.83608294919394        0.25684259630952
C           31.43829691471878       -3.41051387734208        0.50272805649921
C           32.30628423684032       -2.41267909814519        0.36997197722704
C           31.54779235431922       -1.20793659901316        0.05360345884108
N           30.26416576590132       -1.45061597495686       -0.01382430095473
H           33.24978588619333        0.12519320731178       -0.19988059041886
H           33.21312495847554        2.72642639723740       -0.55528733638517
H           31.39555006966377        4.52767471099264       -0.61402079679553
H           29.04728764325711        4.95777685107936       -2.53291571352691
H           29.00207836913296        7.41896736258808       -2.69139198437742
H           28.74502808637220        9.58412586019998       -1.53596233699026
H           28.25460445880073        7.68554889529033        1.53813829538598
H           28.30584458123982        5.22292186651281        1.70531472081502
H           25.94862641035738        4.47853959434072        0.00915385389870
H           24.13191507700707        2.67501302362528        0.18475760549467
H           24.43814406221420       -2.64133741339039       -0.56471660984516
H           26.39742335543991       -4.51366632068377       -0.41760527952951
H           27.87116992181350       -4.79013709529574        2.39931699716052
H           27.84373349398737       -7.21766737421794        2.83898887072893
H           29.29751224005951       -9.75222297248346        0.66209715465984
H           29.94634346683655       -7.91156603019473       -0.85058760502362
H           29.98160368986699       -5.48725311199072       -1.29498597186851
H           31.69279519139136       -4.43193013994279        0.74910519518757
H           33.37563085332758       -2.49387272913920        0.48877585552727
C           21.59933967339843        0.01415965922632        0.00271786100993
C           20.41079533698410       -0.00059380867767       -0.00229602355210
C           22.86842457462566        0.01030795533633        0.00437317939919
C           24.16927353171853       -0.01587128636085       -0.00049374773951
120
 energy: -209.963052803530 gnorm: 0.285580355053 xtb: 6.5.1 (b24c23e)
Zn          15.75047925816956        0.02399332907446       -0.00873381917469
C           12.41739953518746       -0.09395500140143       -0.15314287006555
C           13.08962609214005       -1.28059260429494       -0.11933290163851
C           12.43415321813635       -2.57306973295731       -0.10940742521286
C           13.38961808604659       -3.50704199179358       -0.00483201676891
C           14.67459942412431       -2.82389956583280        0.04602692124134
N           14.46662591119719       -1.44791541870281       -0.03056365619199
C           15.88769133204505       -3.45058445586021        0.19638664817736
C           15.90839757663244       -4.93162997266996        0.30781780481372
C           15.70979252768966       -5.73153952434161       -0.82058478536364
C           15.73549945719187       -7.11846978050532       -0.71597062000328
C           15.95709777444665       -7.72932418402683        0.51997273080020
O           15.98547253357597       -9.09984003805201        0.65648710731265
C           16.15452683766454       -6.93067772380301        1.65308257901603
C           16.12894873895572       -5.54340043557901        1.54451195283845
C           17.14360633613001       -2.76775230679687        0.26247844536189
C           18.43102941321062       -3.40201542688603        0.48459540795980
C           19.37375545302405       -2.44105437662967        0.43836698551444
N           17.29692634594511       -1.46222591026064        0.08794765815316
C           18.64430794075124       -1.22240196902854        0.18620513874247
C           19.15611172866622        0.02712400415207       -0.00613623030323
C           18.48873923947927        1.25581028574030       -0.26950347323474
C           19.09718522606646        2.41133161114819       -0.70588513338784
C           18.09092891836941        3.38598456839541       -0.76468515541240
C           16.91299231920824        2.79385615964266       -0.35877899343816
N           17.13780965093733        1.44724625369235       -0.06164410046916
C           15.65386738476376        3.49735021874933       -0.23721188262572
C           15.65721295917302        4.98749175760185       -0.19565830544757
C           16.25718513800470        5.66036287439014        0.87532755928040
C           16.26976815525940        7.05162114979311        0.92846979958805
C           15.68327564024322        7.80132807032877       -0.09813752194873
O           15.71066528239112        9.17591143915734       -0.01946709139506
C           15.08707589894294        7.13553854420943       -1.17158654291736
C           15.06866698794765        5.74430271345588       -1.21649948775662
C           14.46016002990890        2.84261026966799       -0.15004337545284
C           13.15116303311640        3.44338614677756        0.00628101832895
C           12.26548794265486        2.43088378620245        0.01831820107582
C           13.01349425755888        1.19828814650844       -0.12062429443045
N           14.31197676369252        1.44768747096040       -0.21399735667683
H           11.33467231295889       -0.14175316183854       -0.17865974062742
H           11.37175541445742       -2.76369890054617       -0.15967827981881
H           13.20679407570901       -4.57038252159890        0.04254865201335
H           15.53874092662864       -5.27085952030242       -1.78949104352831
H           15.58266936007260       -7.72870895174948       -1.59900617821275
H           15.84184216547398       -9.66455327954006       -0.13353880355444
H           16.32870636950176       -7.38912777916654        2.62025371621678
H           16.27786418233755       -4.93055935355988        2.43037558387590
H           18.62334982367753       -4.44567427422331        0.65232296478953
H           20.43906532401375       -2.60127058040243        0.56325649670555
H           20.14289009771083        2.54044920708888       -0.94091608859956
H           18.19876358541073        4.41328307702401       -1.06503566610991
H           16.71134106812817        5.09026659328087        1.68134413275277
H           16.73784323392760        7.55301194765898        1.76914678152656
H           15.29451430511613        9.70687665809429       -0.73276534400284
H           14.63823917730999        7.70759952094980       -1.97626261493132
H           14.60608355623054        5.24593118978994       -2.06369593303891
H           12.90741610706392        4.49176302821424        0.10380296875537
H           11.19907267897309        2.52805598744014        0.12519517330398
Zn          28.83189696662110       -0.02435330991318       -0.00547949253445
C           32.16714452721432        0.07139200875287       -0.16506661679461
C           31.49466241664077        1.25057695306867       -0.30182744648141
C           32.15019727559390        2.53111127801898       -0.47744765544314
C           31.19459066722743        3.47033976840209       -0.50793108948182
C           29.90938154064048        2.80145675087334       -0.35960098092994
N           30.11759870648150        1.42834659102919       -0.23792331081861
C           28.69583254712082        3.44233178414086       -0.30073269659482
C           28.67590271843167        4.92465855136257       -0.40294432655686
C           28.87477702986254        5.55476066819428       -1.63436524896171
C           28.84911320751851        6.94242781520074       -1.72986809797204
C           28.62751730623933        7.72434356048520       -0.59440375881415
O           28.59915125205878        9.10029455168525       -0.65593512865656
C           28.43010386110806        7.09648173989574        0.64153891021517
C           28.45563962956754        5.70790832387618        0.73311417066568
C           27.43800130501412        2.77569802450732       -0.13727946752702
C           26.15242598443649        3.43696259765938       -0.00846356363241
C           25.20598498932835        2.48219321637876        0.08413567234851
N           27.27788665537502        1.45815682475914       -0.12240135811780
C           25.92427549979486        1.23901545998080        0.00746250960046
C           25.42045338503235       -0.02739332836502       -0.00274235296498
C           26.08543937924000       -1.28200082555277       -0.08548953549208
C           25.48348665240144       -2.48901306845395       -0.35274862248909
C           26.49295979153760       -3.45991438543367       -0.27089130031037
C           27.67008208811697       -2.81470202460980        0.04579473094835
N           27.44040556507981       -1.43934277053024        0.14478550558433
C           28.93021119199285       -3.49413243146308        0.26707251813087
C           28.92722689727716       -4.96322750264774        0.52186314695516
C           28.32742512451853       -5.47568822383797        1.67833466181137
C           28.31485630795216       -6.84495393899956        1.93053476907703
C           28.90133885062002       -7.73420970734837        1.02212386605555
O           28.87396023083621       -9.08329383746246        1.29720568609967
C           29.49752210669191       -7.22927387016507       -0.13572820149393
C           29.51589386052839       -5.85882199829221       -0.37976165694065
C           30.12402147900939       -2.83403340802801        0.25930904014356
C           31.43327706307866       -3.40628985275507        0.50017717627043
C           32.31895651596032       -2.40262763598651        0.36683325970970
C           31.57090228132278       -1.20255141779566        0.05249474415562
N           30.27223145294189       -1.46251178422557       -0.00403389994942
H           33.24987683840193        0.11514610102398       -0.19718497938057
H           33.21265875958738        2.71263663784437       -0.55457188916484
H           31.37761695402776        4.52951740949391       -0.61363851114434
H           29.04586184678846        4.95998592133417       -2.52723742373534
H           29.00194903687775        7.41970838174672       -2.69132892174752
H           28.74277545782079        9.54583887169591       -1.51880184429404
H           28.25592789027434        7.68900351813410        1.53292595594896
H           28.30673907895621        5.22866185257080        1.69780344929531
H           25.96179649404261        4.49407140397252        0.00768862530910
H           24.14249389440171        2.65958078040734        0.18457653685017
H           24.43946859600555       -2.65186766023504       -0.56742826172218
H           26.38618986384765       -4.51985902372232       -0.42082553991634
H           27.87326311041201       -4.79590543807392        2.39425653095684
H           27.84678613828462       -7.22056404416664        2.83445570458631
H           29.29010314271265       -9.71111781158597        0.66747086109852
H           29.94637025595740       -7.91089492115475       -0.84999577853312
H           29.97851775580771       -5.48724888642639       -1.28971311821238
H           31.67705202809542       -4.42986753566108        0.74711212433457
H           33.38542792094518       -2.48344543694672        0.48654860833291
C           21.65637143590875        0.02377198003301        0.00388700992491
C           20.43465096533034        0.02095836364086       -0.00983581760181
C           22.96476483223667        0.00150769612687        0.00496197986695
C           24.12897627951234       -0.03750657329614        0.00074244373027
120
 energy: -210.019136867828 gnorm: 0.117797437406 xtb: 6.5.1 (b24c23e)
Zn          15.74841131239132        0.01715135649859       -0.01418026263189
C           12.41646188910682       -0.07608929092850       -0.15227287214982
C           13.08814754027030       -1.28461207384720       -0.11927220040397
C           12.43247048442032       -2.56785462308844       -0.10941326578870
C           13.39704117091006       -3.51037801028919       -0.00472716207447
C           14.66647474542841       -2.82636350569731        0.04482139050652
N           14.43697377058790       -1.47726705423767       -0.03176199339381
C           15.89400475944258       -3.45914772759868        0.19832086649501
C           15.90866925359358       -4.94163865891400        0.30829036059293
C           15.70839191701599       -5.73902334680597       -0.81556004276918
C           15.73469252823983       -7.12222182229546       -0.71593373732516
C           15.95603775046120       -7.73469669001473        0.51529278878996
O           15.98763157553492       -9.08907917169488        0.66844470060781
C           16.15380348316319       -6.93847208125299        1.64727949476873
C           16.13076581705526       -5.55664239474747        1.53852185047441
C           17.12156936298676       -2.81168266491068        0.26865195567122
C           18.40817835221910       -3.42442591708796        0.48346921196282
C           19.34258139952277       -2.43603637513780        0.43560323230942
N           17.27346243878784       -1.48665712308570        0.10418358722091
C           18.59093246260156       -1.23380131800025        0.19297823209380