120
 energy: -210.062817865116 gnorm: 0.000760968602 xtb: 6.5.1 (b24c23e)
Zn          15.55469676511528       -0.05220259694820       -0.00577359169235
C           12.14567491013239       -0.08922685328378       -0.09989354813509
C           12.77588534829292       -1.32575462529407       -0.02769620871868
C           12.10143772606211       -2.59086096443128        0.05358092873861
C           13.06006338633546       -3.54699636222440        0.13908109171634
C           14.33354168707491       -2.87803742836757        0.09903560458855
N           14.12518416994572       -1.53286903507445        0.00347438367433
C           15.58403406476711       -3.50384455633729        0.17658429449808
C           15.59626479086751       -4.98541608974072        0.27317633654864
C           15.06441746430142       -5.77019148495733       -0.75032024067758
C           15.07153207514422       -7.15373634792468       -0.65976548301837
C           15.60920999064725       -7.76983837547353        0.46773916267218
O           15.63193753905108       -9.12203212837369        0.59940179345081
C           16.14250858171796       -6.99820517439335        1.49802839258247
C           16.13664869084316       -5.61828648000098        1.39523937563753
C           16.82234436188646       -2.85175142585177        0.17560051056854
C           18.10249262168410       -3.50348324137883        0.19688413293941
C           19.04840025319721       -2.53004618229294        0.16446896117340
N           17.01548458246235       -1.49686832462229        0.11987924414109
C           18.35745123886670       -1.27529727480379        0.11667953896431
C           18.98846083954956       -0.01598855999394        0.06023910518235
C           18.33426492014741        1.23081554243719       -0.00895332621355
C           19.00100406189202        2.49672911152360       -0.08902716359280
C           18.03653962483413        3.45062119602123       -0.14897314059997
C           16.76912789069891        2.77607817564794       -0.09885600344766
N           16.98824415651161        1.42620621599018       -0.02186780318096
C           15.51822703109780        3.40162719377608       -0.15156530042273
C           15.50106715009083        4.88532580429980       -0.20102576737553
C           16.04036851168108        5.63732462992490        0.84550768799104
C           16.01836246434713        7.02055151595277        0.81061439458652
C           15.45743360757136        7.67505020609723       -0.28418047201570
O           15.45245224437759        9.03385144965218       -0.28797127499054
C           14.92022387396777        6.93929939865186       -1.33778200659058
C           14.94133956709546        5.55382834768047       -1.29037092006382
C           14.27978571151933        2.74749181946005       -0.15929274452877
C           12.99370898426651        3.39293034619416       -0.17040427388533
C           12.05350812206462        2.41487757953396       -0.16386030159071
C           12.75217202583074        1.16077459873246       -0.13664072591005
N           14.09723149388867        1.39546002157831       -0.13116858270106
H           11.06007251529684       -0.10003132350302       -0.11288277615467
H           11.03016162301973       -2.71878127633731        0.05401554882706
H           12.92035038872051       -4.61199719823462        0.23437590651142
H           14.65681785340045       -5.29278552365178       -1.63457903372924
H           14.66193647683723       -7.75855644952944       -1.46169633881497
H           15.23589959125404       -9.55653928409395       -0.16766815282214
H           16.55427955238810       -7.49042136686595        2.37043277790262
H           16.54008080793012       -5.01808829033433        2.20307589655687
H           18.25686336795091       -4.57033835100925        0.21820518086244
H           20.12076079747752       -2.64447354015802        0.16621016273629
H           20.07089081630897        2.63165244481796       -0.10337582289029
H           18.17086830112103        4.51691408559568       -0.23491922612358
H           16.46486973564350        5.12871817795253        1.70393118399370
H           16.42960111259751        7.60498039456646        1.62442271396587
H           15.03866213952296        9.38092798734714       -1.08954726315367
H           14.48892304926512        7.45334820127811       -2.19023134117514
H           14.53405612539029        4.98256092349727       -2.11725043499822
H           12.83356141674473        4.45929220003200       -0.16886035124367
H           10.97995888984989        2.52200940623901       -0.16733195317150
Zn          29.02890138861110        0.05149358616500       -0.01355203470775
C           32.43811105887405        0.07471406060406       -0.11198139274516
C           31.80780534176435        1.30891038473055       -0.21604206332866
C           32.48216134793159        2.57283385396137       -0.31455761897439
C           31.52344151232539        3.53128181682523       -0.36686283033486
C           30.25001425282808        2.86321485028628       -0.31300533559582
N           30.45843424097855        1.51818969224002       -0.21587573157115
C           28.99942383296981        3.49351238636333       -0.32764706386783
C           28.98711512543577        4.97356957537890       -0.44461660409800
C           29.52201069937987        5.60346983476921       -1.56862070390697
C           29.51440418017595        6.98566297864812       -1.67780485979877
C           28.97295424402131        7.75704121549669       -0.65224644348519
O           28.94924475777595        9.11409544406064       -0.71659086559685
C           28.43690434046495        7.14114212247470        0.47676823310293
C           28.44342819481858        5.76078762740706        0.57337573858929
C           27.76106899079233        2.84788070103361       -0.23679003140083
C           26.48085832656736        3.49572373118365       -0.31104697217072
C           25.53496138007337        2.52773271057856       -0.20341645325502
N           27.56796086185787        1.49911631599217       -0.09685501724825
C           26.22592221556770        1.27928876903413       -0.06902413385684
C           25.59512831214171        0.02497167343992        0.05713566353862
C           26.24939592612897       -1.21870284049506        0.16885028447676
C           25.58274182783809       -2.48289952272021        0.27339887119235
C           26.54730689824882       -3.43540710685528        0.35106245888200
C           27.81464892626057       -2.76076556798166        0.30165571351135
N           27.59540216180426       -1.41384888180369        0.18313626903488
C           29.06556467761254       -3.38735583355689        0.33768994919332
C           29.08280565175562       -4.86283267534838        0.50186518379252
C           28.54724247062691       -5.45648193916782        1.64741926286576
C           28.56970428148798       -6.83037603795096        1.81162765853715
C           29.12717962303640       -7.63543460307206        0.82032666586368
O           29.13298841281637       -8.98068173471254        1.01187663315865
C           29.66028657290660       -7.05885979732978       -0.33003356297928
C           29.63891087452263       -5.68094870985136       -0.48211990496549
C           30.30395581545132       -2.74135479229081        0.23442080676907
C           31.58999950560188       -3.38201934358361        0.31389364569815
C           32.53023181289191       -2.41313952298595        0.18010147385746
C           31.83159520385331       -1.16784454016010        0.02923173572477
N           30.48653426816424       -1.39915415432856        0.06916747975255
H           33.52372625308785        0.08354895389349       -0.12633939094153
H           33.55344360958528        2.69964058030344       -0.33094164799158
H           31.66308748385065        4.59904818491592       -0.42355163583849
H           29.93236112234989        5.00419049099948       -2.37387870105935
H           29.92639537499334        7.46923734921835       -2.55704973589246
H           29.34740208471587        9.43406890071711       -1.53710772619460
H           28.02250007823336        7.75330666224334        1.26825711195578
H           28.03785395614884        5.28267982789473        1.45797991274470
H           26.32651829736265        4.55445588681068       -0.44421758618187
H           24.46255101689548        2.64089634966024       -0.21916189294339
H           24.51287420856586       -2.61851478095002        0.27983219957752
H           26.41315612969391       -4.50292819697455        0.42052898393473
H           28.12537061592145       -4.82967469768354        2.42518861278924
H           28.16146045147358       -7.29171677197459        2.70240499545949
H           29.54388832107030       -9.43927578268144        0.26686041546723
H           30.08861540241341       -7.69018756266343       -1.10131782799771
H           30.04307606614223       -5.23432023923203       -1.38384479332694
H           31.75002677169048       -4.43736507291853        0.46693152423034
H           33.60378538982802       -2.51985901413407        0.19080249168221
C           21.61683122976486       -0.00035560080274        0.06607891123712
C           20.39451642077102       -0.00377023366835        0.06411375323517
C           22.96673028222373        0.00816891747049        0.06580853902548
C           24.18904982629207        0.01349926408911        0.06278464600035
