      -----------------------------------------------------------      
     |                   =====================                   |     
     |                           x T B                           |     
     |                   =====================                   |     
     |                         S. Grimme                         |     
     |          Mulliken Center for Theoretical Chemistry        |     
     |                    University of Bonn                     |     
      -----------------------------------------------------------      

   * xtb version 6.5.1 (b24c23e) compiled by 'conda@728c89f4b128' on 2022-07-12

   xtb is free software: you can redistribute it and/or modify it under
   the terms of the GNU Lesser General Public License as published by
   the Free Software Foundation, either version 3 of the License, or
   (at your option) any later version.
   
   xtb is distributed in the hope that it will be useful,
   but WITHOUT ANY WARRANTY; without even the implied warranty of
   MERCHANTABILITY or FITNESS FOR A PARTICULAR PURPOSE.  See the
   GNU Lesser General Public License for more details.
   
   Cite this work as:
   * C. Bannwarth, E. Caldeweyher, S. Ehlert, A. Hansen, P. Pracht,
     J. Seibert, S. Spicher, S. Grimme, WIREs Comput. Mol. Sci., 2020, 11,
     e01493. DOI: 10.1002/wcms.1493
   
   for GFN2-xTB:
   * C. Bannwarth, S. Ehlert and S. Grimme., J. Chem. Theory Comput., 2019,
     15, 1652-1671. DOI: 10.1021/acs.jctc.8b01176
   for GFN1-xTB:
   * S. Grimme, C. Bannwarth, P. Shushkov, J. Chem. Theory Comput., 2017,
     13, 1989-2009. DOI: 10.1021/acs.jctc.7b00118
   for GFN0-xTB:
   * P. Pracht, E. Caldeweyher, S. Ehlert, S. Grimme, ChemRxiv, 2019, preprint.
     DOI: 10.26434/chemrxiv.8326202.v1
   for GFN-FF:
   * S. Spicher and S. Grimme, Angew. Chem. Int. Ed., 2020, 59, 15665-15673.
     DOI: 10.1002/anie.202004239
   
   for ALPB and GBSA implicit solvation:
   * S. Ehlert, M. Stahn, S. Spicher, S. Grimme, J. Chem. Theory Comput.,
     2021, 17, 4250-4261. DOI: 10.1021/acs.jctc.1c00471
   
   for DFT-D4:
   * E. Caldeweyher, C. Bannwarth and S. Grimme, J. Chem. Phys., 2017,
     147, 034112. DOI: 10.1063/1.4993215
   * E. Caldeweyher, S. Ehlert, A. Hansen, H. Neugebauer, S. Spicher,
     C. Bannwarth and S. Grimme, J. Chem. Phys., 2019, 150, 154122.
     DOI: 10.1063/1.5090222
   * E. Caldeweyher, J.-M. Mewes, S. Ehlert and S. Grimme, Phys. Chem. Chem. Phys.
     2020, 22, 8499-8512. DOI: 10.1039/D0CP00502A
   
   for sTDA-xTB:
   * S. Grimme and C. Bannwarth, J. Chem. Phys., 2016, 145, 054103.
     DOI: 10.1063/1.4959605
   
   in the mass-spec context:
   * V. Asgeirsson, C. Bauer and S. Grimme, Chem. Sci., 2017, 8, 4879.
     DOI: 10.1039/c7sc00601b
   * J. Koopman and S. Grimme, ACS Omega 2019, 4, 12, 15120-15133.
     DOI: 10.1021/acsomega.9b02011
   
   for metadynamics refer to:
   * S. Grimme, J. Chem. Theory Comput., 2019, 155, 2847-2862
     DOI: 10.1021/acs.jctc.9b00143
   
   for SPH calculations refer to:
   * S. Spicher and S. Grimme, J. Chem. Theory Comput., 2021, 17, 1701-1714
     DOI: 10.1021/acs.jctc.0c01306
   
   with help from (in alphabetical order)
   P. Atkinson, C. Bannwarth, F. Bohle, G. Brandenburg, E. Caldeweyher
   M. Checinski, S. Dohm, S. Ehlert, S. Ehrlich, I. Gerasimov, C. Hölzer
   A. Katbashev, J. Koopman, C. Lavigne, S. Lehtola, F. März, M. Müller,
   F. Musil, H. Neugebauer, J. Pisarek, C. Plett, P. Pracht, F. Pultar,
   J. Seibert, P. Shushkov, S. Spicher, M. Stahn, M. Steiner, T. Strunk,
   J. Stückrath, T. Rose, and J. Unsleber
   
 * started run on 2022/07/30 at 05:14:04.393     

           -------------------------------------------------
          |                Calculation Setup                |
           -------------------------------------------------

          program call               : xtb Ni_C2Py_C8_4.xyz --gfn 1 --opt -T 48
          hostname                   : cx3-14-28.cx3.hpc.ic.ac.uk
          coordinate file            : Ni_C2Py_C8_4.xyz
          omp threads                :                     1

   ID    Z sym.   atoms
    1   28 Ni     1, 59, 141, 198
    2    6 C      2-6, 8-13, 15-19, 21-26, 28-33, 35-40, 60-64, 66-71, 73-77,
                  79-84, 86-91, 93-98, 117-140, 142-146, 148-153, 155-159,
                  161-166, 168-173, 175-180, 199-203, 205-210, 212-216,
                  218-223, 225-230, 232-237
    3    7 N      7, 14, 20, 27, 34, 41, 65, 72, 78, 85, 92, 99, 147, 154,
                  160, 167, 174, 181, 204, 211, 217, 224, 231, 238
    4    1 H      42-58, 100-116, 182-197, 239-254

molecular fragmentation (1/2 indicates fragments):
111111111111111111111111111111111111111111111111111111111122222222222222
222222222222222222222222222222222222222222222222222222222222222222222222
222222222222222222222222222222222222222222222222222222222222222222222222
22222222222222222222222222222222222222
# atoms in fragment 1/2:    58   196
 fragment masses (1/2) :      568.23     1990.94
CMA distance (Bohr)    :  67.826
constraining FC (au)   :  0.0500
########################################################################
[WARNING] Please study the warnings concerning your input carefully
-1- prog_main_parseArguments: Unknown option '-T' provided
########################################################################

           -------------------------------------------------
          |                 G F N 1 - x T B                 |
           -------------------------------------------------

        Reference                      10.1021/acs.jctc.7b00118
      * Hamiltonian:
        H0-scaling (s, p, d)           1.850000    2.250000    2.000000
        zeta-weighting                 0.000000
      * Dispersion:
        s8                             2.400000
        a1                             0.630000
        a2                             5.000000
        s9                             0.000000
      * Repulsion:
        kExp                           1.500000
        rExp                           1.000000
      * Coulomb:
        alpha                          2.000000
        third order                    atomic
        anisotropic                    false
      * Halogen bond correction:
        rad-scale                      1.300000
        damping                        0.440000


          ...................................................
          :                      SETUP                      :
          :.................................................:
          :  # basis functions                 908          :
          :  # atomic orbitals                 904          :
          :  # shells                          512          :
          :  # electrons                       866          :
          :  # halogen bonds                     0          :
          :  max. iterations                   250          :
          :  Hamiltonian                  GFN1-xTB          :
          :  restarted?                      false          :
          :  GBSA solvation                  false          :
          :  PC potential                    false          :
          :  electronic temp.          300.0000000     K    :
          :  accuracy                    1.0000000          :
          :  -> integral cutoff          0.2500000E+02      :
          :  -> integral neglect         0.1000000E-07      :
          :  -> SCF convergence          0.1000000E-05 Eh   :
          :  -> wf. convergence          0.2000000E-04 e    :
          :  Broyden damping             0.4000000          :
          ...................................................

 iter      E             dE          RMSdq      gap      omega  full diag
   1   -470.8777373 -0.470878E+03  0.110E+01    0.01       0.0  T
   2   -321.7518169  0.149126E+03  0.131E+01    0.03       1.0  T
   3   -452.8030455 -0.131051E+03  0.720E+00    0.07       1.0  T
   4    297.4486541  0.750252E+03  0.134E+01    0.02       1.0  T
   5    519.3600233  0.221911E+03  0.139E+01    0.02       1.0  T
   6   -373.3714437 -0.892731E+03  0.680E+00    0.01       1.0  T
   7   -351.6482053  0.217232E+02  0.679E+00    0.05       1.0  T
   8   -427.4756424 -0.758274E+02  0.500E+00    0.03       1.0  T
   9   -462.7187718 -0.352431E+02  0.409E+00    0.09       1.0  T
  10   -469.2107630 -0.649199E+01  0.360E+00    0.08       1.0  T
  11   -469.5680236 -0.357261E+00  0.339E+00    0.03       1.0  T
  12   -469.8139769 -0.245953E+00  0.327E+00    0.02       1.0  T
  13   -470.2113661 -0.397389E+00  0.315E+00    0.09       1.0  T
  14   -470.1830309  0.283351E-01  0.291E+00    0.05       1.0  T
  15   -470.2795622 -0.965312E-01  0.288E+00    0.05       1.0  T
  16   -470.1166995  0.162863E+00  0.299E+00    0.03       1.0  T
  17   -470.9949285 -0.878229E+00  0.270E+00    0.01       1.0  T
  18   -471.1085275 -0.113599E+00  0.270E+00    0.00       1.0  T
  19   -470.8330461  0.275481E+00  0.268E+00    0.04       1.0  T
  20   -471.1997474 -0.366701E+00  0.250E+00    0.08       1.0  T
  21   -471.0150897  0.184658E+00  0.249E+00    0.03       1.0  T
  22   -471.3949672 -0.379877E+00  0.239E+00    0.03       1.0  T
  23   -470.1237193  0.127125E+01  0.261E+00    0.06       1.0  T
  24   -470.5431696 -0.419450E+00  0.243E+00    0.13       1.0  T
  25   -470.2779189  0.265251E+00  0.211E+00    0.04       1.0  T
  26   -470.9254414 -0.647522E+00  0.187E+00    0.00       1.0  T
  27   -472.1413390 -0.121590E+01  0.130E+00    0.04       1.0  T
  28   -471.2995132  0.841826E+00  0.166E+00    0.02       1.0  T
  29   -471.3216188 -0.221056E-01  0.154E+00    0.07       1.0  T
  30   -471.5273670 -0.205748E+00  0.146E+00    0.03       1.0  T
  31   -471.3845531  0.142814E+00  0.150E+00    0.06       1.0  T
  32   -471.5492542 -0.164701E+00  0.136E+00    0.02       1.0  T
  33   -471.8228516 -0.273597E+00  0.109E+00    0.01       1.0  T
  34   -471.7370159  0.858357E-01  0.107E+00    0.04       1.0  T
  35   -471.9649911 -0.227975E+00  0.100E+00    0.01       1.0  T
  36   -472.0610074 -0.960164E-01  0.975E-01    0.01       1.0  T
  37   -472.8103560 -0.749349E+00  0.675E-01    0.02       1.0  T
  38   -472.8534257 -0.430698E-01  0.649E-01    0.01       1.0  T
  39   -472.9422902 -0.888645E-01  0.593E-01    0.01       1.0  T
  40   -473.0518764 -0.109586E+00  0.486E-01    0.02       1.0  T
  41   -473.1967647 -0.144888E+00  0.278E-01    0.08       1.0  T
  42   -473.2422227 -0.454581E-01  0.198E-01    0.17       1.0  T
  43   -473.2461542 -0.393143E-02  0.165E-01    0.18       1.0  T
  44   -473.2549603 -0.880617E-02  0.147E-01    0.16       1.0  T
  45   -473.2567005 -0.174019E-02  0.130E-01    0.17       1.0  T
  46   -473.2613042 -0.460370E-02  0.118E-01    0.16       1.0  T
  47   -473.2642221 -0.291791E-02  0.109E-01    0.16       1.0  T
  48   -473.2652062 -0.984090E-03  0.101E-01    0.16       1.0  T
  49   -473.2656115 -0.405329E-03  0.944E-02    0.17       1.0  T
  50   -473.2668250 -0.121344E-02  0.872E-02    0.17       1.0  T
  51   -473.2680252 -0.120019E-02  0.808E-02    0.16       1.0  T
  52   -473.2688013 -0.776082E-03  0.769E-02    0.16       1.0  T
  53   -473.2692799 -0.478653E-03  0.739E-02    0.16       1.0  T
  54   -473.2704458 -0.116585E-02  0.667E-02    0.16       1.0  T
  55   -473.2712760 -0.830190E-03  0.600E-02    0.16       1.0  T
  56   -473.2720777 -0.801748E-03  0.519E-02    0.15       1.0  T
  57   -473.2723574 -0.279660E-03  0.482E-02    0.15       1.0  T
  58   -473.2725985 -0.241128E-03  0.440E-02    0.15       1.0  T
  59   -473.2727552 -0.156726E-03  0.407E-02    0.15       1.0  T
  60   -473.2728698 -0.114570E-03  0.380E-02    0.15       1.0  T
  61   -473.2730163 -0.146465E-03  0.344E-02    0.15       1.0  T
  62   -473.2730908 -0.745234E-04  0.325E-02    0.15       1.0  T
  63   -473.2731487 -0.579293E-04  0.307E-02    0.15       1.0  T
  64   -473.2731893 -0.406404E-04  0.293E-02    0.15       1.0  T
  65   -473.2733099 -0.120589E-03  0.248E-02    0.15       1.0  T
  66   -473.2734234 -0.113476E-03  0.196E-02    0.15       1.0  T
  67   -473.2735110 -0.875604E-04  0.139E-02    0.15       1.0  T
  68   -473.2735392 -0.282408E-04  0.116E-02    0.15       1.0  T
  69   -473.2735516 -0.124165E-04  0.105E-02    0.15       1.0  T
  70   -473.2735689 -0.172316E-04  0.881E-03    0.15       1.0  T
  71   -473.2735846 -0.157170E-04  0.718E-03    0.15       1.0  T
  72   -473.2735922 -0.758054E-05  0.661E-03    0.15       1.0  T
  73   -473.2735963 -0.414766E-05  0.617E-03    0.15       1.0  T
  74   -473.2736000 -0.364753E-05  0.586E-03    0.15       1.1  T
  75   -473.2736050 -0.506183E-05  0.508E-03    0.15       1.2  T
  76   -473.2736096 -0.459639E-05  0.444E-03    0.15       1.4  T
  77   -473.2736152 -0.559896E-05  0.344E-03    0.15       1.8  T
  78   -473.2736174 -0.216614E-05  0.285E-03    0.15       2.2  T
  79   -473.2736183 -0.957244E-06  0.258E-03    0.15       2.4  T
  80   -473.2736195 -0.119810E-05  0.232E-03    0.15       2.7  T
  81   -473.2736204 -0.834881E-06  0.211E-03    0.15       3.0  T
  82   -473.2736210 -0.644883E-06  0.190E-03    0.15       3.3  T
  83   -473.2736219 -0.889629E-06  0.158E-03    0.15       4.0  T
  84   -473.2736230 -0.114346E-05  0.113E-03    0.15       5.6  T
  85   -473.2736235 -0.476518E-06  0.885E-04    0.15       7.1  T
  86   -473.2736239 -0.352021E-06  0.606E-04    0.15      10.4  T
  87   -473.2736240 -0.133693E-06  0.447E-04    0.15      14.0  T
  88   -473.2736241 -0.815678E-07  0.337E-04    0.15      18.6  T
  89   -473.2736241 -0.245512E-07  0.286E-04    0.15      22.0  T
  90   -473.2736241 -0.305333E-07  0.191E-04    0.15      32.9  T
  91   -473.2736242 -0.164772E-07  0.112E-04    0.15      56.0  T

   *** convergence criteria satisfied after 91 iterations ***

         #    Occupation            Energy/Eh            Energy/eV
      -------------------------------------------------------------
         1        2.0000           -0.7923845             -21.5619
       ...           ...                  ...                  ...
       427        2.0000           -0.3920922             -10.6694
       428        2.0000           -0.3905231             -10.6267
       429        2.0000           -0.3862791             -10.5112
       430        2.0000           -0.3846599             -10.4671
       431        2.0000           -0.3799743             -10.3396
       432        2.0000           -0.3768579             -10.2548
       433        1.8965           -0.3693498             -10.0505 (HOMO)
       434        0.1035           -0.3638245              -9.9002 (LUMO)
       435        0.0000           -0.3536291              -9.6227
       436        0.0000           -0.3516847              -9.5698
       437                         -0.3489948              -9.4966
       438                         -0.3485259              -9.4839
       ...                                ...                  ...
       904                          2.1900096              59.5932
      -------------------------------------------------------------
                  HL-Gap            0.0055252 Eh            0.1503 eV
             Fermi-level           -0.3665870 Eh           -9.9753 eV

 SCC (total)                   0 d,  0 h,  0 min, 35.560 sec
 SCC setup                      ...        0 min,  0.024 sec (  0.067%)
 Dispersion                     ...        0 min,  0.014 sec (  0.040%)
 classical contributions        ...        0 min,  0.004 sec (  0.010%)
 integral evaluation            ...        0 min,  0.419 sec (  1.179%)
 iterations                     ...        0 min, 34.180 sec ( 96.120%)
 molecular gradient             ...        0 min,  0.813 sec (  2.287%)
 printout                       ...        0 min,  0.105 sec (  0.296%)

         :::::::::::::::::::::::::::::::::::::::::::::::::::::
         ::                     SUMMARY                     ::
         :::::::::::::::::::::::::::::::::::::::::::::::::::::
         :: total energy            -464.469612136757 Eh    ::
         :: gradient norm              1.625649031212 Eh/a0 ::
         :: HOMO-LUMO gap              0.150349402538 eV    ::
         ::.................................................::
         :: SCC energy              -473.273624157050 Eh    ::
         :: -> electrostatic           0.337971860783 Eh    ::
         :: repulsion energy           9.015979507500 Eh    ::
         :: dispersion energy         -0.211967487207 Eh    ::
         :: halogen bond corr.         0.000000000000 Eh    ::
         :: add. restraining           0.000000000000 Eh    ::
         :: total charge              -0.000000000000 e     ::
         :::::::::::::::::::::::::::::::::::::::::::::::::::::

      ----------------------------------------------------------- 
     |                   =====================                   |
     |                        A N C O P T                        |
     |                   =====================                   |
     |               Approximate Normal Coordinate               |
     |                Rational Function Optimizer                |
      ----------------------------------------------------------- 

          ...................................................
          :                      SETUP                      :
          :.................................................:
          :   optimization level            normal          :
          :   max. optcycles                   762          :
          :   ANC micro-cycles                  20          :
          :   degrees of freedom               756          :
          :.................................................:
          :   RF solver                   davidson          :
          :   write xtbopt.log                true          :
          :   linear?                        false          :
          :   energy convergence         0.5000000E-05 Eh   :
          :   grad. convergence          0.1000000E-02 Eh/α :
          :   maximium RF displ.         1.0000000          :
          :   Hlow (freq-cutoff)         0.1000000E-01      :
          :   Hmax (freq-cutoff)         5.0000000          :
          :   S6 in model hess.         20.0000000          :
          ...................................................

generating ANC from model Hessian ...
Using Lindh-Hessian (1995)
 Shifting diagonal of input Hessian by    1.0068483148197796E-002
 Lowest  eigenvalues of input Hessian
    0.010000    0.010011    0.010032    0.010038    0.010046    0.010056
    0.010058    0.010059    0.010060    0.010062    0.010062    0.000000
    0.000000    0.000000    0.000000    0.000000    0.000000    0.010077
 Highest eigenvalues
    3.001862    3.046568    3.066321    3.245530    3.339751    3.340383


........................................................................
.............................. CYCLE    1 ..............................
........................................................................
   1   -473.2736242 -0.473274E+03  0.796E-05    0.15       0.0  T
   2   -473.2736242 -0.898126E-10  0.858E-05    0.15      73.1  T
   3   -473.2736242  0.469237E-08  0.108E-04    0.15      58.0  T
     SCC iter.                  ...        0 min,  1.481 sec
     gradient                   ...        0 min,  0.871 sec
 * total energy  :  -464.4696121 Eh     change        0.1020737E-08 Eh
   gradient norm :     1.6256485 Eh/α   predicted     0.0000000E+00 (-100.00%)
   displ. norm   :     0.5360831 α      lambda       -0.8043666E+00
   maximum displ.:     0.2131305 α      in ANC's #751, #752, #753, ...

........................................................................
.............................. CYCLE    2 ..............................
........................................................................
   1   -473.1892945 -0.473189E+03  0.183E-01    0.27       0.0  T
   2   -473.1721013  0.171932E-01  0.193E-01    0.30       1.0  T
   3   -473.1912530 -0.191518E-01  0.122E-01    0.29       1.0  T
   4   -473.1978475 -0.659451E-02  0.505E-02    0.25       1.0  T
   5   -473.1979845 -0.136980E-03  0.511E-02    0.31       1.0  T
   6   -473.2012859 -0.330140E-02  0.202E-02    0.28       1.0  T
   7   -473.2013061 -0.201552E-04  0.124E-02    0.27       1.0  T
   8   -473.2013921 -0.860326E-04  0.598E-03    0.27       1.0  T
   9   -473.2014287 -0.365641E-04  0.215E-03    0.27       2.9  T
  10   -473.2014333 -0.467236E-05  0.911E-04    0.27       6.9  T
  11   -473.2014341 -0.805584E-06  0.282E-04    0.27      22.2  T
  12   -473.2014341  0.129393E-08  0.179E-04    0.27      35.1  T
  13   -473.2014342 -0.210149E-07  0.112E-04    0.27      56.1  T
     SCC iter.                  ...        0 min,  4.679 sec
     gradient                   ...        0 min,  0.857 sec
 * total energy  :  -465.0212027 Eh     change       -0.5515905E+00 Eh
   gradient norm :     0.6900411 Eh/α   predicted    -0.5177692E+00 (  -6.13%)
   displ. norm   :     0.5914058 α      lambda       -0.3403715E+00
   maximum displ.:     0.1294127 α      in ANC's #206, #751, #752, ...

........................................................................
.............................. CYCLE    3 ..............................
........................................................................
   1   -473.3867461 -0.473387E+03  0.146E-01    0.49       0.0  T
   2   -473.3895124 -0.276634E-02  0.920E-02    0.51       1.0  T
   3   -473.3927620 -0.324961E-02  0.480E-02    0.49       1.0  T
   4   -473.3935942 -0.832152E-03  0.260E-02    0.50       1.0  T
   5   -473.3936347 -0.405088E-04  0.152E-02    0.50       1.0  T
   6   -473.3937668 -0.132140E-03  0.809E-03    0.50       1.0  T
   7   -473.3938269 -0.601140E-04  0.174E-03    0.50       3.6  T
   8   -473.3938291 -0.220784E-05  0.787E-04    0.50       8.0  T
   9   -473.3938294 -0.314857E-06  0.370E-04    0.50      17.0  T
  10   -473.3938295 -0.935169E-07  0.186E-04    0.50      33.7  T
  11   -473.3938296 -0.319270E-07  0.640E-05    0.50      98.1  T
     SCC iter.                  ...        0 min,  4.123 sec
     gradient                   ...        0 min,  0.846 sec
 * total energy  :  -465.2589490 Eh     change       -0.2377464E+00 Eh
   gradient norm :     0.2823068 Eh/α   predicted    -0.2297104E+00 (  -3.38%)
   displ. norm   :     0.7339678 α      lambda       -0.1569064E+00
   maximum displ.:     0.2894553 α      in ANC's #206, #148, #207, ...

........................................................................
.............................. CYCLE    4 ..............................
........................................................................
   1   -473.5291117 -0.473529E+03  0.943E-02    0.66       0.0  T
   2   -473.5298553 -0.743586E-03  0.676E-02    0.65       1.0  T
   3   -473.5318370 -0.198167E-02  0.313E-02    0.66       1.0  T
   4   -473.5322745 -0.437496E-03  0.216E-02    0.65       1.0  T
   5   -473.5325008 -0.226345E-03  0.103E-02    0.66       1.0  T
   6   -473.5325509 -0.500426E-04  0.422E-03    0.66       1.5  T
   7   -473.5325678 -0.168862E-04  0.976E-04    0.66       6.4  T
   8   -473.5325682 -0.414612E-06  0.444E-04    0.66      14.1  T
   9   -473.5325683 -0.988265E-07  0.196E-04    0.66      31.9  T
  10   -473.5325683 -0.974819E-08  0.128E-04    0.66      48.9  T
     SCC iter.                  ...        0 min,  3.558 sec
     gradient                   ...        0 min,  0.825 sec
 * total energy  :  -465.3874127 Eh     change       -0.1284637E+00 Eh
   gradient norm :     0.1899339 Eh/α   predicted    -0.1207167E+00 (  -6.03%)
   displ. norm   :     0.8324812 α      lambda       -0.1218129E+00
   maximum displ.:     0.3267179 α      in ANC's #206, #148, #180, ...

........................................................................
.............................. CYCLE    5 ..............................
........................................................................
   1   -473.6117287 -0.473612E+03  0.766E-02    0.78       0.0  T
   2   -473.6119706 -0.241886E-03  0.620E-02    0.77       1.0  T
   3   -473.6131951 -0.122445E-02  0.256E-02    0.77       1.0  T
   4   -473.6131055  0.895269E-04  0.248E-02    0.77       1.0  T
   5   -473.6134650 -0.359489E-03  0.882E-03    0.77       1.0  T
   6   -473.6134932 -0.282038E-04  0.317E-03    0.77       2.0  T
   7   -473.6135035 -0.102612E-04  0.798E-04    0.77       7.9  T
   8   -473.6135040 -0.480756E-06  0.315E-04    0.77      19.9  T
   9   -473.6135040 -0.248448E-07  0.147E-04    0.77      42.8  T
  10   -473.6135040 -0.734536E-08  0.926E-05    0.77      67.8  T
     SCC iter.                  ...        0 min,  3.479 sec
     gradient                   ...        0 min,  0.831 sec
 * total energy  :  -465.4928790 Eh     change       -0.1054664E+00 Eh
   gradient norm :     0.1568830 Eh/α   predicted    -0.1031162E+00 (  -2.23%)
   displ. norm   :     0.8723079 α      lambda       -0.1006068E+00
   maximum displ.:     0.3058860 α      in ANC's #206, #148, #180, ...

........................................................................
.............................. CYCLE    6 ..............................
........................................................................
   1   -473.6636108 -0.473664E+03  0.616E-02    0.85       0.0  T
   2   -473.6636914 -0.806615E-04  0.590E-02    0.84       1.0  T
   3   -473.6643937 -0.702328E-03  0.259E-02    0.84       1.0  T
   4   -473.6640198  0.373970E-03  0.253E-02    0.84       1.0  T
   5   -473.6644275 -0.407740E-03  0.645E-03    0.84       1.0  T
   6   -473.6644446 -0.170347E-04  0.180E-03    0.84       3.5  T
   7   -473.6644475 -0.294212E-05  0.771E-04    0.84       8.1  T
   8   -473.6644481 -0.577627E-06  0.211E-04    0.84      29.7  T
   9   -473.6644481 -0.128828E-07  0.954E-05    0.84      65.7  T
  10   -473.6644481 -0.213601E-08  0.535E-05    0.84     117.4  T
     SCC iter.                  ...        0 min,  3.638 sec
     gradient                   ...        0 min,  0.824 sec
 * total energy  :  -465.5774313 Eh     change       -0.8455227E-01 Eh
   gradient norm :     0.1270601 Eh/α   predicted    -0.8858043E-01 (   4.76%)
   displ. norm   :     0.8190828 α      lambda       -0.7024926E-01
   maximum displ.:     0.2468307 α      in ANC's #206, #148, #78, ...

........................................................................
.............................. CYCLE    7 ..............................
........................................................................
   1   -473.7261949 -0.473726E+03  0.429E-02    0.90       0.0  T
   2   -473.7261702  0.246823E-04  0.451E-02    0.90       1.0  T
   3   -473.7266517 -0.481568E-03  0.195E-02    0.90       1.0  T
   4   -473.7264188  0.232948E-03  0.189E-02    0.90       1.0  T
   5   -473.7266583 -0.239481E-03  0.387E-03    0.90       1.6  T
   6   -473.7266632 -0.490874E-05  0.774E-04    0.90       8.1  T
   7   -473.7266636 -0.379719E-06  0.401E-04    0.90      15.6  T
   8   -473.7266637 -0.156533E-06  0.914E-05    0.90      68.7  T
   9   -473.7266637 -0.430543E-08  0.377E-05    0.90     166.6  T
     SCC iter.                  ...        0 min,  4.327 sec
     gradient                   ...        0 min,  0.818 sec
 * total energy  :  -465.6334213 Eh     change       -0.5599001E-01 Eh
   gradient norm :     0.1138058 Eh/α   predicted    -0.5868986E-01 (   4.82%)
   displ. norm   :     0.7544615 α      lambda       -0.5132023E-01
   maximum displ.:     0.2098401 α      in ANC's #78, #71, #102, ...

........................................................................
.............................. CYCLE    8 ..............................
........................................................................
   1   -473.7957044 -0.473796E+03  0.276E-02    0.91       0.0  T
   2   -473.7957557 -0.512390E-04  0.207E-02    0.91       1.0  T
   3   -473.7959298 -0.174076E-03  0.895E-03    0.91       1.0  T
   4   -473.7959458 -0.160705E-04  0.789E-03    0.91       1.0  T
   5   -473.7959740 -0.281549E-04  0.212E-03    0.91       3.0  T
   6   -473.7959754 -0.145357E-05  0.771E-04    0.91       8.1  T
   7   -473.7959759 -0.485559E-06  0.264E-04    0.91      23.8  T
   8   -473.7959760 -0.535305E-07  0.824E-05    0.91      76.2  T
   9   -473.7959760 -0.208439E-08  0.373E-05    0.91     168.2  T
     SCC iter.                  ...        0 min,  3.201 sec
     gradient                   ...        0 min,  0.859 sec
 * total energy  :  -465.6759232 Eh     change       -0.4250184E-01 Eh
   gradient norm :     0.0877508 Eh/α   predicted    -0.4026616E-01 (  -5.26%)
   displ. norm   :     0.8055158 α      lambda       -0.4051084E-01
   maximum displ.:     0.2478197 α      in ANC's #78, #71, #55, ...

........................................................................
.............................. CYCLE    9 ..............................
........................................................................
   1   -473.8698989 -0.473870E+03  0.232E-02    0.96       0.0  T
   2   -473.8699228 -0.238414E-04  0.180E-02    0.96       1.0  T
   3   -473.8700557 -0.132924E-03  0.819E-03    0.96       1.0  T
   4   -473.8700622 -0.647480E-05  0.668E-03    0.96       1.0  T
   5   -473.8700833 -0.211139E-04  0.194E-03    0.96       3.2  T
   6   -473.8700845 -0.126985E-05  0.626E-04    0.96      10.0  T
   7   -473.8700848 -0.274556E-06  0.221E-04    0.96      28.4  T
   8   -473.8700848 -0.378041E-07  0.687E-05    0.96      91.4  T
   9   -473.8700849 -0.169393E-08  0.308E-05    0.96     203.8  T
     SCC iter.                  ...        0 min,  3.333 sec
     gradient                   ...        0 min,  0.851 sec
 * total energy  :  -465.7093582 Eh     change       -0.3343501E-01 Eh
   gradient norm :     0.0697089 Eh/α   predicted    -0.3339827E-01 (  -0.11%)
   displ. norm   :     0.8220327 α      lambda       -0.3145116E-01
   maximum displ.:     0.2618433 α      in ANC's #78, #71, #55, ...

........................................................................
.............................. CYCLE   10 ..............................
........................................................................
   1   -473.9170864 -0.473917E+03  0.189E-02    0.97       0.0  T
   2   -473.9171123 -0.258985E-04  0.147E-02    0.97       1.0  T
   3   -473.9171674 -0.551578E-04  0.684E-03    0.97       1.0  T
   4   -473.9171587  0.872240E-05  0.575E-03    0.97       1.1  T
   5   -473.9171772 -0.184539E-04  0.141E-03    0.97       4.5  T
   6   -473.9171785 -0.135462E-05  0.358E-04    0.97      17.5  T
   7   -473.9171786 -0.709551E-07  0.175E-04    0.97      35.9  T
   8   -473.9171786 -0.244106E-07  0.509E-05    0.97     123.4  T
     SCC iter.                  ...        0 min,  2.983 sec
     gradient                   ...        0 min,  0.830 sec
 * total energy  :  -465.7340622 Eh     change       -0.2470403E-01 Eh
   gradient norm :     0.0677855 Eh/α   predicted    -0.2635197E-01 (   6.67%)
   displ. norm   :     0.8118036 α      lambda       -0.2498628E-01
   maximum displ.:     0.2523027 α      in ANC's #78, #55, #71, ...

........................................................................
.............................. CYCLE   11 ..............................
........................................................................
   1   -473.9677899 -0.473968E+03  0.169E-02    0.99       0.0  T
   2   -473.9678193 -0.293802E-04  0.130E-02    0.99       1.0  T
   3   -473.9678544 -0.350860E-04  0.582E-03    0.99       1.1  T
   4   -473.9678406  0.137667E-04  0.500E-03    0.99       1.3  T
   5   -473.9678572 -0.166166E-04  0.140E-03    0.99       4.5  T
   6   -473.9678582 -0.988415E-06  0.258E-04    0.99      24.3  T
   7   -473.9678583 -0.359659E-07  0.120E-04    0.99      52.2  T
   8   -473.9678583 -0.116526E-07  0.398E-05    0.99     157.6  T
     SCC iter.                  ...        0 min,  2.785 sec
     gradient                   ...        0 min,  0.835 sec
 * total energy  :  -465.7530745 Eh     change       -0.1901235E-01 Eh
   gradient norm :     0.0496135 Eh/α   predicted    -0.2072643E-01 (   9.02%)
   displ. norm   :     0.7903212 α      lambda       -0.1900952E-01
   maximum displ.:     0.2710134 α      in ANC's #55, #71, #78, ...

........................................................................
.............................. CYCLE   12 ..............................
........................................................................
   1   -474.0097041 -0.474010E+03  0.168E-02    1.01       0.0  T
   2   -474.0097236 -0.194491E-04  0.123E-02    1.01       1.0  T
   3   -474.0097675 -0.439273E-04  0.527E-03    1.01       1.2  T
   4   -474.0097625  0.501992E-05  0.462E-03    1.01       1.4  T
   5   -474.0097746 -0.121027E-04  0.128E-03    1.01       4.9  T
   6   -474.0097755 -0.871512E-06  0.314E-04    1.01      20.0  T
   7   -474.0097755 -0.580733E-07  0.154E-04    1.01      40.8  T
   8   -474.0097755 -0.216623E-07  0.394E-05    1.01     159.3  T
     SCC iter.                  ...        0 min,  2.792 sec
     gradient                   ...        0 min,  0.845 sec
 * total energy  :  -465.7672188 Eh     change       -0.1414423E-01 Eh
   gradient norm :     0.0594252 Eh/α   predicted    -0.1544150E-01 (   9.17%)
   displ. norm   :     0.7877909 α      lambda       -0.1575809E-01
   maximum displ.:     0.2709828 α      in ANC's #55, #71, #78, ...

........................................................................
.............................. CYCLE   13 ..............................
........................................................................
   1   -474.0222285 -0.474022E+03  0.154E-02    0.99       0.0  T
   2   -474.0222461 -0.175543E-04  0.109E-02    0.99       1.0  T
   3   -474.0222663 -0.202634E-04  0.589E-03    0.99       1.1  T
   4   -474.0222662  0.911945E-07  0.440E-03    0.99       1.4  T
   5   -474.0222760 -0.980177E-05  0.143E-03    0.99       4.4  T
   6   -474.0222777 -0.171455E-05  0.299E-04    0.99      21.0  T
   7   -474.0222778 -0.541698E-07  0.118E-04    0.99      53.3  T
   8   -474.0222778 -0.117712E-07  0.337E-05    0.99     186.4  T
     SCC iter.                  ...        0 min,  3.082 sec
     gradient                   ...        0 min,  0.861 sec
 * total energy  :  -465.7768553 Eh     change       -0.9636529E-02 Eh
   gradient norm :     0.0811870 Eh/α   predicted    -0.1276890E-01 (  32.51%)
   displ. norm   :     0.6740261 α      lambda       -0.1246656E-01
   maximum displ.:     0.2426807 α      in ANC's #55, #58, #71, ...

........................................................................
.............................. CYCLE   14 ..............................
........................................................................
   1   -474.0511742 -0.474051E+03  0.137E-02    0.99       0.0  T
   2   -474.0511932 -0.189626E-04  0.938E-03    0.99       1.0  T
   3   -474.0512146 -0.213562E-04  0.427E-03    0.99       1.5  T
   4   -474.0512122  0.233634E-05  0.382E-03    0.99       1.6  T
   5   -474.0512202 -0.799623E-05  0.107E-03    0.99       5.9  T
   6   -474.0512207 -0.447802E-06  0.368E-04    0.99      17.0  T
   7   -474.0512207 -0.829813E-07  0.996E-05    0.99      63.0  T
   8   -474.0512208 -0.807705E-08  0.338E-05    0.99     185.4  T
     SCC iter.                  ...        0 min,  3.937 sec
     gradient                   ...        0 min,  0.844 sec
 * total energy  :  -465.7844454 Eh     change       -0.7590075E-02 Eh
   gradient norm :     0.0541995 Eh/α   predicted    -0.9065125E-02 (  19.43%)
   displ. norm   :     0.6341107 α      lambda       -0.8410992E-02
   maximum displ.:     0.2084455 α      in ANC's #55, #71, #58, ...

........................................................................
.............................. CYCLE   15 ..............................
........................................................................
   1   -474.0809538 -0.474081E+03  0.176E-02    1.02       0.0  T
   2   -474.0809851 -0.313523E-04  0.151E-02    1.02       1.0  T
   3   -474.0810426 -0.574481E-04  0.504E-03    1.02       1.2  T
   4   -474.0810304  0.121810E-04  0.534E-03    1.02       1.2  T
   5   -474.0810449 -0.144933E-04  0.138E-03    1.02       4.5  T
   6   -474.0810457 -0.816461E-06  0.381E-04    1.02      16.5  T
   7   -474.0810458 -0.710365E-07  0.179E-04    1.02      35.1  T
   8   -474.0810458 -0.265791E-07  0.386E-05    1.02     162.4  T
     SCC iter.                  ...        0 min,  2.872 sec
     gradient                   ...        0 min,  0.863 sec
 * total energy  :  -465.7884878 Eh     change       -0.4042423E-02 Eh
   gradient norm :     0.0675291 Eh/α   predicted    -0.5896516E-02 (  45.87%)
   displ. norm   :     0.5699394 α      lambda       -0.7215226E-02
   maximum displ.:     0.2451587 α      in ANC's #55, #71, #58, ...

........................................................................
.............................. CYCLE   16 ..............................
........................................................................
   1   -474.0889545 -0.474089E+03  0.144E-02    1.02       0.0  T
   2   -474.0889739 -0.193988E-04  0.126E-02    1.02       1.0  T
   3   -474.0890087 -0.347736E-04  0.479E-03    1.02       1.3  T
   4   -474.0889995  0.918149E-05  0.462E-03    1.02       1.4  T
   5   -474.0890098 -0.103415E-04  0.116E-03    1.02       5.4  T
   6   -474.0890106 -0.735264E-06  0.237E-04    1.02      26.5  T
   7   -474.0890106 -0.221822E-07  0.973E-05    1.02      64.5  T
   8   -474.0890106 -0.757865E-08  0.324E-05    1.02     193.7  T
     SCC iter.                  ...        0 min,  2.970 sec
     gradient                   ...        0 min,  0.853 sec
 * total energy  :  -465.7920728 Eh     change       -0.3584952E-02 Eh
   gradient norm :     0.0487836 Eh/α   predicted    -0.4779482E-02 (  33.32%)
   displ. norm   :     0.4959227 α      lambda       -0.4849630E-02
   maximum displ.:     0.1936722 α      in ANC's #55, #59, #58, ...

........................................................................
.............................. CYCLE   17 ..............................
........................................................................
   1   -474.1000136 -0.474100E+03  0.103E-02    1.01       0.0  T
   2   -474.1000276 -0.139719E-04  0.822E-03    1.01       1.0  T
   3   -474.1000398 -0.122397E-04  0.349E-03    1.01       1.8  T
   4   -474.1000363  0.350644E-05  0.302E-03    1.01       2.1  T
   5   -474.1000402 -0.389359E-05  0.868E-04    1.01       7.2  T
   6   -474.1000407 -0.524426E-06  0.203E-04    1.01      30.9  T
   7   -474.1000408 -0.301497E-07  0.651E-05    1.01      96.3  T
   8   -474.1000408 -0.193063E-08  0.268E-05    1.01     233.8  T
     SCC iter.                  ...        0 min,  2.975 sec
     gradient                   ...        0 min,  0.835 sec
 * total energy  :  -465.7939326 Eh     change       -0.1859865E-02 Eh
   gradient norm :     0.0378514 Eh/α   predicted    -0.3021179E-02 (  62.44%)
   displ. norm   :     0.5050122 α      lambda       -0.4961097E-02
   maximum displ.:     0.1752705 α      in ANC's #58, #74, #46, ...

........................................................................
.............................. CYCLE   18 ..............................
........................................................................
   1   -474.1198033 -0.474120E+03  0.117E-02    1.02       0.0  T
   2   -474.1198135 -0.102505E-04  0.899E-03    1.02       1.0  T
   3   -474.1198307 -0.171716E-04  0.378E-03    1.02       1.7  T
   4   -474.1198268  0.388207E-05  0.322E-03    1.02       1.9  T
   5   -474.1198325 -0.569801E-05  0.922E-04    1.02       6.8  T
   6   -474.1198330 -0.467815E-06  0.292E-04    1.02      21.5  T
   7   -474.1198331 -0.683156E-07  0.925E-05    1.02      67.8  T
   8   -474.1198331 -0.689494E-08  0.266E-05    1.02     235.7  T
     SCC iter.                  ...        0 min,  2.785 sec
     gradient                   ...        0 min,  0.824 sec
 * total energy  :  -465.7950967 Eh     change       -0.1164071E-02 Eh
   gradient norm :     0.0460430 Eh/α   predicted    -0.3113178E-02 ( 167.44%)
   displ. norm   :     0.3939402 α      lambda       -0.4883023E-02
   maximum displ.:     0.1401816 α      in ANC's #67, #46, #55, ...

........................................................................
.............................. CYCLE   19 ..............................
........................................................................
   1   -474.1291186 -0.474129E+03  0.112E-02    1.02       0.0  T
   2   -474.1291305 -0.118971E-04  0.102E-02    1.02       1.0  T
   3   -474.1291522 -0.217190E-04  0.414E-03    1.02       1.5  T
   4   -474.1291442  0.800018E-05  0.392E-03    1.02       1.6  T
   5   -474.1291527 -0.855977E-05  0.984E-04    1.02       6.4  T
   6   -474.1291532 -0.428912E-06  0.192E-04    1.02      32.7  T
   7   -474.1291532 -0.182047E-07  0.911E-05    1.02      68.9  T
     SCC iter.                  ...        0 min,  2.445 sec
     gradient                   ...        0 min,  0.842 sec
 * total energy  :  -465.7971651 Eh     change       -0.2068411E-02 Eh
   gradient norm :     0.0333055 Eh/α   predicted    -0.2820410E-02 (  36.36%)
   displ. norm   :     0.4223531 α      lambda       -0.3604901E-02
   maximum displ.:     0.1580660 α      in ANC's #55, #47, #46, ...

........................................................................
.............................. CYCLE   20 ..............................
........................................................................
   1   -474.1335823 -0.474134E+03  0.123E-02    1.03       0.0  T
   2   -474.1335932 -0.108886E-04  0.118E-02    1.03       1.0  T
   3   -474.1336272 -0.340269E-04  0.435E-03    1.03       1.4  T
   4   -474.1336183  0.892904E-05  0.426E-03    1.03       1.5  T
   5   -474.1336278 -0.949269E-05  0.114E-03    1.03       5.5  T
   6   -474.1336284 -0.576679E-06  0.242E-04    1.03      25.9  T
   7   -474.1336284 -0.301963E-07  0.106E-04    1.03      58.9  T
   8   -474.1336284 -0.108241E-07  0.276E-05    1.03     227.0  T
     SCC iter.                  ...        0 min,  2.990 sec
     gradient                   ...        0 min,  0.827 sec
 * total energy  :  -465.7976875 Eh     change       -0.5224195E-03 Eh
   gradient norm :     0.0475654 Eh/α   predicted    -0.2123976E-02 ( 306.57%)
   displ. norm   :     0.3521572 α      lambda       -0.4004663E-02
   maximum displ.:     0.1367120 α      in ANC's #55, #58, #74, ...
 * RMSD in coord.:     0.5750682 α      energy gain  -0.1328075E+01 Eh

generating ANC from model Hessian ...
Using Lindh-Hessian (1995)
 Shifting diagonal of input Hessian by    1.0026376721425456E-002
 Lowest  eigenvalues of input Hessian
    0.010000    0.010002    0.010013    0.010014    0.010016    0.010017
    0.010018    0.010018    0.010022    0.000000    0.000000    0.000000
    0.000000    0.000000    0.000000    0.010032    0.010036    0.010037
 Highest eigenvalues
    2.804349    2.812323    2.830055    3.032211    3.039987    3.040265


........................................................................
.............................. CYCLE   21 ..............................
........................................................................
   1   -474.1323034 -0.474132E+03  0.108E-02    1.02       0.0  T
   2   -474.1323137 -0.102930E-04  0.100E-02    1.02       1.0  T
   3   -474.1323370 -0.233721E-04  0.356E-03    1.02       1.8  T
   4   -474.1323310  0.607411E-05  0.357E-03    1.02       1.8  T
   5   -474.1323375 -0.652763E-05  0.107E-03    1.02       5.8  T
   6   -474.1323379 -0.415730E-06  0.263E-04    1.02      23.9  T
   7   -474.1323379 -0.325876E-07  0.105E-04    1.02      60.0  T
   8   -474.1323379 -0.100407E-07  0.302E-05    1.02     207.9  T
     SCC iter.                  ...        0 min,  3.929 sec
     gradient                   ...        0 min,  0.821 sec
 * total energy  :  -465.7995471 Eh     change       -0.1859546E-02 Eh
   gradient norm :     0.0410413 Eh/α   predicted     0.0000000E+00 (-100.00%)
   displ. norm   :     0.2357219 α      lambda       -0.1819735E-02
   maximum displ.:     0.0763007 α      in ANC's #32, #44, #28, ...

........................................................................
.............................. CYCLE   22 ..............................
........................................................................
   1   -474.1361475 -0.474136E+03  0.367E-03    1.02       0.0  T
   2   -474.1361501 -0.252889E-05  0.280E-03    1.02       2.2  T
   3   -474.1361513 -0.127858E-05  0.131E-03    1.02       4.8  T
   4   -474.1361510  0.363762E-06  0.108E-03    1.02       5.8  T
   5   -474.1361514 -0.400722E-06  0.412E-04    1.02      15.2  T
   6   -474.1361515 -0.111936E-06  0.118E-04    1.02      53.0  T
   7   -474.1361515 -0.108752E-07  0.272E-05    1.02     230.6  T
     SCC iter.                  ...        0 min,  2.501 sec
     gradient                   ...        0 min,  0.861 sec
 * total energy  :  -465.8006242 Eh     change       -0.1077145E-02 Eh
   gradient norm :     0.0104728 Eh/α   predicted    -0.9613388E-03 ( -10.75%)
   displ. norm   :     0.4572787 α      lambda       -0.2035052E-02
   maximum displ.:     0.1689902 α      in ANC's #44, #57, #43, ...

........................................................................
.............................. CYCLE   23 ..............................
........................................................................
   1   -474.1382443 -0.474138E+03  0.521E-03    1.02       0.0  T
   2   -474.1382475 -0.320183E-05  0.401E-03    1.02       1.6  T
   3   -474.1382516 -0.413140E-05  0.168E-03    1.02       3.7  T
   4   -474.1382512  0.466118E-06  0.133E-03    1.02       4.7  T
   5   -474.1382519 -0.729716E-06  0.525E-04    1.02      12.0  T
   6   -474.1382520 -0.152298E-06  0.172E-04    1.02      36.6  T
   7   -474.1382521 -0.236602E-07  0.428E-05    1.02     146.7  T
     SCC iter.                  ...        0 min,  2.552 sec
     gradient                   ...        0 min,  0.846 sec
 * total energy  :  -465.8004992 Eh     change        0.1250074E-03 Eh
   gradient norm :     0.0459621 Eh/α   predicted    -0.1230312E-02 (*******%)
   displ. norm   :     0.2548200 α      lambda       -0.2625800E-02
   maximum displ.:     0.0909994 α      in ANC's #46, #51, #32, ...

........................................................................
.............................. CYCLE   24 ..............................
........................................................................
   1   -474.1416855 -0.474142E+03  0.249E-03    1.01       0.0  T
   2   -474.1416861 -0.653597E-06  0.171E-03    1.01       3.7  T
   3   -474.1416864 -0.308063E-06  0.102E-03    1.01       6.2  T
   4   -474.1416863  0.117268E-06  0.658E-04    1.01       9.5  T
   5   -474.1416866 -0.274795E-06  0.302E-04    1.01      20.8  T
   6   -474.1416867 -0.633694E-07  0.607E-05    1.01     103.4  T
   7   -474.1416867 -0.187350E-08  0.158E-05    1.01     396.7  T
     SCC iter.                  ...        0 min,  2.656 sec
     gradient                   ...        0 min,  0.836 sec
 * total energy  :  -465.8021385 Eh     change       -0.1639312E-02 Eh
   gradient norm :     0.0244859 Eh/α   predicted    -0.1398166E-02 ( -14.71%)
   displ. norm   :     0.4451595 α      lambda       -0.1999653E-02
   maximum displ.:     0.1555318 α      in ANC's #44, #32, #28, ...

........................................................................
.............................. CYCLE   25 ..............................
........................................................................
   1   -474.1396234 -0.474140E+03  0.455E-03    1.02       0.0  T
   2   -474.1396257 -0.235982E-05  0.447E-03    1.02       1.4  T
   3   -474.1396294 -0.367218E-05  0.207E-03    1.02       3.0  T
   4   -474.1396284  0.100842E-05  0.142E-03    1.02       4.4  T
   5   -474.1396292 -0.844574E-06  0.521E-04    1.02      12.0  T
   6   -474.1396295 -0.233453E-06  0.121E-04    1.02      51.7  T
   7   -474.1396295 -0.102849E-07  0.311E-05    1.02     201.6  T
     SCC iter.                  ...        0 min,  2.438 sec
     gradient                   ...        0 min,  0.831 sec
 * total energy  :  -465.8024744 Eh     change       -0.3358495E-03 Eh
   gradient norm :     0.0169144 Eh/α   predicted    -0.1197967E-02 ( 256.70%)
   displ. norm   :     0.4143676 α      lambda       -0.2191038E-02
   maximum displ.:     0.1355026 α      in ANC's #44, #43, #57, ...

........................................................................
.............................. CYCLE   26 ..............................
........................................................................
   1   -474.1422449 -0.474142E+03  0.390E-03    1.01       0.0  T
   2   -474.1422454 -0.488107E-06  0.387E-03    1.01       1.6  T
   3   -474.1422483 -0.289378E-05  0.187E-03    1.01       3.4  T
   4   -474.1422470  0.135520E-05  0.134E-03    1.01       4.7  T
   5   -474.1422483 -0.136693E-05  0.310E-04    1.01      20.2  T
   6   -474.1422484 -0.860163E-07  0.686E-05    1.01      91.5  T
   7   -474.1422484 -0.241585E-08  0.213E-05    1.01     294.5  T
     SCC iter.                  ...        0 min,  2.444 sec
     gradient                   ...        0 min,  0.838 sec
 * total energy  :  -465.8039904 Eh     change       -0.1516058E-02 Eh
   gradient norm :     0.0107021 Eh/α   predicted    -0.1283622E-02 ( -15.33%)
   displ. norm   :     0.6215241 α      lambda       -0.1679722E-02
   maximum displ.:     0.2370194 α      in ANC's #44, #32, #28, ...

........................................................................
.............................. CYCLE   27 ..............................
........................................................................
   1   -474.1405177 -0.474141E+03  0.174E-03    1.01       0.0  T
   2   -474.1405178 -0.617892E-07  0.171E-03    1.01       3.7  T
   3   -474.1405188 -0.102349E-05  0.673E-04    1.01       9.3  T
   4   -474.1405186  0.190661E-06  0.585E-04    1.01      10.7  T
   5   -474.1405188 -0.208974E-06  0.163E-04    1.01      38.4  T
   6   -474.1405188 -0.160121E-07  0.473E-05    1.01     132.7  T
     SCC iter.                  ...        0 min,  2.162 sec
     gradient                   ...        0 min,  0.854 sec
 * total energy  :  -465.8050152 Eh     change       -0.1024740E-02 Eh
   gradient norm :     0.0126987 Eh/α   predicted    -0.1164294E-02 (  13.62%)
   displ. norm   :     0.6791082 α      lambda       -0.1970196E-02
   maximum displ.:     0.2203584 α      in ANC's #32, #28, #43, ...

........................................................................
.............................. CYCLE   28 ..............................
........................................................................
   1   -474.1379655 -0.474138E+03  0.179E-03    1.01       0.0  T
   2   -474.1379655 -0.356023E-07  0.175E-03    1.01       3.6  T
   3   -474.1379664 -0.874343E-06  0.797E-04    1.01       7.9  T
   4   -474.1379661  0.254379E-06  0.597E-04    1.01      10.5  T
   5   -474.1379664 -0.269567E-06  0.175E-04    1.01      35.9  T
   6   -474.1379664 -0.158661E-07  0.425E-05    1.01     147.6  T
     SCC iter.                  ...        0 min,  2.370 sec
     gradient                   ...        0 min,  0.792 sec
 * total energy  :  -465.8060552 Eh     change       -0.1039994E-02 Eh
   gradient norm :     0.0163086 Eh/α   predicted    -0.1439418E-02 (  38.41%)
   displ. norm   :     0.5736838 α      lambda       -0.1890279E-02
   maximum displ.:     0.2530019 α      in ANC's #44, #32, #28, ...

........................................................................
.............................. CYCLE   29 ..............................
........................................................................
   1   -474.1379608 -0.474138E+03  0.226E-03    1.01       0.0  T
   2   -474.1379613 -0.495043E-06  0.224E-03    1.01       2.8  T
   3   -474.1379626 -0.126270E-05  0.875E-04    1.01       7.2  T
   4   -474.1379623  0.318773E-06  0.757E-04    1.01       8.3  T
   5   -474.1379626 -0.334818E-06  0.212E-04    1.01      29.6  T
   6   -474.1379626 -0.192182E-07  0.444E-05    1.01     141.3  T
   7   -474.1379626 -0.114113E-08  0.166E-05    1.01     379.0  T
     SCC iter.                  ...        0 min,  3.291 sec
     gradient                   ...        0 min,  0.838 sec
 * total energy  :  -465.8072244 Eh     change       -0.1169237E-02 Eh
   gradient norm :     0.0125301 Eh/α   predicted    -0.1256199E-02 (   7.44%)
   displ. norm   :     0.6219090 α      lambda       -0.1463108E-02
   maximum displ.:     0.2319151 α      in ANC's #44, #28, #32, ...

........................................................................
.............................. CYCLE   30 ..............................
........................................................................
   1   -474.1391509 -0.474139E+03  0.147E-03    1.01       0.0  T
   2   -474.1391511 -0.201068E-06  0.927E-04    1.01       6.8  T
   3   -474.1391513 -0.242297E-06  0.486E-04    1.01      12.9  T
   4   -474.1391514 -0.415513E-07  0.321E-04    1.01      19.6  T
   5   -474.1391514 -0.319174E-07  0.140E-04    1.01      44.8  T
   6   -474.1391514 -0.128840E-07  0.295E-05    1.01     212.4  T
     SCC iter.                  ...        0 min,  2.149 sec
     gradient                   ...        0 min,  0.865 sec
 * total energy  :  -465.8083977 Eh     change       -0.1173328E-02 Eh
   gradient norm :     0.0093528 Eh/α   predicted    -0.1014509E-02 ( -13.54%)
   displ. norm   :     0.7321314 α      lambda       -0.1334368E-02
   maximum displ.:     0.2811182 α      in ANC's #44, #28, #32, ...

........................................................................
.............................. CYCLE   31 ..............................
........................................................................
   1   -474.1392669 -0.474139E+03  0.227E-03    1.02       0.0  T
   2   -474.1392677 -0.819217E-06  0.139E-03    1.02       4.5  T
   3   -474.1392681 -0.391336E-06  0.623E-04    1.02      10.1  T
   4   -474.1392681  0.224838E-07  0.534E-04    1.02      11.7  T
   5   -474.1392682 -0.104799E-06  0.210E-04    1.02      29.9  T
   6   -474.1392682 -0.282018E-07  0.502E-05    1.02     125.0  T
   7   -474.1392682 -0.153454E-08  0.150E-05    1.02     419.3  T
     SCC iter.                  ...        0 min,  2.543 sec
     gradient                   ...        0 min,  0.849 sec
 * total energy  :  -465.8094567 Eh     change       -0.1058954E-02 Eh
   gradient norm :     0.0075575 Eh/α   predicted    -0.1024820E-02 (  -3.22%)
   displ. norm   :     0.7653020 α      lambda       -0.1462077E-02
   maximum displ.:     0.2700914 α      in ANC's #44, #28, #32, ...

........................................................................
.............................. CYCLE   32 ..............................
........................................................................
   1   -474.1387494 -0.474139E+03  0.291E-03    1.02       0.0  T
   2   -474.1387503 -0.862065E-06  0.216E-03    1.02       2.9  T
   3   -474.1387516 -0.128048E-05  0.820E-04    1.02       7.7  T
   4   -474.1387516  0.280954E-07  0.746E-04    1.02       8.4  T
   5   -474.1387517 -0.182710E-06  0.291E-04    1.02      21.6  T
   6   -474.1387518 -0.550386E-07  0.665E-05    1.02      94.4  T
   7   -474.1387518 -0.301452E-08  0.193E-05    1.02     325.8  T
     SCC iter.                  ...        0 min,  2.660 sec
     gradient                   ...        0 min,  0.846 sec
 * total energy  :  -465.8102810 Eh     change       -0.8243471E-03 Eh
   gradient norm :     0.0128737 Eh/α   predicted    -0.1159200E-02 (  40.62%)
   displ. norm   :     0.6333914 α      lambda       -0.1343190E-02
   maximum displ.:     0.2485667 α      in ANC's #44, #28, #32, ...

........................................................................
.............................. CYCLE   33 ..............................
........................................................................
   1   -474.1296717 -0.474130E+03  0.222E-03    1.01       0.0  T
   2   -474.1296723 -0.544783E-06  0.192E-03    1.01       3.3  T
   3   -474.1296730 -0.727331E-06  0.831E-04    1.01       7.6  T
   4   -474.1296728  0.153252E-06  0.607E-04    1.01      10.3  T
   5   -474.1296730 -0.133598E-06  0.247E-04    1.01      25.4  T
   6   -474.1296730 -0.499669E-07  0.610E-05    1.01     102.9  T
   7   -474.1296730 -0.257864E-08  0.158E-05    1.01     397.2  T
     SCC iter.                  ...        0 min,  2.450 sec
     gradient                   ...        0 min,  0.828 sec
 * total energy  :  -465.8110894 Eh     change       -0.8083848E-03 Eh
   gradient norm :     0.0132233 Eh/α   predicted    -0.9410414E-03 (  16.41%)
   displ. norm   :     0.5333159 α      lambda       -0.1352140E-02
   maximum displ.:     0.1962412 α      in ANC's #44, #28, #22, ...

........................................................................
.............................. CYCLE   34 ..............................
........................................................................
   1   -474.1276536 -0.474128E+03  0.262E-03    1.01       0.0  T
   2   -474.1276546 -0.952731E-06  0.228E-03    1.01       2.7  T
   3   -474.1276558 -0.119246E-05  0.982E-04    1.01       6.4  T
   4   -474.1276555  0.292214E-06  0.756E-04    1.01       8.3  T
   5   -474.1276558 -0.308695E-06  0.243E-04    1.01      25.9  T
   6   -474.1276558 -0.295556E-07  0.787E-05    1.01      79.7  T
   7   -474.1276558 -0.513000E-08  0.205E-05    1.01     306.4  T
     SCC iter.                  ...        0 min,  2.440 sec
     gradient                   ...        0 min,  0.829 sec
 * total energy  :  -465.8114668 Eh     change       -0.3774422E-03 Eh
   gradient norm :     0.0168532 Eh/α   predicted    -0.8683694E-03 ( 130.07%)
   displ. norm   :     0.4130711 α      lambda       -0.1211485E-02
   maximum displ.:     0.1438134 α      in ANC's #44, #28, #22, ...

........................................................................
.............................. CYCLE   35 ..............................
........................................................................
   1   -474.1313190 -0.474131E+03  0.261E-03    1.01       0.0  T
   2   -474.1313201 -0.107726E-05  0.236E-03    1.01       2.7  T
   3   -474.1313210 -0.981233E-06  0.110E-03    1.01       5.7  T
   4   -474.1313208  0.249247E-06  0.832E-04    1.01       7.5  T
   5   -474.1313210 -0.194840E-06  0.327E-04    1.01      19.2  T
   6   -474.1313211 -0.979779E-07  0.826E-05    1.01      75.9  T
   7   -474.1313211 -0.368868E-08  0.253E-05    1.01     248.0  T
     SCC iter.                  ...        0 min,  2.498 sec
     gradient                   ...        0 min,  0.863 sec
 * total energy  :  -465.8121660 Eh     change       -0.6991500E-03 Eh
   gradient norm :     0.0160229 Eh/α   predicted    -0.7091051E-03 (   1.42%)
   displ. norm   :     0.5692692 α      lambda       -0.9839237E-03
   maximum displ.:     0.2283377 α      in ANC's #44, #28, #22, ...

........................................................................
.............................. CYCLE   36 ..............................
........................................................................
   1   -474.1138799 -0.474114E+03  0.404E-03    1.01       0.0  T
   2   -474.1138828 -0.295086E-05  0.345E-03    1.01       1.8  T
   3   -474.1138841 -0.126808E-05  0.178E-03    1.01       3.5  T
   4   -474.1138833  0.804961E-06  0.108E-03    1.01       5.8  T
   5   -474.1138840 -0.697376E-06  0.428E-04    1.01      14.7  T
   6   -474.1138841 -0.160578E-06  0.789E-05    1.01      79.5  T
   7   -474.1138841 -0.285621E-08  0.257E-05    1.01     243.9  T
     SCC iter.                  ...        0 min,  3.083 sec
     gradient                   ...        0 min,  0.848 sec
 * total energy  :  -465.8124474 Eh     change       -0.2814395E-03 Eh
   gradient norm :     0.0172001 Eh/α   predicted    -0.6513854E-03 ( 131.45%)
   displ. norm   :     0.3516322 α      lambda       -0.7582360E-03
   maximum displ.:     0.1013739 α      in ANC's #44, #60, #57, ...

........................................................................
.............................. CYCLE   37 ..............................
........................................................................
   1   -474.1188825 -0.474119E+03  0.213E-03    1.01       0.0  T
   2   -474.1188832 -0.755207E-06  0.170E-03    1.01       3.7  T
   3   -474.1188836 -0.375766E-06  0.865E-04    1.01       7.3  T
   4   -474.1188834  0.215831E-06  0.605E-04    1.01      10.4  T
   5   -474.1188836 -0.209734E-06  0.214E-04    1.01      29.3  T
   6   -474.1188836 -0.407082E-07  0.561E-05    1.01     111.8  T
   7   -474.1188836 -0.179557E-08  0.178E-05    1.01     352.6  T
     SCC iter.                  ...        0 min,  2.969 sec
     gradient                   ...        0 min,  0.822 sec
 * total energy  :  -465.8129849 Eh     change       -0.5374229E-03 Eh
   gradient norm :     0.0064796 Eh/α   predicted    -0.4259899E-03 ( -20.73%)
   displ. norm   :     0.4921364 α      lambda       -0.5191688E-03
   maximum displ.:     0.1824830 α      in ANC's #44, #22, #71, ...

........................................................................
.............................. CYCLE   38 ..............................
........................................................................
   1   -474.1150286 -0.474115E+03  0.207E-03    1.01       0.0  T
   2   -474.1150293 -0.685373E-06  0.112E-03    1.01       5.6  T
   3   -474.1150294 -0.163411E-06  0.555E-04    1.01      11.3  T
   4   -474.1150294  0.241945E-07  0.398E-04    1.01      15.7  T
   5   -474.1150294 -0.318782E-07  0.181E-04    1.01      34.7  T
   6   -474.1150295 -0.324282E-07  0.387E-05    1.01     162.0  T
     SCC iter.                  ...        0 min,  2.172 sec
     gradient                   ...        0 min,  0.858 sec
 * total energy  :  -465.8133381 Eh     change       -0.3531921E-03 Eh
   gradient norm :     0.0090992 Eh/α   predicted    -0.3224573E-03 (  -8.70%)
   displ. norm   :     0.5273841 α      lambda       -0.5244039E-03
   maximum displ.:     0.1537717 α      in ANC's #60, #44, #71, ...

........................................................................
.............................. CYCLE   39 ..............................
........................................................................
   1   -474.1206952 -0.474121E+03  0.330E-03    1.01       0.0  T
   2   -474.1206967 -0.149178E-05  0.222E-03    1.01       2.8  T
   3   -474.1206974 -0.781051E-06  0.102E-03    1.01       6.1  T
   4   -474.1206973  0.123404E-06  0.858E-04    1.01       7.3  T
   5   -474.1206975 -0.190328E-06  0.375E-04    1.01      16.7  T
   6   -474.1206976 -0.132911E-06  0.714E-05    1.01      87.9  T
   7   -474.1206976 -0.231131E-08  0.219E-05    1.01     286.7  T
     SCC iter.                  ...        0 min,  2.579 sec
     gradient                   ...        0 min,  0.837 sec
 * total energy  :  -465.8135485 Eh     change       -0.2104839E-03 Eh
   gradient norm :     0.0166544 Eh/α   predicted    -0.3351352E-03 (  59.22%)
   displ. norm   :     0.4258855 α      lambda       -0.4024688E-03
   maximum displ.:     0.1807703 α      in ANC's #44, #22, #28, ...

........................................................................
.............................. CYCLE   40 ..............................
........................................................................
   1   -474.1080379 -0.474108E+03  0.239E-03    1.01       0.0  T
   2   -474.1080384 -0.558565E-06  0.168E-03    1.01       3.7  T
   3   -474.1080387 -0.273111E-06  0.901E-04    1.01       7.0  T
   4   -474.1080386  0.112455E-06  0.687E-04    1.01       9.1  T
   5   -474.1080389 -0.263412E-06  0.219E-04    1.01      28.6  T
   6   -474.1080389 -0.393698E-07  0.592E-05    1.01     106.0  T
   7   -474.1080389 -0.214868E-08  0.118E-05    1.01     531.3  T
     SCC iter.                  ...        0 min,  2.641 sec
     gradient                   ...        0 min,  0.840 sec
 * total energy  :  -465.8138103 Eh     change       -0.2617255E-03 Eh
   gradient norm :     0.0060858 Eh/α   predicted    -0.2377326E-03 (  -9.17%)
   displ. norm   :     0.3082050 α      lambda       -0.3492208E-03
   maximum displ.:     0.1088908 α      in ANC's #44, #20, #22, ...

........................................................................
.............................. CYCLE   41 ..............................
........................................................................
   1   -474.1084076 -0.474108E+03  0.184E-03    1.01       0.0  T
   2   -474.1084081 -0.490139E-06  0.131E-03    1.01       4.8  T
   3   -474.1084085 -0.429189E-06  0.607E-04    1.01      10.3  T
   4   -474.1084084  0.815397E-07  0.541E-04    1.01      11.6  T
   5   -474.1084086 -0.165838E-06  0.186E-04    1.01      33.8  T
   6   -474.1084086 -0.105291E-07  0.533E-05    1.01     117.7  T
     SCC iter.                  ...        0 min,  2.075 sec
     gradient                   ...        0 min,  0.822 sec
 * total energy  :  -465.8139999 Eh     change       -0.1896787E-03 Eh
   gradient norm :     0.0088865 Eh/α   predicted    -0.1912000E-03 (   0.80%)
   displ. norm   :     0.3832767 α      lambda       -0.3677536E-03
   maximum displ.:     0.1338673 α      in ANC's #32, #20, #44, ...

........................................................................
.............................. CYCLE   42 ..............................
........................................................................
   1   -474.1098806 -0.474110E+03  0.155E-03    1.01       0.0  T
   2   -474.1098809 -0.347930E-06  0.913E-04    1.01       6.9  T
   3   -474.1098812 -0.253289E-06  0.468E-04    1.01      13.4  T
   4   -474.1098812 -0.404187E-07  0.366E-04    1.01      17.2  T
   5   -474.1098813 -0.718951E-07  0.142E-04    1.01      44.3  T
   6   -474.1098813 -0.427491E-08  0.411E-05    1.01     152.8  T
     SCC iter.                  ...        0 min,  2.102 sec
     gradient                   ...        0 min,  0.839 sec
 * total energy  :  -465.8142692 Eh     change       -0.2692323E-03 Eh
   gradient norm :     0.0118366 Eh/α   predicted    -0.2108845E-03 ( -21.67%)
   displ. norm   :     0.4794016 α      lambda       -0.4077236E-03
   maximum displ.:     0.1572996 α      in ANC's #32, #20, #44, ...
 * RMSD in coord.:     0.5689135 α      energy gain  -0.1658165E-01 Eh

generating ANC from model Hessian ...
Using Lindh-Hessian (1995)
 Shifting diagonal of input Hessian by    1.0035093901258903E-002
 Lowest  eigenvalues of input Hessian
    0.010000    0.010001    0.010021    0.010022    0.010024    0.010025
    0.010027    0.010028    0.010031    0.000000    0.000000    0.000000
    0.000000    0.000000    0.000000    0.010035    0.010040    0.010043
 Highest eigenvalues
    2.799402    2.803361    2.803784    3.021796    3.025232    3.026313


........................................................................
.............................. CYCLE   43 ..............................
........................................................................
   1   -474.1101993 -0.474110E+03  0.195E-03    1.01       0.0  T
   2   -474.1101998 -0.518602E-06  0.103E-03    1.01       6.1  T
   3   -474.1101999 -0.104022E-06  0.590E-04    1.01      10.6  T
   4   -474.1101999  0.329627E-07  0.469E-04    1.01      13.4  T
   5   -474.1102000 -0.118567E-06  0.160E-04    1.01      39.3  T
   6   -474.1102000 -0.155684E-07  0.332E-05    1.01     188.8  T
     SCC iter.                  ...        0 min,  2.166 sec
     gradient                   ...        0 min,  0.866 sec
 * total energy  :  -465.8145695 Eh     change       -0.3003534E-03 Eh
   gradient norm :     0.0072758 Eh/α   predicted     0.0000000E+00 (-100.00%)
   displ. norm   :     0.0831237 α      lambda       -0.1752395E-03
   maximum displ.:     0.0210115 α      in ANC's #32, #24, #23, ...

........................................................................
.............................. CYCLE   44 ..............................
........................................................................
   1   -474.1147501 -0.474115E+03  0.130E-03    1.01       0.0  T
   2   -474.1147503 -0.183247E-06  0.799E-04    1.01       7.9  T
   3   -474.1147505 -0.184356E-06  0.447E-04    1.01      14.0  T
   4   -474.1147505 -0.643644E-07  0.334E-04    1.01      18.8  T
   5   -474.1147506 -0.539910E-07  0.104E-04    1.01      60.5  T
   6   -474.1147506 -0.241732E-08  0.409E-05    1.01     153.4  T
     SCC iter.                  ...        0 min,  2.462 sec
     gradient                   ...        0 min,  0.854 sec
 * total energy  :  -465.8146470 Eh     change       -0.7749133E-04 Eh
   gradient norm :     0.0044037 Eh/α   predicted    -0.8822544E-04 (  13.85%)
   displ. norm   :     0.1539974 α      lambda       -0.2260411E-03
   maximum displ.:     0.0458345 α      in ANC's #24, #14, #18, ...

........................................................................
.............................. CYCLE   45 ..............................
........................................................................
   1   -474.1218908 -0.474122E+03  0.216E-03    1.01       0.0  T
   2   -474.1218912 -0.459662E-06  0.135E-03    1.01       4.6  T
   3   -474.1218919 -0.690811E-06  0.722E-04    1.01       8.7  T
   4   -474.1218922 -0.250772E-06  0.512E-04    1.01      12.3  T
   5   -474.1218923 -0.107835E-06  0.175E-04    1.01      35.8  T
   6   -474.1218923 -0.804931E-08  0.700E-05    1.01      89.7  T
     SCC iter.                  ...        0 min,  2.682 sec
     gradient                   ...        0 min,  0.832 sec
 * total energy  :  -465.8146714 Eh     change       -0.2433963E-04 Eh
   gradient norm :     0.0067377 Eh/α   predicted    -0.1157054E-03 ( 375.38%)
   displ. norm   :     0.1260766 α      lambda       -0.2684586E-03
   maximum displ.:     0.0329154 α      in ANC's #24, #58, #18, ...

........................................................................
.............................. CYCLE   46 ..............................
........................................................................
   1   -474.1237880 -0.474124E+03  0.942E-04    1.01       0.0  T
   2   -474.1237881 -0.958120E-07  0.599E-04    1.01      10.5  T
   3   -474.1237883 -0.172099E-06  0.285E-04    1.01      22.0  T
   4   -474.1237883 -0.391425E-07  0.203E-04    1.01      30.9  T
   5   -474.1237883 -0.169713E-07  0.854E-05    1.01      73.5  T
   6   -474.1237883 -0.192762E-08  0.250E-05    1.01     250.9  T
     SCC iter.                  ...        0 min,  2.147 sec
     gradient                   ...        0 min,  0.853 sec
 * total energy  :  -465.8147854 Eh     change       -0.1140086E-03 Eh
   gradient norm :     0.0058848 Eh/α   predicted    -0.1363634E-03 (  19.61%)
   displ. norm   :     0.1803366 α      lambda       -0.3099602E-03
   maximum displ.:     0.0518289 α      in ANC's #54, #52, #23, ...

........................................................................
.............................. CYCLE   47 ..............................
........................................................................
   1   -474.1205506 -0.474121E+03  0.125E-03    1.01       0.0  T
   2   -474.1205507 -0.140070E-06  0.893E-04    1.01       7.0  T
   3   -474.1205509 -0.129781E-06  0.466E-04    1.01      13.5  T
   4   -474.1205508  0.414674E-07  0.323E-04    1.01      19.4  T
   5   -474.1205509 -0.655751E-07  0.126E-04    1.01      49.8  T
   6   -474.1205509 -0.106050E-07  0.240E-05    1.01     261.9  T
     SCC iter.                  ...        0 min,  2.182 sec
     gradient                   ...        0 min,  0.866 sec
 * total energy  :  -465.8146907 Eh     change        0.9462267E-04 Eh
   gradient norm :     0.0070353 Eh/α   predicted    -0.1600207E-03 (-269.11%)
   displ. norm   :     0.1160842 α      lambda       -0.4794171E-03
   maximum displ.:     0.0370492 α      in ANC's #58, #50, #14, ...

........................................................................
.............................. CYCLE   48 ..............................
........................................................................
   1   -474.1210734 -0.474121E+03  0.911E-04    1.01       0.0  T
   2   -474.1210734 -0.308471E-07  0.690E-04    1.01       9.1  T
   3   -474.1210734 -0.227339E-07  0.375E-04    1.01      16.7  T
   4   -474.1210734  0.124966E-07  0.199E-04    1.01      31.6  T
   5   -474.1210735 -0.319174E-07  0.574E-05    1.01     109.3  T
     SCC iter.                  ...        0 min,  1.927 sec
     gradient                   ...        0 min,  0.857 sec
 * total energy  :  -465.8149210 Eh     change       -0.2302408E-03 Eh
   gradient norm :     0.0045002 Eh/α   predicted    -0.2429394E-03 (   5.52%)
   displ. norm   :     0.1786007 α      lambda       -0.2671733E-03
   maximum displ.:     0.0554261 α      in ANC's #24, #14, #18, ...

........................................................................
.............................. CYCLE   49 ..............................
........................................................................
   1   -474.1237981 -0.474124E+03  0.660E-04    1.01       0.0  T
   2   -474.1237982 -0.521512E-07  0.430E-04    1.01      14.6  T
   3   -474.1237982 -0.289763E-07  0.222E-04    1.01      28.3  T
   4   -474.1237982  0.328146E-08  0.181E-04    1.01      34.7  T
   5   -474.1237982 -0.150270E-07  0.691E-05    1.01      90.9  T
     SCC iter.                  ...        0 min,  1.847 sec
     gradient                   ...        0 min,  0.831 sec
 * total energy  :  -465.8149280 Eh     change       -0.6985880E-05 Eh
   gradient norm :     0.0052425 Eh/α   predicted    -0.1378482E-03 (1873.24%)
   displ. norm   :     0.1767020 α      lambda       -0.2920688E-03
   maximum displ.:     0.0523349 α      in ANC's #24, #23, #14, ...

........................................................................
.............................. CYCLE   50 ..............................
........................................................................
   1   -474.1247557 -0.474125E+03  0.438E-04    1.01       0.0  T
   2   -474.1247557 -0.176222E-07  0.334E-04    1.01      18.8  T
   3   -474.1247558 -0.252583E-07  0.143E-04    1.01      43.8  T
   4   -474.1247558  0.456521E-08  0.117E-04    1.01      53.7  T
     SCC iter.                  ...        0 min,  1.420 sec
     gradient                   ...        0 min,  0.834 sec
 * total energy  :  -465.8150142 Eh     change       -0.8625219E-04 Eh
   gradient norm :     0.0052653 Eh/α   predicted    -0.1505971E-03 (  74.60%)
   displ. norm   :     0.2744371 α      lambda       -0.4730888E-03
   maximum displ.:     0.0788632 α      in ANC's #23, #24, #41, ...

........................................................................
.............................. CYCLE   51 ..............................
........................................................................
   1   -474.1231936 -0.474123E+03  0.889E-04    1.00       0.0  T
   2   -474.1231937 -0.831552E-07  0.637E-04    1.00       9.8  T
   3   -474.1231938 -0.920236E-07  0.300E-04    1.00      20.9  T
   4   -474.1231938  0.144024E-07  0.243E-04    1.00      25.8  T
   5   -474.1231938 -0.319382E-07  0.808E-05    1.00      77.7  T
   6   -474.1231938 -0.270012E-08  0.270E-05    1.00     232.4  T
     SCC iter.                  ...        0 min,  2.106 sec
     gradient                   ...        0 min,  0.861 sec
 * total energy  :  -465.8150414 Eh     change       -0.2717074E-04 Eh
   gradient norm :     0.0062657 Eh/α   predicted    -0.2543601E-03 ( 836.15%)
   displ. norm   :     0.1592367 α      lambda       -0.3811362E-03
   maximum displ.:     0.0494290 α      in ANC's #24, #14, #28, ...

........................................................................
.............................. CYCLE   52 ..............................
........................................................................
   1   -474.1249369 -0.474125E+03  0.541E-04    1.00       0.0  T
   2   -474.1249369 -0.682689E-08  0.458E-04    1.00      13.7  T
   3   -474.1249370 -0.556266E-07  0.163E-04    1.00      38.4  T
   4   -474.1249370  0.883466E-08  0.129E-04    1.00      48.8  T
     SCC iter.                  ...        0 min,  1.440 sec
     gradient                   ...        0 min,  0.866 sec
 * total energy  :  -465.8152475 Eh     change       -0.2060763E-03 Eh
   gradient norm :     0.0040120 Eh/α   predicted    -0.1953972E-03 (  -5.18%)
   displ. norm   :     0.3097544 α      lambda       -0.3674142E-03
   maximum displ.:     0.1012605 α      in ANC's #24, #14, #18, ...

........................................................................
.............................. CYCLE   53 ..............................
........................................................................
   1   -474.1263172 -0.474126E+03  0.994E-04    1.01       0.0  T
   2   -474.1263173 -0.837418E-07  0.776E-04    1.01       8.1  T
   3   -474.1263174 -0.791475E-07  0.384E-04    1.01      16.4  T
   4   -474.1263174  0.334731E-07  0.264E-04    1.01      23.7  T
   5   -474.1263174 -0.400644E-07  0.746E-05    1.01      84.1  T
   6   -474.1263174 -0.488609E-08  0.192E-05    1.01     326.4  T
     SCC iter.                  ...        0 min,  2.391 sec
     gradient                   ...        0 min,  0.828 sec
 * total energy  :  -465.8151333 Eh     change        0.1141926E-03 Eh
   gradient norm :     0.0070553 Eh/α   predicted    -0.2013365E-03 (-276.31%)
   displ. norm   :     0.1865589 α      lambda       -0.5590183E-03
   maximum displ.:     0.0621249 α      in ANC's #44, #24, #18, ...

........................................................................
.............................. CYCLE   54 ..............................
........................................................................
   1   -474.1276146 -0.474128E+03  0.106E-03    1.01       0.0  T
   2   -474.1276146 -0.415457E-07  0.817E-04    1.01       7.7  T
   3   -474.1276147 -0.402973E-07  0.444E-04    1.01      14.1  T
   4   -474.1276146  0.283638E-07  0.265E-04    1.01      23.7  T
   5   -474.1276147 -0.493129E-07  0.509E-05    1.01     123.2  T
   6   -474.1276147 -0.229261E-08  0.145E-05    1.01     433.2  T
     SCC iter.                  ...        0 min,  2.943 sec
     gradient                   ...        0 min,  0.820 sec
 * total energy  :  -465.8154394 Eh     change       -0.3061172E-03 Eh
   gradient norm :     0.0032469 Eh/α   predicted    -0.2892320E-03 (  -5.52%)
   displ. norm   :     0.3207881 α      lambda       -0.2404452E-03
   maximum displ.:     0.1035711 α      in ANC's #24, #14, #23, ...

........................................................................
.............................. CYCLE   55 ..............................
........................................................................
   1   -474.1268977 -0.474127E+03  0.595E-04    1.00       0.0  T
   2   -474.1268977 -0.331092E-07  0.380E-04    1.00      16.5  T
   3   -474.1268977 -0.281182E-07  0.199E-04    1.00      31.5  T
   4   -474.1268977 -0.755676E-09  0.162E-04    1.00      38.7  T
     SCC iter.                  ...        0 min,  1.421 sec
     gradient                   ...        0 min,  0.855 sec
[...]
     2   6 C        3   6 C                                       1.3788036
     3   6 C        4   6 C                                       1.4309030
     4   6 C        5   6 C                                       1.3542192
     5   6 C        6   6 C                                       1.4308233
     3   6 C        7   7 N                                       1.3747315
     6   6 C        7   7 N                                       1.3671944
     6   6 C        8   6 C                                       1.3953418
     9   6 C       10   6 C                                       1.2132316
    11   6 C       12   6 C                                       1.3996788
    12   6 C       13   6 C                                       1.3835494
    13   6 C       14   7 N                                       1.3305906
    14   7 N       15   6 C                                       1.3305842
    11   6 C       16   6 C                                       1.3996886
    15   6 C       16   6 C                                       1.3835218
     8   6 C       17   6 C                                       1.3948397
    17   6 C       18   6 C                                       1.4284557
    18   6 C       19   6 C                                       1.3553021
    17   6 C       20   7 N                                       1.3717265
    19   6 C       21   6 C                                       1.4280864
    20   7 N       21   6 C                                       1.3699912
    21   6 C       22   6 C                                       1.3970905
    22   6 C       23   6 C                                       1.3970146
    23   6 C       24   6 C                                       1.4280310
    24   6 C       25   6 C                                       1.3553542
    25   6 C       26   6 C                                       1.4285133
    23   6 C       27   7 N                                       1.3700630
    26   6 C       27   7 N                                       1.3717546
    26   6 C       28   6 C                                       1.3949828
    29   6 C       30   6 C                                       1.2132607
    31   6 C       32   6 C                                       1.3997905
    32   6 C       33   6 C                                       1.3834932
    33   6 C       34   7 N                                       1.3306145
    34   7 N       35   6 C                                       1.3305744
    31   6 C       36   6 C                                       1.3996264
    35   6 C       36   6 C                                       1.3836164
    28   6 C       37   6 C                                       1.3953375
    37   6 C       38   6 C                                       1.4308378
    38   6 C       39   6 C                                       1.3542262
     2   6 C       40   6 C                                       1.3787910
    39   6 C       40   6 C                                       1.4309169 (max)
    37   6 C       41   7 N                                       1.3671924
    40   6 C       41   7 N                                       1.3747757
     2   6 C       42   1 H                                       1.0838721
     4   6 C       43   1 H                                       1.0783334
     5   6 C       44   1 H                                       1.0782037
    12   6 C       45   1 H                                       1.0833198
    13   6 C       46   1 H                                       1.0862179
    15   6 C       47   1 H                                       1.0862191
    16   6 C       48   1 H                                       1.0833286
    18   6 C       49   1 H                                       1.0780221
    19   6 C       50   1 H                                       1.0779580 (min)
    24   6 C       51   1 H                                       1.0779854
    25   6 C       52   1 H                                       1.0780361
    32   6 C       53   1 H                                       1.0833368
    33   6 C       54   1 H                                       1.0862256
    35   6 C       55   1 H                                       1.0862332
    36   6 C       56   1 H                                       1.0833255
    38   6 C       57   1 H                                       1.0782075
    39   6 C       58   1 H                                       1.0783417
    60   6 C       61   6 C                                       1.3787875
    61   6 C       62   6 C                                       1.4309155
    62   6 C       63   6 C                                       1.3542308
    63   6 C       64   6 C                                       1.4308124
    61   6 C       65   7 N                                       1.3747356
    64   6 C       65   7 N                                       1.3672140
    64   6 C       66   6 C                                       1.3952407
    67   6 C       68   6 C                                       1.2132500
    69   6 C       70   6 C                                       1.3998297
    70   6 C       71   6 C                                       1.3834584
    71   6 C       72   7 N                                       1.3306197
    72   7 N       73   6 C                                       1.3305682
    69   6 C       74   6 C                                       1.3995794
    73   6 C       74   6 C                                       1.3836431
    66   6 C       75   6 C                                       1.3949827
    75   6 C       76   6 C                                       1.4284776
    76   6 C       77   6 C                                       1.3552990
    75   6 C       78   7 N                                       1.3717675
    77   6 C       79   6 C                                       1.4280502
    78   7 N       79   6 C                                       1.3700551
    79   6 C       80   6 C                                       1.3971482
    80   6 C       81   6 C                                       1.3969891
    81   6 C       82   6 C                                       1.4280518
    82   6 C       83   6 C                                       1.3553291
    83   6 C       84   6 C                                       1.4284781
    81   6 C       85   7 N                                       1.3699776
    84   6 C       85   7 N                                       1.3717610
    84   6 C       86   6 C                                       1.3947689
    87   6 C       88   6 C                                       1.2132367
    89   6 C       90   6 C                                       1.3996382
    90   6 C       91   6 C                                       1.3835813
    91   6 C       92   7 N                                       1.3305810
    92   7 N       93   6 C                                       1.3305905
    89   6 C       94   6 C                                       1.3997305
    93   6 C       94   6 C                                       1.3834924
    86   6 C       95   6 C                                       1.3954311
    95   6 C       96   6 C                                       1.4308482
    96   6 C       97   6 C                                       1.3541942
    60   6 C       98   6 C                                       1.3787730
    97   6 C       98   6 C                                       1.4308925
    95   6 C       99   7 N                                       1.3671802
    98   6 C       99   7 N                                       1.3747841
    60   6 C      100   1 H                                       1.0838737
    62   6 C      101   1 H                                       1.0783419
    63   6 C      102   1 H                                       1.0782096
    70   6 C      103   1 H                                       1.0833451
    71   6 C      104   1 H                                       1.0862262
    73   6 C      105   1 H                                       1.0862305
    74   6 C      106   1 H                                       1.0833182
    76   6 C      107   1 H                                       1.0780253
    77   6 C      108   1 H                                       1.0779603
    82   6 C      109   1 H                                       1.0779822
    83   6 C      110   1 H                                       1.0780316
    90   6 C      111   1 H                                       1.0833107
    91   6 C      112   1 H                                       1.0862168
    93   6 C      113   1 H                                       1.0862194
    94   6 C      114   1 H                                       1.0833357
    96   6 C      115   1 H                                       1.0781962
    97   6 C      116   1 H                                       1.0783329
   117   6 C      118   6 C                                       1.2238595
   119   6 C      120   6 C                                       1.2301442
   121   6 C      122   6 C                                       1.2301703
   123   6 C      124   6 C                                       1.2241313
   125   6 C      126   6 C                                       1.2244611
   127   6 C      128   6 C                                       1.2307925
   129   6 C      130   6 C                                       1.2307678
   131   6 C      132   6 C                                       1.2244584
   133   6 C      134   6 C                                       1.2241450
   135   6 C      136   6 C                                       1.2302677
   137   6 C      138   6 C                                       1.2301435
   139   6 C      140   6 C                                       1.2239118
   142   6 C      143   6 C                                       1.3987510
   143   6 C      144   6 C                                       1.4278254
   144   6 C      145   6 C                                       1.3565312
   145   6 C      146   6 C                                       1.4277846
   143   6 C      147   7 N                                       1.3694196
   146   6 C      147   7 N                                       1.3706717
   146   6 C      148   6 C                                       1.3962671
   149   6 C      150   6 C                                       1.2132897
   151   6 C      152   6 C                                       1.3997764
   152   6 C      153   6 C                                       1.3835706
   153   6 C      154   7 N                                       1.3306080
   154   7 N      155   6 C                                       1.3306230
   151   6 C      156   6 C                                       1.3997065
   155   6 C      156   6 C                                       1.3836019
   148   6 C      157   6 C                                       1.3959101
   157   6 C      158   6 C                                       1.4278647
   158   6 C      159   6 C                                       1.3565257
   157   6 C      160   7 N                                       1.3711352
   159   6 C      161   6 C                                       1.4277513
   160   7 N      161   6 C                                       1.3688988
   161   6 C      162   6 C                                       1.3992679
   162   6 C      163   6 C                                       1.3990921
   163   6 C      164   6 C                                       1.4278045
   164   6 C      165   6 C                                       1.3565544
   165   6 C      166   6 C                                       1.4277889
   163   6 C      167   7 N                                       1.3691680
   166   6 C      167   7 N                                       1.3708350
   166   6 C      168   6 C                                       1.3961741
   169   6 C      170   6 C                                       1.2133214
   171   6 C      172   6 C                                       1.3996410
   172   6 C      173   6 C                                       1.3835966
   173   6 C      174   7 N                                       1.3305597
   174   7 N      175   6 C                                       1.3305735
   171   6 C      176   6 C                                       1.3997625
   175   6 C      176   6 C                                       1.3835273
   168   6 C      177   6 C                                       1.3961364
   177   6 C      178   6 C                                       1.4278411
   178   6 C      179   6 C                                       1.3565753
   142   6 C      180   6 C                                       1.3988048
   179   6 C      180   6 C                                       1.4277835
   177   6 C      181   7 N                                       1.3708295
   180   6 C      181   7 N                                       1.3692219
   144   6 C      182   1 H                                       1.0780026
   145   6 C      183   1 H                                       1.0780757
   152   6 C      184   1 H                                       1.0833405
   153   6 C      185   1 H                                       1.0862666
   155   6 C      186   1 H                                       1.0862325
   156   6 C      187   1 H                                       1.0833731
   158   6 C      188   1 H                                       1.0780668
   159   6 C      189   1 H                                       1.0780047
   164   6 C      190   1 H                                       1.0780067
   165   6 C      191   1 H                                       1.0780752
   172   6 C      192   1 H                                       1.0832969
   173   6 C      193   1 H                                       1.0861975
   175   6 C      194   1 H                                       1.0862061
   176   6 C      195   1 H                                       1.0833176
   178   6 C      196   1 H                                       1.0780821
   179   6 C      197   1 H                                       1.0780148
   199   6 C      200   6 C                                       1.3992398
   200   6 C      201   6 C                                       1.4277747
   201   6 C      202   6 C                                       1.3566034
   202   6 C      203   6 C                                       1.4277932
   200   6 C      204   7 N                                       1.3690846
   203   6 C      204   7 N                                       1.3708506
   203   6 C      205   6 C                                       1.3962573
   206   6 C      207   6 C                                       1.2133103
   208   6 C      209   6 C                                       1.3996672
   209   6 C      210   6 C                                       1.3836028
   210   6 C      211   7 N                                       1.3305756
   211   7 N      212   6 C                                       1.3306025
   208   6 C      213   6 C                                       1.3997752
   212   6 C      213   6 C                                       1.3835400
   205   6 C      214   6 C                                       1.3962019
   214   6 C      215   6 C                                       1.4278323
   215   6 C      216   6 C                                       1.3566398
   214   6 C      217   7 N                                       1.3708320
   216   6 C      218   6 C                                       1.4277931
   217   7 N      218   6 C                                       1.3691681
   218   6 C      219   6 C                                       1.3990267
   219   6 C      220   6 C                                       1.3989217
   220   6 C      221   6 C                                       1.4278377
   221   6 C      222   6 C                                       1.3566592
   222   6 C      223   6 C                                       1.4277550
   220   6 C      224   7 N                                       1.3693223
   223   6 C      224   7 N                                       1.3706261
   223   6 C      225   6 C                                       1.3963055
   226   6 C      227   6 C                                       1.2133217
   228   6 C      229   6 C                                       1.3997836
   229   6 C      230   6 C                                       1.3835047
   230   6 C      231   7 N                                       1.3305773
   231   7 N      232   6 C                                       1.3305509
   228   6 C      233   6 C                                       1.3996121
   232   6 C      233   6 C                                       1.3836122
   225   6 C      234   6 C                                       1.3961750
   234   6 C      235   6 C                                       1.4278311
   235   6 C      236   6 C                                       1.3566013
   199   6 C      237   6 C                                       1.3992992
   236   6 C      237   6 C                                       1.4277505
   234   6 C      238   7 N                                       1.3709621
   237   6 C      238   7 N                                       1.3689373
   201   6 C      239   1 H                                       1.0780104
   202   6 C      240   1 H                                       1.0780749
   209   6 C      241   1 H                                       1.0833055
   210   6 C      242   1 H                                       1.0862278
   212   6 C      243   1 H                                       1.0862207
   213   6 C      244   1 H                                       1.0833560
   215   6 C      245   1 H                                       1.0780829
   216   6 C      246   1 H                                       1.0780176
   221   6 C      247   1 H                                       1.0780166
   222   6 C      248   1 H                                       1.0780899
   229   6 C      249   1 H                                       1.0833204
   230   6 C      250   1 H                                       1.0862014
   232   6 C      251   1 H                                       1.0861949
   233   6 C      252   1 H                                       1.0832884
   235   6 C      253   1 H                                       1.0780721
   236   6 C      254   1 H                                       1.0780066

 * 3 distinct bonds (by element types)

   Z      Z             #   av. dist./Å        max./Å        min./Å
   1 H    6 C          66     1.0815056     1.0862666     1.0779580
   6 C    6 C         132     1.3712165     1.4309169     1.2132316
   6 C    7 N          48     1.3571721     1.3747841     1.3305509


optimized geometry written to: xtbopt.xyz


           -------------------------------------------------
          | TOTAL ENERGY             -465.817501835344 Eh   |
          | GRADIENT NORM               0.000889128909 Eh/α |
          | HOMO-LUMO GAP               1.004790635238 eV   |
           -------------------------------------------------

------------------------------------------------------------------------
 * finished run on 2022/07/30 at 05:21:34.099     
------------------------------------------------------------------------
 total:
 * wall-time:     0 d,  0 h,  7 min, 29.706 sec
 *  cpu-time:     0 d,  0 h,  7 min, 26.821 sec
 * ratio c/w:     0.994 speedup
 SCF:
 * wall-time:     0 d,  0 h,  0 min, 35.563 sec
 *  cpu-time:     0 d,  0 h,  0 min, 35.328 sec
 * ratio c/w:     0.993 speedup
 ANC optimizer:
 * wall-time:     0 d,  0 h,  6 min, 53.795 sec
 *  cpu-time:     0 d,  0 h,  6 min, 51.151 sec
 * ratio c/w:     0.994 speedup

