114
 energy: -193.190459773064 gnorm: 0.466270076495 xtb: 6.5.1 (b24c23e)
C           13.14072300000000       -0.00133200000000       -0.00007300000000
C           13.87515700000000       -1.37849000000000       -0.07195900000000
C           13.28801100000000       -2.62215400000000       -0.13687600000000
C           14.33992900000000       -3.57805200000000       -0.18677700000000
C           15.52838100000000       -2.88086700000000       -0.15038800000000
N           15.23668900000000       -1.54518700000000       -0.08066100000000
C           16.95973700000000       -3.49918800000000       -0.18267400000000
C           18.08229800000000       -2.75438200000000       -0.14379100000000
C           19.36728400000000       -3.40684800000000       -0.17786000000000
C           20.30456800000000       -2.46561900000000       -0.12872300000000
N           18.30412900000000       -1.41216500000000       -0.07371400000000
C           19.65350700000000       -1.16775200000000       -0.06096200000000
C           20.35026900000000        0.00000000000000       -0.00000200000000
C           19.57560400000000        1.39228800000000        0.07268600000000
C           20.13918300000000        2.65282700000000        0.13849900000000
C           19.08115900000000        3.59698500000000        0.18778800000000
C           17.90324700000000        2.88705500000000        0.15071600000000
N           18.20859600000000        1.54991900000000        0.08090700000000
C           16.47045000000000        3.51161700000000        0.18331300000000
C           15.35292900000000        2.76200900000000        0.14417900000000
C           14.04916000000000        3.38673000000000        0.17678400000000
C           13.13267700000000        2.42267700000000        0.12645900000000
C           13.82673200000000        1.15704100000000        0.06039600000000
N           15.16281400000000        1.41826700000000        0.07403500000000
H           12.05800700000000        0.00688600000000        0.00035300000000
H           12.22733500000000       -2.81982100000000       -0.14719200000000
H           14.24066400000000       -4.65111500000000       -0.24279300000000
H           15.91671400000000       -0.78914900000000       -0.04119800000000
H           17.03778000000000       -4.57862200000000       -0.23903200000000
H           19.53224500000000       -4.46776200000000       -0.23325200000000
H           21.36260700000000       -2.65301800000000       -0.13851100000000
H           21.19455700000000        2.87760200000000        0.15023900000000
H           19.16958500000000        4.67108100000000        0.24386500000000
H           17.52989300000000        0.79207700000000        0.04134100000000
H           16.38921800000000        4.59049700000000        0.23963100000000
H           13.86318600000000        4.44388600000000        0.23196600000000
H           12.06579600000000        2.55207700000000        0.13321000000000
C           45.78488200000000        0.00131200000000       -0.00024300000000
C           45.05044800000000        1.35784800000000       -0.24831800000000
C           45.63759400000000        2.58289000000000       -0.47234500000000
C           44.58567500000000        3.52447300000000       -0.64454100000000
C           43.39722300000000        2.83772700000000       -0.51895600000000
N           43.68891600000000        1.52204900000000       -0.27834700000000
C           41.96586800000000        3.44678900000000       -0.63034800000000
C           40.84330600000000        2.71313600000000       -0.49617700000000
C           39.55832000000000        3.35583000000000       -0.61372100000000
C           38.62103700000000        2.42869600000000       -0.44416600000000
N           40.62147499999999        1.39101900000000       -0.25438200000000
C           39.27209700000000        1.15026500000000       -0.21036000000000
C           38.57533500000000        0.00000000000000       -0.00000200000000
C           39.34999999999999       -1.37143800000000        0.25081000000000
C           38.78642200000000       -2.61310000000000        0.47789300000000
C           39.84444600000000       -3.54311900000000        0.64797300000000
C           41.02235700000000       -2.84382200000000        0.52007500000000
N           40.71700900000000       -1.52671000000000        0.27919800000000
C           42.45515400000000       -3.45903200000000        0.63257700000000
C           43.57267500000000       -2.72065000000000        0.49754100000000
C           44.87644400000000       -3.33601700000000        0.61007100000000
C           45.79292699999999       -2.38639900000000        0.43640800000000
C           45.09887200000000       -1.13971500000000        0.20842300000000
N           43.76279000000000       -1.39702900000000        0.25548300000000
H           46.86759800000000       -0.00678300000000        0.00123400000000
H           46.69826999999999        2.77759600000000       -0.50795100000000
H           44.68493999999999        4.58146700000000       -0.83784000000000
H           43.00889100000000        0.77733100000000       -0.14215900000000
H           41.88782499999999        4.51005700000000       -0.82480500000000
H           39.39336000000000        4.40085700000000       -0.80484100000000
H           37.56299800000000        2.61328800000000       -0.47792800000000
H           37.73104800000000       -2.83450800000000        0.51838900000000
H           39.75601900000000       -4.60113000000000        0.84146700000000
H           41.39571200000000       -0.78021700000000        0.14267700000000
H           42.53638599999999       -4.52175600000000        0.82692300000000
H           45.06241900000000       -4.37734200000000        0.80050200000000
H           46.85980900000000       -2.51386300000000        0.45971400000000
C           23.14459700000000        0.00000000000000       -0.00000200000000
C           24.36651400000000        0.00000000000000       -0.00000200000000
C           34.55909000000000        0.00000000000000       -0.00000200000000
C           35.78100800000000        0.00000000000000       -0.00000200000000
C           25.80810600000000        0.00000000000000        0.00000400000000
C           26.58814600000000        1.38753500000000       -0.01732100000000
C           26.03604100000000        2.65363600000000       -0.03314500000000
C           27.10465800000000        3.58626000000000       -0.04477700000000
C           28.27556600000000        2.86263200000000       -0.03571700000000
N           27.95687300000000        1.52960500000000       -0.01907500000000
C           29.70793800000000        3.47730000000000       -0.04336500000000
C           30.83356300000000        2.73924700000000       -0.03415600000000
C           32.11386100000000        3.40264500000000       -0.04241000000000
C           33.05831100000000        2.46767200000000       -0.03074800000000
N           31.06355300000000        1.39875600000000       -0.01744900000000
C           32.41528500000000        1.16520200000000       -0.01452400000000
C           33.11749800000000        0.00000000000000        0.00000400000000
C           32.33745800000000       -1.38753500000000        0.01728500000000
C           32.88956300000000       -2.65363800000000        0.03302100000000
C           31.82094600000000       -3.58626100000000        0.04465800000000
C           30.65003900000000       -2.86263200000000        0.03568600000000
N           30.96873200000000       -1.52960500000000        0.01908300000000
C           29.21766700000000       -3.47729900000000        0.04337800000000
C           28.09204200000000       -2.73924700000000        0.03417600000000
C           26.81174400000000       -3.40264400000000        0.04247400000000
C           25.86729400000000       -2.46767200000000        0.03081000000000
C           26.51032000000000       -1.16520200000000        0.01454200000000
N           27.86205200000000       -1.39875600000000        0.01744300000000
H           24.98283899999999        2.88885900000000       -0.03609900000000
H           27.02802900000000        4.66276100000000       -0.05822400000000
H           28.62168600000000        0.75899600000000       -0.00944900000000
H           29.78482600000000        4.55863900000000       -0.05683800000000
H           32.27100700000000        4.46618900000000       -0.05566200000000
H           34.11520500000000        2.66187500000000       -0.03315700000000
H           33.94276600000000       -2.88886100000000        0.03591500000000
H           31.89757600000000       -4.66276200000000        0.05805100000000
H           30.30391800000000       -0.75899500000000        0.00949900000000
H           29.14077800000000       -4.55863800000000        0.05688000000000
H           26.65459800000000       -4.46618800000000        0.05575500000000
H           24.81040000000000       -2.66187500000000        0.03324800000000
114
 energy: -193.329459330427 gnorm: 0.297659678025 xtb: 6.5.1 (b24c23e)
C           13.17744337046867       -0.04273341926633       -0.00223589413032
C           13.87430206895563       -1.35968583075704       -0.07097913292625
C           13.29500579297235       -2.62623443696654       -0.13709128711440
C           14.33562818054770       -3.57209233057422       -0.18646817684883
C           15.54684938320023       -2.87961774164579       -0.15032416971464
N           15.23916447649776       -1.54110990655869       -0.08045026970126
C           16.91752776154970       -3.46364052867240       -0.18081972016710
C           18.08318882017524       -2.74046089069689       -0.14306742257223
C           19.37315827905111       -3.40898460363845       -0.17797112447375
C           20.31838783262423       -2.46055571901179       -0.12845528053565
N           18.29774636869911       -1.39748212953063       -0.07294853697688
C           19.65513931710140       -1.15737087215855       -0.06041645755893
C           20.30341878392041        0.04806874903569        0.00249609772686
C           19.58380724018070        1.37406796484993        0.07173303009162
C           20.13764957297345        2.65411315941259        0.13856213298573
C           19.08833951341093        3.58903566377591        0.18736937980024
C           17.88723758922055        2.88414651477775        0.15056278753593
N           18.21044311714801        1.54521957153666        0.08065924888388
C           16.51522718104464        3.47675537167349        0.18149162110289
C           15.35613776379194        2.74970653691253        0.14353493807932
C           14.04729415544643        3.39391028682072        0.17715701364030
C           13.12586423755167        2.42474799077222        0.12656497828433
C           13.83872106101493        1.15472808402290        0.06027309219256
N           15.17634715310325        1.40412406776008        0.07329451497866
H           12.08714976874958       -0.02272679106581       -0.00119463061232
H           12.23370552722978       -2.82510677004605       -0.14747004454908
H           14.23517412122848       -4.64574258521079       -0.24251437183725
H           15.91683002641590       -0.78766593033455       -0.04112226354710
H           17.00762093792277       -4.55002190986902       -0.23753995279895
H           19.52969083851412       -4.47348670068418       -0.23355198807123
H           21.37789955534701       -2.64028806939965       -0.13784466222646
H           21.19259366532831        2.87912346260424        0.15031679293066
H           19.17609305511270        4.66425624955779        0.24350782400283
H           17.53287651709542        0.79063702169231        0.04126489668505
H           16.42212186839171        4.56262514542464        0.23817536109788
H           13.86736472193035        4.45351507685361        0.23246688401818
H           12.05675048427088        2.54786676209846        0.13298816404804
C           45.74816153486680        0.04209265632329       -0.00770913246296
C           45.05130282267716        1.33932488123750       -0.24493862477640
C           45.63059885277863        2.58690833072964       -0.47308875461379
C           44.58997580690934        3.51860190115865       -0.64347519471231
C           43.37875473582767        2.83649611641084       -0.51873719100676
N           43.68644038654648        1.51803220290243       -0.27761975305200
C           42.00807679171450        3.41177255372580       -0.62395129189028
C           40.84241528470227        2.69942185854017       -0.49367975306441
C           39.55244604900229        3.35793473406083       -0.61410615676122
C           38.60721639285232        2.42371008370738       -0.44324670808406
N           40.62785798373216        1.37655598018060       -0.25174071772083
C           39.27046416481321        1.14004117771608       -0.20848404937121
C           38.62218995893643       -0.04735290736910        0.00862566339040
C           39.34179606951269       -1.35349201952485        0.24752208902774
C           38.78795501336711       -2.61436894367986        0.47811232167120
C           39.83726530152778       -3.53528989306360        0.64653085782875
C           41.03836664557776       -2.84095682799109        0.51954570096616
N           40.71516144351961       -1.52208094968656        0.27834264718353
C           42.41037691034182       -3.42469264881562        0.62629023481295
C           43.56946656077117       -2.70853194712729        0.49531762590920
C           44.87831014785284       -3.34308989961819        0.61135649022763
C           45.79973999529116       -2.38843987986885        0.43677246150200
C           45.08688324087537       -1.13743744655832        0.20799840853558
N           43.74925712405981       -1.38309869319665        0.25292661364580
H           46.83845514707424        0.02238554651394       -0.00410870089497
H           46.69189923696032        2.78280202816316       -0.50891186709793
H           44.69042973333487        4.57617466318445       -0.83688014823420
H           43.00877511527556        0.77586970964605       -0.14189868345379
H           41.91798369758362        4.48188461051512       -0.81965873691419
H           39.39591416186359        4.40649478786348       -0.80587740753671
H           37.54770655080932        2.60074868470125       -0.47563206686835
H           37.73301221671748       -2.83600749443925        0.51865723708817
H           39.74951123672358       -4.59440750942375        0.84023312753873
H           41.39272823786843       -0.77879822168306        0.14241252474278
H           42.50348217357941       -4.49430181814697        0.82189735731374
H           45.05824044029011       -4.38682758668219        0.80222894969952
H           46.86885412261345       -2.50971643130119        0.45894686011215
C           23.14514865125744        0.00091016804272       -0.00005662856821
C           24.37257272229412        0.01497728688731       -0.00028529597735
C           34.55303389139124       -0.01497764749093        0.00025993503017
C           35.78045724441657       -0.00091126400135        0.00003886842430
C           25.81991373873844        0.04155224976191       -0.00041667314468
C           26.58043098620462        1.36923732242511       -0.01707953363636
C           26.03861482161362        2.65381653298740       -0.03314437972771
C           27.09866057717421        3.57877648372035       -0.04468252950381
C           28.29084333634100        2.85945749153154       -0.03567841734524
N           27.95380559773704        1.52420612521863       -0.01900650320269
C           29.66579351962540        3.44063159960934       -0.04290622667063
C           30.83312065925073        2.72498487406568       -0.03397304699095
C           32.11730739622982        3.40736714986002       -0.04247063385590
C           33.06888042806841        2.46592124429556       -0.03073544948038
N           31.05858795761012        1.37908389755782       -0.01721508156923
C           32.40953922525882        1.16312329174396       -0.01452893623299
C           33.10569070301896       -0.04155257996431        0.00041719825506
C           32.34517299698143       -1.36923723468958        0.01704082283587
C           32.88698916135890       -2.65381820996330        0.03303286553848
C           31.82694365863971       -3.57877718697232        0.04457001595409
C           30.63476096534196       -2.85945718702446        0.03564793909429
N           30.97179845231781       -1.52420526797002        0.01901892144832
C           29.25981156498727       -3.44063090866893        0.04292022081243
C           28.09248378916266       -2.72498501163009        0.03399882730863
C           26.80829737118017       -3.40736705480992        0.04252930407089
C           25.85672428955846       -2.46592147346213        0.03078253011879
C           26.51606507778981       -1.16312364193925        0.01453133835501
N           27.86701562380668       -1.37908470106391        0.01720156905432
H           24.98580875650406        2.89036915188015       -0.03611559682637
H           27.02208567908272        4.65619096204482       -0.05814228141032
H           28.61798687173118        0.75685610615354       -0.00942068052298
H           29.75407198231788        4.52925028869423       -0.05647282080452
H           32.26689881196926        4.47356614098084       -0.05575306261282
H           34.12792360177033        2.65213285819832       -0.03304409073866
H           33.93979456627095       -2.89037080109360        0.03593598031518
H           31.90351932400466       -4.65619207713139        0.05796883851810
H           30.30761687314199       -0.75685486977103        0.00947048243606
H           29.17153242575098       -4.52924940987920        0.05651061712473
H           26.65870605726741       -4.47356579805089        0.05584625994657
H           24.79767924589574       -2.65213380267696        0.03312472977792
114
 energy: -193.415152753848 gnorm: 0.071203946925 xtb: 6.5.1 (b24c23e)
C           13.22457239531980       -0.09386549632427       -0.00490230505612
C           13.87370171896315       -1.33087418527539       -0.06947272144448
C           13.30723380571344       -2.63372824285910       -0.13748031302861
C           14.32832155230943       -3.56150490317692       -0.18591354310152
C           15.57635445808187       -2.87713763998963       -0.15019258918479
N           15.24283521333052       -1.53602846673186       -0.08018294788579
C           16.86633652424488       -3.41819781494941       -0.17844592462192
C           18.08657862012616       -2.72727253537614       -0.14238166157316
C           19.37602160503328       -3.40765994461510       -0.17790063413772
C           20.32759242861630       -2.45408100269206       -0.12810732008753
N           18.29125864571523       -1.38801455702981       -0.07245656873759
C           19.65746521241227       -1.15175159615459       -0.06009884489600
C           20.22943180186429        0.10637079438257        0.00559083171360
C           19.59666198138579        1.34282757512044        0.07011795847789
C           20.13299436744839        2.65754186793761        0.13874208909594
C           19.09970502787787        3.57604734467379        0.18668932048996
C           17.86328903002418        2.87992564194709        0.15033978564832
N           18.21273258385809        1.53889034519234        0.08032674647929
C           16.57037605894325        3.43114798590168        0.17911108404341
C           15.35817296402790        2.73907173084173        0.14298111953759
C           14.04953895905365        3.39773635711198        0.17735878278881
C           13.12300104803095        2.42341767993321        0.12649758742851
C           13.84959689626703        1.15426047445387        0.06025028670443
N           15.18488660698589        1.39467572167365        0.07280296908749
H           12.12487221198714       -0.05096456852045       -0.00266546448016
H           12.24349422250937       -2.83064841636412       -0.14775653180320
H           14.22964506823626       -4.63719226943737       -0.24206531727843
H           15.91924249550790       -0.78399748256662       -0.04092809113620
H           16.98006976967918       -4.51250451730690       -0.23557693903991
H           19.52394503929619       -4.47493272667995       -0.23362628261850
H           21.38974844447468       -2.62319884172488       -0.13694353098162
H           21.18925553393835        2.88047953946965        0.15039014726706
H           19.18326556901543        4.65371822328655        0.24295860243002
H           17.53448035151711        0.78701583210837        0.04107887963898
H           16.45469922570565        4.52519176119347        0.23622552509215
H           13.87604406246044        4.45943564221056        0.23277812886048
H           12.05188004790256        2.53948997508174        0.13255339992739
C           45.70103232435071        0.09245985429720       -0.01691029499650
C           45.05190323815544        1.31094540854896       -0.23973994840645
C           45.61837053366541        2.59429005250465       -0.47443023335189
C           44.59728262495383        3.50817315277706       -0.64156016216799
C           43.34925025748445        2.83405380348824       -0.51828259211087
N           43.68276974247478        1.51302749324239       -0.27669620490326
C           42.05926800536069        3.36700992663848       -0.61576125298323
C           40.83902644185625        2.68642803425933       -0.49131160362628
C           39.54958364103871        3.35662818851705       -0.61386312593781
C           38.59801203627724        2.41733465644930       -0.44205065299335
N           40.63434759455149        1.36722745120348       -0.25004162017844
C           39.26813869656685        1.13451466320034       -0.20739645835526
C           38.69617924318543       -0.10476635563727        0.01928120962467
C           39.32894564624901       -1.32271438504870        0.24194693987313
C           38.79261220735057       -2.61774582515768        0.47873701456071
C           39.82590068397887       -3.52249666048745        0.64418977430429
C           41.06231666288085       -2.83680187911673        0.51878078174917
N           40.71287459509645       -1.51584898460621        0.27719925024908
C           42.35522848276354       -3.37976870108852        0.61807784338913
C           43.56743184989411       -2.69805555213451        0.49340904064524
C           44.87606544133903       -3.34685743234993        0.61205478078803
C           45.80260335416610       -2.38712899126871        0.43654223254392
C           45.07600750430474       -1.13697649608045        0.20792220246316
N           43.74071760983344       -1.37379141915829        0.25123256814549
H           46.80073253948466        0.05020119689252       -0.00918407573867
H           46.68211072900841        2.78826162586034       -0.50990019771276
H           44.69595913971388        4.56775318138593       -0.83533161595217
H           43.00636260760222        0.77225706766569       -0.14122842578507
H           41.94553467359956        4.44493019288331       -0.81288808888809
H           39.40166017207986        4.40791735757295       -0.80613476596982
H           37.53585940237887        2.58391828041336       -0.47252898194379
H           37.73635122669554       -2.83734142159918        0.51891159172171
H           39.74233870687779       -4.58402730612832        0.83834028098186
H           41.39112663210560       -0.77523014076753        0.14177047445864
H           42.47090483149013       -4.45742724683811        0.81516923171209
H           45.04956081343639       -4.39265858234343        0.80330541729303
H           46.87372419358324       -2.50146384609932        0.45744852007426
C           23.15938223240060        0.00999241315132        0.00010694277970
C           24.38556584050325        0.05619623045242       -0.00047347421461
C           34.54003810333536       -0.05617601004168        0.00108133998730
C           35.76622199158162       -0.00991979971509        0.00062919419398
C           25.84336782046608        0.08571620479775       -0.00118423992084
C           26.56913381828531        1.33861961534435       -0.01672909755412
C           26.04400912601533        2.65503739888351       -0.03314705562240
C           27.08881011365250        3.56607403872924       -0.04451865902262
C           28.31301152034620        2.85307920089408       -0.03558950556901
N           27.94817654134454        1.51504735503131       -0.01888101383874
C           29.61503126358400        3.39319342517429       -0.04230926053002
C           30.83456895528644        2.71397708074419       -0.03382047423927
C           32.11706665986427        3.40981281675815       -0.04250806291806
C           33.07579630565727        2.46307302584524       -0.03073847479919
N           31.05886238952544        1.36478724731727       -0.01704032868768
C           32.40438025267739        1.16654034998462       -0.01461068328908
C           33.08223383796513       -0.08571849436733        0.00117029660496
C           32.35646884183284       -1.33862170183239        0.01658935686871
C           32.88159444480071       -2.65503965615510        0.03303287969330
C           31.83679407630151       -3.56607464050890        0.04442049842193
C           30.61259126614686       -2.85307912062948        0.03557861711593
N           30.97742584616689       -1.51504635730333        0.01888668695768
C           29.31057397742723       -3.39319239229669        0.04233969596550
C           28.09103429000844       -2.71397673305583        0.03387292743593
C           26.80853745271051       -3.40981373355532        0.04256519955736
C           25.84980735410498       -2.46307445191186        0.03075110412279
C           26.52122149352948       -1.16654313338874        0.01450894568600
N           27.86673876926893       -1.36478905926657        0.01702286247301
H           24.99016529203464        2.89167788883039       -0.03613413378323
H           27.01576005998687        4.64577274345736       -0.05801335215642
H           28.61495408177860        0.75157176562927       -0.00935799859772
H           29.72469271412783        4.49024766688789       -0.05600079616906
H           32.25843339002642        4.47791792313372       -0.05580374217976
H           34.13732061116715        2.63888694960649       -0.03288887326938
H           33.93543658466164       -2.89167943450386        0.03595259062659
H           31.90984474496101       -4.64577396378735        0.05784436589711
H           30.31064903222070       -0.75157039199112        0.00940156675434
H           29.20091215596620       -4.49024689512504        0.05601193620107
H           26.66717124989201       -4.47791833184747        0.05590124095185
H           24.78827986468936       -2.63888968599784        0.03295141187077
114
 energy: -193.434466462541 gnorm: 0.041195045289 xtb: 6.5.1 (b24c23e)
C           13.25036492344308       -0.10330473814772       -0.00538680754622
C           13.89107937837291       -1.33352937998578       -0.06960335145430
C           13.31882013729941       -2.63735610472592       -0.13766219827506
C           14.33335117558143       -3.55402910842474       -0.18551687954804
C           15.57995902115475       -2.85806366613812       -0.14919183776678
N           15.25430308502263       -1.52296933210850       -0.07949457572279
C           16.86622100255551       -3.38344831903347       -0.17662815010163
C           18.09388030843550       -2.70494420975978       -0.14120777449469
C           19.37832507888537       -3.39084271600404       -0.17701134044369
C           20.33309140302179       -2.43819916942249       -0.12724720442365
N           18.29376644786940       -1.36948107067879       -0.07147481619743
C           19.65937142913914       -1.14629488988929       -0.05978936785769
C           20.22029491734996        0.10704816528936        0.00568181468137
C           19.60346793532523        1.34286077933525        0.07014025715512
C           20.14415480867666        2.65858621760779        0.13880882223469
C           19.11588077391944        3.56482670407544        0.18610361705598
C           17.88083910305008        2.85935407047426        0.14926970353179
N           18.22135064369715        1.52524461335689        0.07962227702196
C           16.59245308909487        3.39714795431708        0.17734105826006
C           15.37174791437529        2.72134621548935        0.14206144061656
C           14.06845324992513        3.38709050920131        0.17681103125845
C           13.13808545503895        2.41352361192995        0.12598910305725
C           13.86543212837306        1.14828945647888        0.05994549157980
N           15.19854458967597        1.38021296874293        0.07205072115053
H           12.15993489131179       -0.08763774999320       -0.00456982482888
H           12.25687151243529       -2.83572518479171       -0.14801345409675
H           14.23507991118597       -4.62824895830912       -0.24159171468102
H           15.92912099525743       -0.76817454314268       -0.04009437051889
H           16.95232674439746       -4.47041593885610       -0.23337462751427
H           19.51794101472561       -4.46056000085900       -0.23287295582897
H           21.40043385806932       -2.59243966855100       -0.13530022126955
H           21.19945259171250        2.87991381970445        0.15037372325541
H           19.19612927866783        4.64072615316260        0.24227929324232
H           17.54472418894328        0.77064953223484        0.04023907949270
H           16.50599405760607        4.48411030018318        0.23408852425442
H           13.90204182731685        4.45236055205949        0.23241791161039
H           12.06406517628506        2.52458956846588        0.13178500424506
C           45.67524044037454        0.10175857563003       -0.01860068877966