77
 energy: -123.843555696616 gnorm: 0.261707514786 xtb: 6.4.1 (bd6e46d)
Co       -0.10352200000000    0.17663700000000    0.01146100000000
C        -3.53280400000000    0.54053000000000    0.16376100000000
C        -4.98488400000000    0.82024000000000    0.10353000000000
C        -5.51037600000000    1.57637200000000   -0.95652100000000
C        -6.87733000000000    1.86548300000000   -1.00058400000000
C        -7.72340400000000    1.40839700000000    0.01575900000000
C        -7.20456300000000    0.66099300000000    1.07779300000000
C        -5.83866500000000    0.36580900000000    1.12387400000000
C        -3.07892400000000   -0.70766900000000   -0.04789100000000
C        -3.89571900000000   -1.86922500000000   -0.38282600000000
C        -3.06695300000000   -2.89133500000000   -0.44471300000000
C        -1.71694000000000   -2.39459800000000   -0.14584000000000
C        -0.52016900000000   -3.26697200000000   -0.03668600000000
C        -0.74736200000000   -4.73054000000000    0.01425100000000
C        -0.32143200000000   -5.55248100000000   -1.04293000000000
C        -0.55617800000000   -6.92983500000000   -0.99896100000000
C        -1.22105100000000   -7.49300800000000    0.09437600000000
C        -1.65487900000000   -6.68036900000000    1.14541500000000
C        -1.42087100000000   -5.30208500000000    1.10678500000000
C         0.73913200000000   -2.78408000000000    0.02889800000000
C         1.94076500000000   -3.60060600000000    0.22564900000000
C         2.99039900000000   -2.80425400000000    0.22176700000000
C         2.52618400000000   -1.42839300000000    0.01804800000000
N         1.10010100000000   -1.40536500000000   -0.08988200000000
C         3.32945100000000   -0.34687500000000   -0.07219300000000
C         4.80034500000000   -0.51278500000000    0.00134600000000
C         5.49426700000000   -1.18880000000000   -1.01690000000000
C         6.88465000000000   -1.32153900000000   -0.95058800000000
C         7.58961000000000   -0.77598200000000    0.12749700000000
C         6.90597500000000   -0.09648600000000    1.14078500000000
C         5.51597400000000    0.03985400000000    1.07633500000000
C         2.80959000000000    1.03336100000000   -0.23702900000000
C         3.63874800000000    2.17481700000000   -0.64310100000000
C         2.88139600000000    3.25245000000000   -0.61450200000000
N         1.59254700000000    1.39558300000000    0.02477400000000
C         1.55892300000000    2.80684800000000   -0.18777000000000
C         0.48751100000000    3.59433500000000    0.02742800000000
C         0.60309500000000    5.06847100000000   -0.10038800000000
C         1.46383900000000    5.79298500000000    0.74375000000000
C         1.55188200000000    7.18419500000000    0.63369500000000
C         0.77690800000000    7.86215100000000   -0.31164600000000
C        -0.08906000000000    7.14925300000000   -1.14749800000000
C        -0.18021400000000    5.75764200000000   -1.04139200000000
C        -0.83007300000000    3.01641800000000    0.37727900000000
C        -1.80509800000000    3.67827600000000    0.99025500000000
C        -2.95955900000000    2.80062200000000    1.02870700000000
C        -2.60890500000000    1.66412300000000    0.43725100000000
N        -1.25303800000000    1.70788800000000   -0.00255300000000
N        -1.71775300000000   -1.11807400000000    0.08288300000000
H        -4.86172400000000    1.93989500000000   -1.74748400000000
H        -7.28118700000000    2.44816300000000   -1.81949900000000
H        -8.78054400000000    1.63576700000000   -0.01908300000000
H        -7.86171300000000    0.31561400000000    1.86552400000000
H        -5.44263600000000   -0.20438100000000    1.95571400000000
H        -4.96374700000000   -1.91097000000000   -0.55372000000000
H        -3.35174200000000   -3.90924500000000   -0.67711700000000
H         0.18854000000000   -5.12601000000000   -1.89891400000000
H        -0.22732800000000   -7.56080700000000   -1.81451400000000
H        -1.40251900000000   -8.55919700000000    0.12495400000000
H        -2.17473600000000   -7.11875400000000    1.98815100000000
H        -1.76477100000000   -4.68003200000000    1.92407400000000
H         1.98769900000000   -4.67177300000000    0.37202900000000
H         4.01009800000000   -3.13837500000000    0.36542300000000
H         4.95795300000000   -1.60891900000000   -1.85875300000000
H         7.41634200000000   -1.84324300000000   -1.73744600000000
H         8.66597500000000   -0.87926600000000    0.17723500000000
H         7.45326100000000    0.32726300000000    1.97318400000000
H         4.99685000000000    0.57316800000000    1.86422800000000
H         4.68209200000000    2.15357600000000   -0.92908900000000
H         3.19823900000000    4.25365600000000   -0.87493000000000
H         2.06137600000000    5.28087600000000    1.48924700000000
H         2.21735900000000    7.73608900000000    1.28586700000000
H         0.84287500000000    8.93992400000000   -0.39273700000000
H        -0.69070800000000    7.67550900000000   -1.87679900000000
H        -0.85632000000000    5.21695500000000   -1.69305600000000
H        -1.76274100000000    4.69651800000000    1.35453400000000
H        -3.93506700000000    3.04309700000000    1.42850600000000
77
 energy: -123.887370284857 gnorm: 0.147293176793 xtb: 6.4.1 (bd6e46d)
Co       -0.08340055833989    0.15324402213209    0.01782263111764
C        -3.50977724533633    0.56257263261102    0.15813139067650
C        -4.97056212178607    0.84235725096384    0.11401226335377
C        -5.50770416635322    1.58133149317241   -0.94221353451804
C        -6.86804433339943    1.85814598379655   -0.99120924887218
C        -7.70989217643354    1.40552196956166    0.01564721850297
C        -7.18974044365397    0.66327120927685    1.06712817982032
C        -5.83066773888398    0.37550276345927    1.11393666141587
C        -3.05870491680653   -0.70039864583808   -0.05417097974152
C        -3.87260369676199   -1.85861280095646   -0.37598450723191
C        -3.03936269206033   -2.90911127949167   -0.43372633241897
C        -1.70176790467843   -2.41037610604802   -0.14606810721015
C        -0.53971995196847   -3.26088484469432   -0.04059715463500
C        -0.76294755713403   -4.72800288034085    0.00732787352893
C        -0.32625415473130   -5.55258923042792   -1.03244187509791
C        -0.55809672226691   -6.92089523390243   -0.98962261490092
C        -1.21933241407169   -7.48286379583742    0.09391858487050
C        -1.64932769398971   -6.67347079712521    1.13615288083037
C        -1.42487514160418   -5.30381822226258    1.09348596907768
C         0.73427072240082   -2.76706668783901    0.03045636561369
C         1.92012236960045   -3.58954476464930    0.22270857852336
C         2.98484378095324   -2.78150576430629    0.22034513306670
C         2.51107690294300   -1.41931072245973    0.02065092166404
N         1.11100608147728   -1.41989531764704   -0.06659611447059
C         3.32858896137016   -0.32689968982582   -0.07644538815553
C         4.80189791952483   -0.49692870988616   -0.00742737339934
C         5.49560063346867   -1.18371720472201   -1.00697842040474
C         6.87624738144849   -1.31677170587075   -0.94119063026730
C         7.57895672979733   -0.77563881973874    0.12706310462908
C         6.89791398279428   -0.10049043486385    1.13078872918166
C         5.51845298962708    0.04200154223112    1.06293064597923
C         2.82039468803389    1.01562698297578   -0.23629514775702
C         3.64919206024102    2.14526967509091   -0.63015738993901
C         2.86584824628637    3.23504710474478   -0.60649723636826
N         1.57075831980260    1.39055781949206   -0.02037193795950
C         1.54662214078779    2.79093925543926   -0.19442262019620
C         0.46092578169955    3.57981701807657    0.02312496781708
C         0.58058883722513    5.05952619352092   -0.08651598274977
C         1.45265205996308    5.78548069192088    0.73449826984386
C         1.54323145764164    7.16848495898994    0.62561073204492
C         0.77536409959101    7.84710364685221   -0.31060058747107
C        -0.08293731669170    7.13735555728749   -1.13938076550208
C        -0.18296862109022    5.75615213566674   -1.02706363374356
C        -0.83037063527548    2.99909667357785    0.35948089152638
C        -1.83711093207259    3.68853047700680    0.98232958781639
C        -2.96121764164801    2.83422637193428    1.02029893522746
C        -2.59203342893195    1.65948934903319    0.42014730382224
N        -1.23285815035401    1.68416448824069    0.05146653236922
N        -1.70906363553545   -1.10138704285178    0.04342309990592
H        -4.86169038621381    1.93635917225920   -1.73438002452957
H        -7.27268611646896    2.43817791799839   -1.81048403376170
H        -8.76726445690343    1.63240685268463   -0.01840292253776
H        -7.84642992172059    0.31663009572989    1.85482682640876
H        -5.43620333437659   -0.19823348037929    1.94194259904300
H        -4.93786612011057   -1.88039019846382   -0.54441973630582
H        -3.31745432108176   -3.92228401160793   -0.66775069386090
H         0.18264169137745   -5.12352168593431   -1.88565499369357
H        -0.22920375448976   -7.55101500320321   -1.80542125900180
H        -1.40054186327297   -8.54876894948395    0.12463319476945
H        -2.16681439276545   -7.11106772092126    1.97976393175363
H        -1.76066462026284   -4.68104539582072    1.91188012820771
H         1.95055423645434   -4.65812745010158    0.36417101145089
H         4.00630292091881   -3.09883453264010    0.35822238661170
H         4.95742441333219   -1.60213208850358   -1.84702997142587
H         7.40719888090351   -1.83761455374083   -1.72763015383555
H         8.65473336644242   -0.87865031457432    0.17650734273531
H         7.44443613084603    0.32150248468626    1.96387971690428
H         4.99658153105501    0.56813165901848    1.85149641666681
H         4.68660398980228    2.11877987787159   -0.91570266254736
H         3.16439377774686    4.23921154905179   -0.86186674892730
H         2.05020712996677    5.27401995134615    1.47747552844985
H         2.20867852760630    7.72082378702240    1.27720952763543
H         0.84284632314129    8.92439890883307   -0.39195158790450
H        -0.68299611569049    7.66453176487877   -1.86920040437715
H        -0.85162579497283    5.21554701707233   -1.68262686670079
H        -1.78297090799080    4.69503125003538    1.35863454616507
H        -3.92866296809069    3.06297153141680    1.43145603339255
77
 energy: -123.910950586222 gnorm: 0.042816243578 xtb: 6.4.1 (bd6e46d)
Co       -0.07097319842182    0.14145892078044   -0.01559533386314
C        -3.47271080401924    0.58856046318751    0.16028383051890
C        -4.94451960115728    0.86015045626295    0.12758339808613
C        -5.49376432923307    1.58774147653095   -0.92663220527556
C        -6.85082816171533    1.85483129220762   -0.98156978285737
C        -7.69253770709729    1.40353996362576    0.01718983151660
C        -7.16805832847252    0.66427144466802    1.06122045662767
C        -5.81257405324835    0.38443101518049    1.11020573148754
C        -3.01916165535223   -0.69308805443142   -0.07354691963849
C        -3.83683346313428   -1.84027372756283   -0.36971561769565
C        -3.00663560159766   -2.91392485095691   -0.41465124659094
C        -1.67888260139540   -2.42284246602426   -0.14557841678691
C        -0.55652427534053   -3.24549183553160   -0.04362720073326
C        -0.76844536295460   -4.71802544882172    0.00165340862606
C        -0.32955624316542   -5.54635359040658   -1.02746947920000
C        -0.55922236828113   -6.90935842206253   -0.98492668410070
C        -1.21808005029465   -7.47253650108958    0.09248297704711
C        -1.64617526038178   -6.66285603168266    1.12812713566063
C        -1.42608718462493   -5.29860106274517    1.08247612220775
C         0.73563839436131   -2.73886276669540    0.04123718154581
C         1.89888402949062   -3.57351864076667    0.22131528228889
C         2.97486325487450   -2.75685540632950    0.22021792965449
C         2.48383667923181   -1.41290292139514    0.03355614724734
N         1.11479622618186   -1.42468943691486   -0.04742587191343
C         3.31820350999343   -0.30710407584447   -0.08052640680436
C         4.79368311798113   -0.48878665601162   -0.01506096513467
C         5.49049223905659   -1.17857724987304   -1.00308375241588
C         6.86524926494626   -1.31231416995022   -0.93686215162148
C         7.56832799450824   -0.77452294816761    0.12536493799563
C         6.88673287054887   -0.10104751080820    1.12181400472313
C         5.51345720550610    0.04395276980213    1.05117699302080
C         2.82580661459834    0.99085310938888   -0.23582902090592
C         3.64693721270395    2.11482034218784   -0.60636588172231
C         2.83985843053103    3.20731203841986   -0.59753329420519
N         1.53836951498456    1.37754742788996   -0.06252711582584
C         1.52810816953806    2.75469473966655   -0.21531732698680
C         0.42708076735977    3.55276374935232    0.02687047340900
C         0.55837089185001    5.03791920559661   -0.06967474985929
C         1.43862041326444    5.76774219859409    0.73271394876168
C         1.53474038089470    7.14499757563145    0.62189850218796
C         0.77256893234959    7.82805702510393   -0.30808281330789
C        -0.08337148648657    7.11902792703670   -1.12956644853497
C        -0.19049493079521    5.74436756456945   -1.01072408075271
C        -0.82342997662991    2.97360445844547    0.35488522531216
C        -1.87754008704240    3.69882847698871    0.95929879502442
C        -2.96107396664818    2.87550447892900    0.99633369383430
C        -2.56862407106073    1.64607972726408    0.41610134151042
N        -1.22366761619903    1.67510279804232    0.09928471649480
N        -1.69047200860537   -1.07609416274902    0.00687550758448
H        -4.85009531732317    1.93939236052366   -1.71939053830914
H        -7.25666660088854    2.42694591772987   -1.80536853410136
H        -8.75093701069287    1.62634501710743   -0.01814919612260
H        -7.82465125463875    0.31027692812780    1.84571746014314
H        -5.42094831747866   -0.19475960955642    1.93423458049804
H        -4.90110044011798   -1.84030918325177   -0.53003675827278
H        -3.28000285522348   -3.92437548687974   -0.64540961921815
H         0.18076856020277   -5.11502495935444   -1.87701958380997
H        -0.22633404882238   -7.53903439426867   -1.79902955363488
H        -1.39795630771309   -8.53839579149721    0.12432944438799
H        -2.15923922705712   -7.09941527192930    1.97440008108998
H        -1.76050854432283   -4.67399821782171    1.89897473039986
H         1.90869120617645   -4.63991437918081    0.35328042393974
H         3.99953408391927   -3.05358690485173    0.34836811834563
H         4.95032069163061   -1.59762394888692   -1.84035310566336
H         7.39493164391239   -1.83659083264908   -1.72066442253186
H         8.64346664984041   -0.87889922851485    0.17588359716696
H         7.43160240314702    0.31736251161892    1.95744488224783
H         4.98932765103609    0.56901169026784    1.83738042327411
H         4.68117024935446    2.08497542203049   -0.88665787750331
H         3.11944437220459    4.21701274816936   -0.84253221258791
H         2.04017969872527    5.25689441418528    1.47078575487457
H         2.20487838551882    7.69647263085206    1.26912051414460
H         0.84421652372999    8.90471153751878   -0.39148392109171
H        -0.67712397870354    7.64603964761624   -1.86491226931686
H        -0.85613797418430    5.20508530085158   -1.66856515047033
H        -1.80259753725528    4.69672157464843    1.34306987019145
H        -3.92587242637641    3.08262279886282    1.41479505628942
77
 energy: -123.917573271946 gnorm: 0.026967705423 xtb: 6.4.1 (bd6e46d)
Co       -0.06532742851459    0.13801047356765    0.01144993737960
C        -3.44869645260006    0.60289358858512    0.16195522589713
C        -4.91786382520222    0.86896875893516    0.13561910617873
C        -5.46598300719885    1.59961627140056   -0.91619083806378
C        -6.82441797640325    1.85666515362507   -0.97626511212088
C        -7.66704139869159    1.39832280179804    0.02005647681024
C        -7.13902771184200    0.65928135958042    1.06387518605107
C        -5.78224992735006    0.38826443745050    1.11625356173916
C        -2.98679506551013   -0.68092100224280   -0.09543352171801
C        -3.81255324668004   -1.82040016237155   -0.36988079904742
C        -2.99094521803017   -2.90116480633846   -0.40441283982050
C        -1.66276944626361   -2.41553476644876   -0.16293343820955
C        -0.55399996188256   -3.23863705627712   -0.04783269025014
C        -0.76664633878014   -4.70792750461334   -0.00384387125364
C        -0.32616755076148   -5.53532619059064   -1.03147814017417
C        -0.55469168039150   -6.89845295077679   -0.98705759949444
C        -1.21504883559402   -7.46155053934489    0.09072335158400
C        -1.64581609809463   -6.64964199369620    1.12494874213827
C        -1.42920238492284   -5.28493002416762    1.07573772779553
C         0.74114528394470   -2.73108541337326    0.04868721980328
C         1.89298855528919   -3.56805086234597    0.22638316337452
C         2.97142568168026   -2.74948186039750    0.22639696105656
C         2.47534742463549   -1.41568632817062    0.04258814227699
N         1.11225884065253   -1.42051167333632   -0.03038996263284
C         3.31105593840076   -0.30752644891807   -0.08517515895692
C         4.78359676334846   -0.48770309782260   -0.02207079347350
C         5.47909727967459   -1.17857273528818   -1.00866244831525
C         6.85358287284094   -1.31399455944017   -0.93980727440067
C         7.55678912151684   -0.77485489419598    0.12296354359056
C         6.87369810649873   -0.09761873440999    1.11736575846281
C         5.50102682584402    0.05060734473996    1.04272417570898
C         2.81447739803185    0.97613101805500   -0.25441179626722
C         3.63299559494860    2.10452872232504   -0.59197805755335
C         2.81599177449400    3.18991805028979   -0.59523146543278
N         1.51212937841834    1.35959792389343   -0.09843391053552
C         1.50717720831793    2.72524711439836   -0.23916593373122
C         0.40755603771139    3.53282862647453    0.02787703099662
C         0.54331402052300    5.01337447746958   -0.06077426992826
C         1.42653321267411    5.73672423140669    0.74020772677179
C         1.53029443725974    7.11251179944508    0.62591693877592
C         0.76991225006791    7.79976820529416   -0.30403004468563
C        -0.09262576570296    7.09330696233257   -1.12258539580077
C        -0.20843275330830    5.72031985143034   -0.99819190845540
C        -0.82734637000889    2.97212426998765    0.36106814518359
C        -1.90516508874857    3.72663818266945    0.93079173951096
C        -2.98070560661493    2.90959623745585    0.96803406451149
C        -2.56546883348582    1.65025895130935    0.42310752382627
N        -1.21797003045519    1.67058836948516    0.15239676697913
N        -1.66876493131962   -1.05601230530813   -0.02464366955858
H        -4.82106312975077    1.95623896289842   -1.70553259029854
H        -7.23064800124347    2.42143008814255   -1.80401944238016
H        -8.72622043248207    1.61371833710969   -0.01770155909154
H        -7.79397702975062    0.29445222486568    1.84351734890374
H        -5.38867026873728   -0.19445674907380    1.93649169253550
H        -4.87714204598099   -1.80509139633552   -0.51429013172555
H        -3.26113954093762   -3.91902257479373   -0.60761581935516
H         0.18625192568886   -5.10208728326830   -1.87820176919264
H        -0.21821610045440   -7.52742802564558   -1.79911626679558
H        -1.39353491090319   -8.52693123364623    0.12412863681986
H        -2.15643276159152   -7.08405909134631    1.97290090673661
H        -1.76583912187909   -4.65721411846628    1.88840329764915
H         1.88521159316058   -4.63424827816294    0.34647820492899
H         4.00041311951422   -3.02924231458411    0.34403139967436
H         4.93706185396870   -1.59874482689917   -1.84355765149474
H         7.38196004557734   -1.84169811074003   -1.72103396243594
H         8.63099545920483   -0.88094141432067    0.17540760831714
H         7.41595477617524    0.31946423447048    1.95440370722119
H         4.97410928677441    0.57829692213133    1.82472202680410
H         4.67639379566180    2.07245976381138   -0.83932884291607
H         3.08345343887942    4.20554152920006   -0.82128390301534
H         2.02955609054613    5.22141597693668    1.47369747042585
H         2.20840808193906    7.65912871161569    1.26732520438465
H         0.84923293540381    8.87486953251873   -0.39080699084247
H        -0.68034416005920    7.61938680553175   -1.86233604457775
H        -0.87831935110072    5.18181472190411   -1.65221338210009
H        -1.82091006799186    4.73044834155620    1.29684811090346
H        -3.95447455204694    3.10946699106041    1.36892246439430
77
 energy: -123.921012738714 gnorm: 0.022559488104 xtb: 6.4.1 (bd6e46d)
Co       -0.06581997321714    0.13878500580342   -0.03757910835893
C        -3.43113317956975    0.61180126921409    0.16823237055873
C        -4.89321080878783    0.87194667137155    0.14182611514122
C        -5.43474554160378    1.61009740851900   -0.90718701333045
C        -6.79422716259245    1.85982353323386   -0.97009600443257
C        -7.63667667461716    1.39004674286272    0.02356012342845
C        -7.10779187763378    0.65109214818730    1.06873551368917
C        -5.74992841142829    0.38650281903079    1.12396055966340
C        -2.95730279594825   -0.66747804529771   -0.10724779474516
C        -3.79330961655412   -1.79948888551870   -0.36608329285893
C        -2.98037842733068   -2.88217325089204   -0.39618840716110
C        -1.65004566822702   -2.40265197552071   -0.17250483793620
C        -0.54740896131957   -3.23454377272218   -0.04921406387784
C        -0.76513188191720   -4.69811406918074   -0.00886430064500
C        -0.32109572541166   -5.52270331334422   -1.03679633456195
C        -0.54814345843661   -6.88673996182412   -0.99019477774403
C        -1.21047778339323   -7.44849782669681    0.08867589705232
C        -1.64642581827373   -6.63551929026963    1.12179435028802
C        -1.43235831091440   -5.26998732964785    1.07060276695530
C         0.74525783234303   -2.73014325553582    0.05974747620507
C         1.89204556066430   -3.56645917918003    0.23388071152339
C         2.97064162396560   -2.74781041767293    0.23508736859737
C         2.47402732348682   -1.41893426631334    0.05499820496583
N         1.10881918609773   -1.41487735887529   -0.02147808940864
C         3.30581836719266   -0.31254643033523   -0.08665495825250
C         4.77421847693980   -0.48682576560488   -0.02837572533283
C         5.46590624162681   -1.17983688962739   -1.01569431362096
C         6.84082519721584   -1.31738395376546   -0.94408665375053
C         7.54316587091341   -0.77611760159482    0.11988425931751
C         6.86051073433925   -0.09301944503804    1.11267703801772
C         5.48785642837247    0.05753709071759    1.03575204056277
C         2.79908273678885    0.96630396644139   -0.26468111162116
C         3.61387130789504    2.10023918335215   -0.57954422377696
C         2.79247065265339    3.17731666734326   -0.58866832647615
N         1.48762837430051    1.33845159761645   -0.12012007549789
C         1.48612635268178    2.69897731111725   -0.25262624298339
C         0.39487013634681    3.51702832667667    0.03258495749604
C         0.53406997464411    4.98921303632331   -0.05543144921955
C         1.41896385230117    5.70236007569080    0.74839650903033
C         1.52831192206156    7.07727315066142    0.63172637424365
C         0.76859832876771    7.76600799522736   -0.29946378947283
C        -0.10396556096959    7.06442700604676   -1.11455072276870
C        -0.22595235229000    5.69237327764848   -0.98791145392412
C        -0.83412767436175    2.97503258386250    0.37494235902859
C        -1.92768975752938    3.75596125591488    0.90149647636279
C        -3.00318594699750    2.93922878567791    0.93905859090971
C        -2.56579667244746    1.65864464178795    0.43773099185517
N        -1.21718018560268    1.67192433244078    0.19364752035389
N        -1.64385142334883   -1.03798160487115   -0.04310359633103
H        -4.78514903270664    1.97782485964648   -1.68803460309376
H        -7.19983644060846    2.42279358404443   -1.79825841010809
H        -8.69651581328582    1.59639749108039   -0.01759775357635
H        -7.76043820493650    0.27769896025832    1.84478765877909
H        -5.35055430644182   -0.19530188868403    1.94182454670101
H        -4.85797015432096   -1.76754136247680   -0.49792117795490
H        -3.24569772539590   -3.90824270900426   -0.57095793497784
H         0.19388792810100   -5.08713537573634   -1.88051433324254
H        -0.20797613294631   -7.51529643197397   -1.80010990067571
H        -1.38634503440735   -8.51352135527289    0.12404161683555
H        -2.15716614601895   -7.06788244865136    1.96982982899893
H        -1.77359650104161   -4.63827238366644    1.87780288193547
H         1.86730898736549   -4.63292950091081    0.34350142776009
H         4.00421943379772   -3.01138426552203    0.34428496660438
H         4.92137082519531   -1.60105675286095   -1.84808031817212
H         7.36807081790560   -1.84873867901857   -1.72277714455137
H         8.61623725002485   -0.88528968322705    0.17475717402120
H         7.40092422919890    0.32528945966076    1.94929867546361
H         4.95793191158480    0.59073309447980    1.81160469933015
H         4.66684994271476    2.06442274861013   -0.79167178909839
H         3.04630504605310    4.19858431491530   -0.79910834410351
H         2.01806163934606    5.17986139439753    1.47996370004617
H         2.21222027574712    7.61861585074496    1.26963498787002
H         0.85648755575952    8.83908875097937   -0.39025733982704
H        -0.69040718630756    7.59025516695916   -1.85407072882991
H        -0.90534111777742    5.15335139835508   -1.63196798566369
H        -1.84355869200240    4.77407009835578    1.22964854132109
H        -3.99230618547131    3.14251867107752    1.30218215105147
77
 energy: -123.922207222973 gnorm: 0.018795435948 xtb: 6.4.1 (bd6e46d)
Co       -0.06388388111876    0.13888016418282    0.02960423638333
C        -3.42342515710096    0.61414448505938    0.17230989168651
C        -4.87924636744089    0.86966128595717    0.14424744586167
C        -5.41372751647407    1.61721918330516   -0.90090361952455
C        -6.77339571648690    1.86354774747431   -0.96354479486378
C        -7.61425211019509    1.38129934881192    0.02699809028239
C        -7.08672339027954    0.64146261394776    1.07299723981580
C        -5.72844574006426    0.37982461998771    1.12907821038620
C        -2.94048880548655   -0.65735541018396   -0.11503577548590
C        -3.78414262215794   -1.78561770395379   -0.36467528493289
C        -2.97659147502758   -2.86812896304211   -0.39513640672999
C        -1.64271718064605   -2.39263504290667   -0.18342214488893
C        -0.54242189358859   -3.23158815188397   -0.05478197692116
C        -0.76486446362159   -4.69105948476721   -0.01442871836185
C        -0.31600312638537   -5.51404194008453   -1.04175170590177
C        -0.54153095261895   -6.87873661802022   -0.99281992145135
C        -1.20590295969006   -7.43805098946389    0.08674202253114
C        -1.64817455728854   -6.62463864512348    1.11776747785928
C        -1.43553487279498   -5.25858202936633    1.06534179666100
C         0.74664125741515   -2.73224147606200    0.06112081072077
C         1.89368674876336   -3.56704519966315    0.23956399493317
C         2.97086995961702   -2.74960866703499    0.24134601741729
C         2.47590814978110   -1.42096250748249    0.05666555064348
N         1.10593727265125   -1.41069401293918   -0.01399197524743
C         3.30222931158320   -0.31694435764921   -0.09240374421759
C         4.76795311656509   -0.48604364951132   -0.03472588250079
C         5.45659966479882   -1.18254252832570   -1.02187636967864
C         6.83174466877817   -1.32180380503998   -0.94780983166597
C         7.53234205667627   -0.77811281563396    0.11679185594222
C         6.85119246087366   -0.08857407096345    1.10722227607820
C         5.47845867708166    0.06315642562976    1.02908828911546
C         2.78872623352725    0.96140440039533   -0.27496135005566
C         3.60113976174393    2.10114800457550   -0.57460296670386
C         2.77813644347596    3.17259644647802   -0.58517813380701
N         1.47574684224664    1.32327630525481   -0.13433162039057
C         1.47208539873310    2.68467478542058   -0.26168707850015
C         0.39034618109928    3.50859039268203    0.03391419133835
C         0.53196156381153    4.97416258233926   -0.05505821092453
C         1.41784339454550    5.67802324615010    0.75329906914643
C         1.53014955374256    7.05255162360843    0.63640616866675
C         0.76988984742406    7.74070249952680   -0.29546480186001
C        -0.11241017243015    7.04514494030136   -1.10702503149433
C        -0.23705771675277    5.67357278833969   -0.98203970789736
C        -0.84199965929417    2.97874746139858    0.38352286694205
C        -1.94165270307969    3.77440950778918    0.87231702907191
C        -3.01845677046178    2.95730849627744    0.91029193064223
C        -2.56808224879269    1.66750685073116    0.44760469009164
N        -1.21608440236937    1.67051835690347    0.22549364318111
N        -1.62657063851318   -1.02943261091096   -0.05608180836802
H        -4.75831971071427    1.99630160217908   -1.67220407116905
H        -7.17819569089555    2.43152712183793   -1.78808260675019
H        -8.67461857666549    1.58065525134683   -0.01672296538138
H        -7.73748554772953    0.26390440959445    1.84784629088745
H        -5.32147920129205   -0.19902852368422    1.94542012661190
H        -4.84929398722549   -1.74191247912608   -0.48600643440215
H        -3.23907011654631   -3.89844570059386   -0.54987783628418