246
 energy: -401.557170029284 gnorm: 3.633420007050 xtb: 6.5.1 (b24c23e)
C           38.95182500000000       -0.02706600000000        0.07797500000000
C           39.68570100000000        1.19599200000000        0.70913700000000
C           39.09163099999999        2.21649700000000        1.41615800000000
C           40.11671600000000        3.13811900000000        1.75544200000000
C           41.30113400000000        2.65327300000000        1.23452700000000
N           41.03392300000000        1.44072100000000        0.64936100000000
C           42.72127600000000        3.35819700000000        1.27222200000000
C           42.71300999999999        4.79282600000000        1.59279000000000
C           42.40343200000000        5.68477200000000        0.62718000000000
C           42.33450100000000        7.16571900000000        0.83326300000000
N           42.78129800000000        7.55493200000000        2.16887500000000
C           43.01994800000000        6.62498500000000        3.15405200000000
C           43.01380100000000        5.30648300000000        2.92366700000000
C           43.84727500000000        2.65880000000000        0.96870900000000
C           45.14669400000000        3.29658100000000        0.93926600000000
C           46.04953100000000        2.38992500000000        0.58355800000000
N           44.04513699999999        1.34618500000000        0.62925700000000
C           45.37415300000000        1.12273100000000        0.37758000000000
C           46.04046899999999       -0.00098300000000        0.00075400000000
C           45.26263000000000       -1.37083100000000       -0.19626600000000
C           45.80248100000000       -2.63829400000000       -0.09690000000000
C           44.77646499999999       -3.56561600000000       -0.40717900000000
C           43.63512900000000       -2.83983900000000       -0.67728500000000
N           43.92792699999999       -1.50852200000000       -0.49147900000000
C           42.22190700000000       -3.42260000000000       -1.10130600000000
C           42.23178900000000       -4.75695000000000       -1.71458400000000
C           41.84024599999999       -5.82806800000000       -0.98996700000000
C           41.76964400000000       -7.22723400000000       -1.51756600000000
N           42.32734500000000       -7.33708600000000       -2.86474900000000
C           42.63129899999999       -6.21894800000000       -3.60935900000000
C           42.61319500000000       -4.97996500000000       -3.10324600000000
C           41.10054099999999       -2.68056000000000       -0.90508600000000
C           39.78018800000000       -3.14463000000000       -1.29228900000000
C           38.89402000000000       -2.21142900000000       -0.95620300000000
C           39.61481200000000       -1.11575600000000       -0.35526000000000
N           40.93589800000000       -1.43851400000000       -0.35808500000000
H           37.87464100000000        0.02390100000000       -0.02372800000000
H           38.04118000000000        2.29588200000000        1.64932200000000
H           40.00043999999999        4.06421600000000        2.29780900000000
H           41.72882500000000        0.81837800000000        0.24443800000000
H           42.17621100000000        5.31562300000000       -0.36939100000000
H           41.30278300000000        7.50381100000000        0.68522500000000
H           42.96305300000000        7.66983700000000        0.09180100000000
H           42.47911500000000        8.46559900000000        2.48998700000000
H           43.22589100000000        7.03036900000000        4.13844700000000
H           43.22137800000000        4.57988600000000        3.70196700000000
H           45.34992000000000        4.33037800000000        1.15678800000000
H           47.10093600000000        2.58495300000000        0.47556200000000
H           46.82525600000000       -2.87355600000000        0.15666600000000
H           44.86136100000000       -4.64168800000000       -0.43841700000000
H           43.24509900000000       -0.75576200000000       -0.51529800000000
H           41.53153900000000       -5.67334000000000        0.04132400000000
H           40.72466600000000       -7.55591500000000       -1.53019300000000
H           42.32518000000000       -7.89781100000000       -0.85386800000000
H           42.00248100000000       -8.13005000000000       -3.40334100000000
H           42.89382700000000       -6.40626900000000       -4.64477300000000
H           42.86417200000000       -4.10716400000000       -3.69705900000000
H           39.55647900000000       -4.07928400000000       -1.77364300000000
H           37.83131900000000       -2.25381700000000       -1.11213200000000
C           87.87732099999998       -0.01952100000000        0.08012500000000
C           87.14344500000000       -1.39156400000000       -0.02820700000000
C           87.73751499999999       -2.63146400000000        0.03469500000000
C           86.71243000000000       -3.59349500000000       -0.16278200000000
C           85.52801200000000       -2.90689400000000       -0.34988400000000
N           85.79522400000000       -1.56802500000000       -0.20800300000000
C           84.10787000000001       -3.52580500000000       -0.68942600000000
C           84.11613600000000       -4.91392100000000       -1.17321900000000
C           84.42571400000000       -5.16290700000000       -2.46394700000000
C           84.49464500000001       -6.53003800000000       -3.06944500000000
N           84.04784799999999       -7.56480800000000       -2.13960800000000
C           83.80919799999999       -7.29384200000000       -0.81222200000000
C           83.81534499999998       -6.05194700000000       -0.31300200000000
C           82.98187100000000       -2.77147600000000       -0.57868800000000
C           81.68245200000000       -3.29793900000000       -0.93989200000000
C           80.77961500000001       -2.33996900000000       -0.76426000000000
N           82.78400899999998       -1.47709200000000       -0.17525700000000
C           81.45499300000000       -1.15454000000000       -0.27134500000000
C           80.78867700000001       -0.00098300000000        0.00075400000000
C           81.56651599999998        1.26695900000000        0.55539200000000
C           81.02666499999999        2.29166600000000        1.30792900000000
C           82.05268099999999        3.24325200000000        1.53305900000000
C           83.19401700000000        2.76886700000000        0.92095700000000
N           82.90121899999998        1.53958000000000        0.37710000000000
C           84.60723900000001        3.48760100000000        0.86780800000000
C           84.59735700000000        4.94479200000000        1.05000000000000
C           84.98890000000000        5.47306900000000        2.23037600000000
C           85.05950199999999        6.94017800000000        2.51954300000000
N           84.50180100000000        7.74364700000000        1.43261900000000
C           84.19784700000000        7.18595100000000        0.21046700000000
C           84.21595099999999        5.86629100000000       -0.01252400000000
C           85.72860500000000        2.75358900000000        0.64341600000000
C           87.04895800000000        3.35205300000000        0.55898900000000
C           87.93512600000000        2.38186800000000        0.35269100000000
C           87.21433399999999        1.13400600000000        0.28582600000000
N           85.89324900000000        1.40977300000000        0.45355600000000
H           88.95450599999998       -0.00922400000000       -0.03316700000000
H           88.78796600000000       -2.82182900000000        0.19099200000000
H           86.82870599999998       -4.66637700000000       -0.19003800000000
H           85.10032099999999       -0.82572100000000       -0.22406000000000
H           84.65293499999999       -4.32390100000000       -3.11624500000000
H           85.52636300000000       -6.73931500000000       -3.37346000000000
H           83.86609300000001       -6.56760100000000       -3.96526300000000
H           84.35003100000000       -8.50795100000000       -2.34675300000000
H           83.60325500000000       -8.15722400000000       -0.18937100000000
H           83.60776799999998       -5.84474100000000        0.73139100000000
H           81.47922599999998       -4.29111300000000       -1.29997000000000
H           79.72820999999999       -2.44877600000000       -0.95883700000000
H           80.00389000000000        2.35793300000000        1.64741800000000
H           81.96778600000000        4.17415900000000        2.07372400000000
H           83.58404700000000        0.91244200000000       -0.03993000000000
H           85.29760700000000        4.79797500000000        3.02520300000000
H           86.10448000000000        7.22614500000000        2.68206500000000
H           84.50396599999999        7.16018600000000        3.43702100000000
H           84.82666500000001        8.70140200000000        1.39290700000000
H           83.93531900000001        7.89091600000000       -0.57068300000000
H           83.96497400000000        5.43759500000000       -0.97720800000000
H           87.27266700000000        4.40004600000000        0.64260500000000
H           88.99782700000000        2.50008200000000        0.24252700000000
C           49.40834099999999        0.01174900000000        0.00327900000000
C           48.15607099999999       -0.00743200000000       -0.00107000000000
C           50.72200899999999        0.01098300000000        0.00521100000000
C           52.22514300000000       -0.00743200000000       -0.00107000000000
C           62.67534199999999        0.01174900000000        0.00327900000000
C           61.42307199999999       -0.00743200000000       -0.00107000000000
C           63.98900999999999        0.01098300000000        0.00521100000000
C           65.49214400000000       -0.00743200000000       -0.00107000000000
C           75.94234299999999        0.01174900000000        0.00327900000000
C           74.69007300000000       -0.00743200000000       -0.00107000000000
C           77.25601100000000        0.01098300000000        0.00521100000000
C           78.75914499999999       -0.00743200000000       -0.00107000000000
C           53.16937900000000        0.00176800000000       -0.00065600000000
C           53.94507100000000       -0.14579800000000        1.37844100000000
C           53.37189400000000       -0.12658300000000        2.63430100000000
C           54.41239299999999       -0.26637900000000        3.58044500000000
C           55.59841000000000       -0.36525900000000        2.88200000000000
N           55.30524399999999       -0.28561100000000        1.54043600000000
C           57.03801200000000       -0.51268100000000        3.52749900000000
C           57.06162100000000       -0.76269400000000        4.97802400000000
C           57.00070500000000       -2.03400700000000        5.42951500000000
C           57.05996600000000       -2.42165000000000        6.87423200000000
N           57.02300300000000       -1.25686700000000        7.75801100000000
C           57.19434700000000        0.01961900000000        7.27114100000000
C           57.20683900000000        0.30281400000000        5.96301600000000
C           58.16392500000000       -0.40392000000000        2.77443000000000
C           59.47603000000000       -0.48296200000000        3.38239300000000
C           60.38795000000000       -0.32229500000000        2.43243600000000
N           58.36071500000000       -0.21255500000000        1.43262800000000
C           59.70555000000000       -0.15844900000000        1.16399700000000
C           60.38841200000000        0.00176800000000       -0.00065600000000
C           59.61136000000000        0.10706200000000       -1.38148800000000
C           60.17783200000000        0.01849300000000       -2.63752400000000
C           59.13740100000000        0.15342300000000       -3.58469900000000
C           57.95894100000000        0.31815800000000       -2.88566900000000
N           58.25482800000000        0.27375300000000       -1.54353600000000
C           56.52296300000000        0.49756900000000       -3.52872500000000
C           56.50373799999999        0.76595600000000       -4.97578400000000
C           56.60796800000000        2.03951100000000       -5.41283700000000
C           56.55669100000000        2.44558100000000       -6.85269500000000
N           56.55185400000000        1.29056800000000       -7.75028700000000
C           56.33593000000000        0.01550500000000       -7.27728800000000
C           56.31714900000000       -0.28210100000000       -5.97251300000000
C           55.39645400000000        0.40108200000000       -2.77488100000000
C           54.08532199999999        0.51676900000000       -3.37858300000000
C           53.17236600000000        0.36239600000000       -2.42880800000000
C           53.85359500000000        0.16501700000000       -1.16423700000000
N           55.19850900000000        0.19514500000000       -1.43523200000000
H           52.32186800000000       -0.01494500000000        2.85621200000000
H           54.30808300000000       -0.28263300000000        4.65529400000000
H           55.98997300000000       -0.28608100000000        0.78795600000000
H           56.91946200000000       -2.84045200000000        4.70554400000000
H           57.97926600000000       -2.98774100000000        7.05924400000000
H           56.21163700000000       -3.07015300000000        7.11575200000000
H           57.38826400000000       -1.41041100000000        8.68963100000000
H           57.31616600000000        0.79228700000000        8.02243300000000
H           57.33670300000000        1.31260300000000        5.58839200000000
H           59.68607999999999       -0.63346800000000        4.42633100000000
H           61.44919399999999       -0.33149700000000        2.60029800000000
H           61.22335300000000       -0.13291600000000       -2.85749400000000
H           59.23636700000000        0.12705400000000       -4.66011400000000
H           57.57282000000000        0.31123100000000       -0.78972600000000
H           56.72018200000000        2.83431400000000       -4.68015100000000
H           55.65560000000000        3.04341300000000       -7.02766000000000
H           57.42484700000000        3.06900100000000       -7.09010100000000
H           56.18683400000000        1.46781700000000       -8.67772100000000
H           56.18262000000000       -0.74324500000000       -8.03673000000000
H           56.15044300000000       -1.29045700000000       -5.60900400000000
H           53.87653600000000        0.68723200000000       -4.41972700000000
H           52.11129500000000        0.39693200000000       -2.59442100000000
C           66.43638000000000        0.00176800000000       -0.00065600000000
C           67.21207200000001       -0.14579800000000        1.37844100000000
C           66.63889500000001       -0.12658300000000        2.63430100000000
C           67.67939400000000       -0.26637900000000        3.58044500000000
C           68.86541099999998       -0.36525900000000        2.88200000000000
N           68.57224500000000       -0.28561100000000        1.54043600000000
C           70.30501299999999       -0.51268100000000        3.52749900000000
C           70.32862199999998       -0.76269400000000        4.97802400000000
C           70.26770600000000       -2.03400700000000        5.42951500000000
C           70.32696700000000       -2.42165000000000        6.87423200000000
N           70.29000400000000       -1.25686700000000        7.75801100000000
C           70.46134799999999        0.01961900000000        7.27114100000000
C           70.47384000000000        0.30281400000000        5.96301600000000
C           71.43092600000000       -0.40392000000000        2.77443000000000
C           72.74303100000000       -0.48296200000000        3.38239300000000
C           73.65495099999998       -0.32229500000000        2.43243600000000
N           71.62771600000001       -0.21255500000000        1.43262800000000
C           72.97255099999998       -0.15844900000000        1.16399700000000
C           73.65541299999998        0.00176800000000       -0.00065600000000
C           72.87836099999998        0.10706200000000       -1.38148800000000
C           73.44483300000000        0.01849300000000       -2.63752400000000
C           72.40440200000000        0.15342300000000       -3.58469900000000
C           71.22594200000000        0.31815800000000       -2.88566900000000
N           71.52182900000000        0.27375300000000       -1.54353600000000
C           69.78996400000000        0.49756900000000       -3.52872500000000
C           69.77073900000001        0.76595600000000       -4.97578400000000
C           69.87496899999999        2.03951100000000       -5.41283700000000
C           69.82369199999999        2.44558100000000       -6.85269500000000
N           69.81885500000000        1.29056800000000       -7.75028700000000
C           69.60293100000000        0.01550500000000       -7.27728800000000
C           69.58414999999999       -0.28210100000000       -5.97251300000000
C           68.66345500000000        0.40108200000000       -2.77488100000000
C           67.35232300000000        0.51676900000000       -3.37858300000000
C           66.43936700000000        0.36239600000000       -2.42880800000000
C           67.12059600000001        0.16501700000000       -1.16423700000000
N           68.46550999999999        0.19514500000000       -1.43523200000000
H           65.58886900000000       -0.01494500000000        2.85621200000000
H           67.57508400000000       -0.28263300000000        4.65529400000000
H           69.25697399999999       -0.28608100000000        0.78795600000000
H           70.18646300000000       -2.84045200000000        4.70554400000000
H           71.24626699999999       -2.98774100000000        7.05924400000000
H           69.47863799999999       -3.07015300000000        7.11575200000000
H           70.65526499999999       -1.41041100000000        8.68963100000000
H           70.58316700000000        0.79228700000000        8.02243300000000
H           70.60370399999998        1.31260300000000        5.58839200000000
H           72.95308100000000       -0.63346800000000        4.42633100000000
H           74.71619500000000       -0.33149700000000        2.60029800000000
H           74.49035399999998       -0.13291600000000       -2.85749400000000
H           72.50336799999999        0.12705400000000       -4.66011400000000
H           70.83982099999999        0.31123100000000       -0.78972600000000
H           69.98718300000000        2.83431400000000       -4.68015100000000
H           68.92260100000000        3.04341300000000       -7.02766000000000
H           70.69184799999999        3.06900100000000       -7.09010100000000
H           69.45383500000000        1.46781700000000       -8.67772100000000
H           69.44962099999998       -0.74324500000000       -8.03673000000000
H           69.41744400000000       -1.29045700000000       -5.60900400000000
H           67.14353699999999        0.68723200000000       -4.41972700000000
H           65.37829600000001        0.39693200000000       -2.59442100000000
246
 energy: -402.767616289309 gnorm: 0.914844776560 xtb: 6.5.1 (b24c23e)
C           38.95902036122838       -0.01536801200381        0.08385189281014
C           39.68226682558721        1.18733722816375        0.70488089707531
C           39.09311066013437        2.21980494435313        1.41697227721662
C           40.11418418320336        3.13761873343764        1.75448099842752
C           41.31047221905093        2.65597172785489        1.23443496189850
N           41.03394644971633        1.44078395128262        0.64896222326967
C           42.70836666638389        3.35042244044589        1.27240655079058
C           42.71191040318408        4.79398879395273        1.59172399349574
C           42.40363467963301        5.68231750851541        0.62727619739663
C           42.33457913771937        7.16536416826007        0.83370522485873
N           42.78222626862599        7.55480724000528        2.17035088002617
C           43.01903613383579        6.62513949964844        3.15373332524375
C           43.01420476233486        5.30392014995948        2.92352695536116
C           43.84992349860016        2.65666795556876        0.96768183287009
C           45.14734470138225        3.29938350799815        0.93985360105596
C           46.05266030379797        2.39071099352917        0.58349915650502
N           44.04267478141198        1.34340975906778        0.62792151210646
C           45.37634676407711        1.12418689819715        0.37752422715045
C           46.04421585328588       -0.01294675749522        0.00086214172198
C           45.26904796037039       -1.36149126313010       -0.19448045922208
C           45.80177654362424       -2.64065022789752       -0.09833543391773
C           44.77888326803124       -3.56453408597842       -0.40734687241933
C           43.62629506711713       -2.84144761787314       -0.67933207486296
N           43.92859871726313       -1.50789005259452       -0.49193697217069
C           42.23507136599311       -3.41606003201803       -1.09816161511876
C           42.23131620711027       -4.75862293181004       -1.71305569406960
C           41.84036667520570       -5.82574117896787       -0.98937589034730
C           41.76980275163198       -7.22673830460516       -1.51782968848734
N           42.32831992498507       -7.33670181482003       -2.86604212332219
C           42.63018959601046       -6.21893621183261       -3.60918606498364
C           42.61388978772767       -4.97759002076051       -3.10247245883103
C           41.09820849727886       -2.67856767300499       -0.90506061762842
C           39.77947591124047       -3.14745101187096       -1.29358437187655
C           38.89154778446126       -2.21267277925610       -0.95710032082312
C           39.61688058942462       -1.11802915741770       -0.35667311419069
N           40.93922483270070       -1.43664158087231       -0.35696256666156
H           37.87637397041630        0.02516142105006       -0.02238503570951
H           38.04163587648755        2.29632414071410        1.64951694631900
H           40.00010807594703        4.06388819067210        2.29768131752475
H           41.72844528578435        0.81874777787637        0.24462429893867
H           42.17592685065360        5.31637071360786       -0.36949353903449
H           41.30193453309322        7.50434885699507        0.68483999825553
H           42.96326911036385        7.67036511013631        0.09138726016911
H           42.47925429273663        8.46529957309569        2.48945314292128
H           43.22590770869406        7.03078595595231        4.13826670306375
H           43.22159882287655        4.58033660847291        3.70220644090334
H           45.34936842452824        4.33157598151119        1.15717349772999
H           47.10245711359291        2.58397215057616        0.47512909443694
H           46.82491477095101       -2.87373224894605        0.15643151111622
H           44.86169062936269       -4.64122635032514       -0.43830804972066
H           43.24561459778608       -0.75614657328310       -0.51533036996727
H           41.53143070227879       -5.67415876163849        0.04120823383785
H           40.72378112515788       -7.55649551876792       -1.53001882823127
H           42.32533278380963       -7.89840632773814       -0.85358601347347
H           42.00264868706521       -8.12999556384061       -3.40277599770122
H           42.89383553463347       -6.40669928247521       -4.64466344079784
H           42.86453174904803       -4.10757014170378       -3.69731976805388
H           39.55695875607866       -4.08067570679532       -1.77413849413467
H           37.83009661891743       -2.25345385852937       -1.11206376399245
C           87.87013351107929       -0.03253870852625        0.07895401735404
C           87.14687951171675       -1.38199271238462       -0.02726100533777
C           87.73604156031926       -2.63468003587868        0.03364875907192
C           86.71493360323039       -3.59256712585803       -0.16333842555745
C           85.51871567513936       -2.90913483022446       -0.35138022832847
N           85.79520473391135       -1.56787187113076       -0.20838036819326
C           84.12070268446260       -3.51928182262520       -0.68516392054188
C           84.11723374269380       -4.91434471667351       -1.17474461540240
C           84.42551017494614       -5.16087213413204       -2.46257074232352
C           84.49456703856913       -6.52996887957338       -3.06888283155513
N           84.04691981623878       -7.56548065327488       -2.13828933317737
C           83.81011028297053       -7.29380405262762       -0.81257249182516
C           83.81494339858669       -6.04969488503484       -0.31177051170228
C           82.97925510287656       -2.76919047866055       -0.57841657960082
C           81.68181673243940       -3.30064995239379       -0.94088303568998
C           80.77651702130969       -2.34062858710689       -0.76473216169217
N           82.78628793587002       -1.47384757058766       -0.17492609481395
C           81.45290944549768       -1.15595368481006       -0.27235826183804
C           80.78281604181460        0.00917218652396        0.00710079996404
C           81.56005131581348        1.25822382050454        0.55214355774339
C           81.02737286631076        2.29439045934438        1.30795292143841
C           82.05031684476060        3.24243154504889        1.53233711504136
C           83.20280698445595        2.77131693961763        0.92009050988049
N           82.90050368525085        1.53923254824130        0.37639252104077
C           84.59410807694188        3.48039531540026        0.86702613911277
C           84.59783058452331        4.94540715851830        1.05217257278997
C           84.98877908806026        5.47077867241301        2.22965054619291
C           85.05934309830859        6.93989550816133        2.51905658245139
N           84.50082587961626        7.74400356970908        1.43132067887835
C           84.19895521443550        7.18584775167954        0.21060476972323
C           84.21525543842068        5.86386695669777       -0.01311788870201
C           85.73092949206261        2.75189754265156        0.64239449216258
C           87.04967192015273        3.35513318462635        0.55937588419240
C           87.93759707976177        2.38340021438757        0.35258458495704
C           87.21227126560530        1.13667724225342        0.28582382266791
N           85.88991806540410        1.40758128467167        0.45352247094244
H           88.95277416194543       -0.01100147043648       -0.03269173797843
H           88.78751113065998       -2.82230604313142        0.19092448848406
H           86.82903606854482       -4.66603173400900       -0.18997518846168
H           85.10070175694048       -0.82613461556808       -0.22409790292442
H           84.65321884446560       -4.32448273341988       -3.11672622672462
H           85.52721182214060       -6.73956934988645       -3.37407098498552
H           83.86587689753098       -6.56783170237769       -3.96589286636708
H           84.34989174429718       -8.50741504674424       -2.34704894045060
H           83.60323772936795       -8.15748347309862       -0.18974382063445
H           83.60754701488403       -5.84525016077695        0.73135749641886
H           81.47977675699829       -4.29233437103263       -1.30027517396456
H           79.72666354231680       -2.44768353823340       -0.95866967497527
H           80.00422037865400        2.35819784631641        1.64729950778276
H           81.96745714457414        4.17371057545681        2.07356872125404
H           83.58352982082509        0.91277958335071       -0.03975577145879
H           85.29771573326619        4.79873163698261        3.02553630879014
H           86.10536560412287        7.22654721496387        2.68251933008305
H           84.50381310268513        7.16054379448789        3.43757506422142
H           84.82649783588617        8.70105794413345        1.39335815052377
H           83.93531060462647        7.89122422215775       -0.57036325929951
H           83.96461434817402        5.43807803562265       -0.97721505119147
H           87.27218778674904        4.40149041435864        0.64291742990284
H           88.99904980318176        2.49973778602492        0.24239342496670
C           49.40354456152238        0.01153004273004        0.00297707954050
C           48.14311752566751       -0.00761539808048       -0.00109509773342
C           50.72354523642412        0.01061661260372        0.00589300324240
C           52.06729362935101       -0.00937249563827        0.00585022650609
C           62.70854670333647        0.01189222066430        0.00252753032641
C           61.49984062511664       -0.00699142391639       -0.00680696477290
C           63.98981319966360        0.01050136782562        0.00605080748193
C           65.33567770802790       -0.00928389397170        0.00577305218925
C           75.97536205205789        0.01186002312517        0.00281189754994
C           74.76957890321522       -0.00712264254936       -0.00691641237248
C           77.29033638870300        0.01089040546574        0.00517006717748
C           78.74328819293504       -0.00691514591032       -0.00071599415381
C           53.28691126935484        0.00153774676957        0.00972270379369
C           53.95469197677248       -0.14567745369856        1.38050330074433
C           53.37277461039629       -0.12672992082012        2.63455662952391
C           54.41196110264026       -0.26649547275289        3.58001043207328
C           55.60631012920446       -0.36600323787916        2.88516227737619
N           55.30688823906130       -0.28572467955143        1.54204028730418