      -----------------------------------------------------------      
     |                   =====================                   |     
     |                           x T B                           |     
     |                   =====================                   |     
     |                         S. Grimme                         |     
     |          Mulliken Center for Theoretical Chemistry        |     
     |                    University of Bonn                     |     
      -----------------------------------------------------------      

   * xtb version 6.5.1 (b24c23e) compiled by 'conda@728c89f4b128' on 2022-07-12

   xtb is free software: you can redistribute it and/or modify it under
   the terms of the GNU Lesser General Public License as published by
   the Free Software Foundation, either version 3 of the License, or
   (at your option) any later version.
   
   xtb is distributed in the hope that it will be useful,
   but WITHOUT ANY WARRANTY; without even the implied warranty of
   MERCHANTABILITY or FITNESS FOR A PARTICULAR PURPOSE.  See the
   GNU Lesser General Public License for more details.
   
   Cite this work as:
   * C. Bannwarth, E. Caldeweyher, S. Ehlert, A. Hansen, P. Pracht,
     J. Seibert, S. Spicher, S. Grimme, WIREs Comput. Mol. Sci., 2020, 11,
     e01493. DOI: 10.1002/wcms.1493
   
   for GFN2-xTB:
   * C. Bannwarth, S. Ehlert and S. Grimme., J. Chem. Theory Comput., 2019,
     15, 1652-1671. DOI: 10.1021/acs.jctc.8b01176
   for GFN1-xTB:
   * S. Grimme, C. Bannwarth, P. Shushkov, J. Chem. Theory Comput., 2017,
     13, 1989-2009. DOI: 10.1021/acs.jctc.7b00118
   for GFN0-xTB:
   * P. Pracht, E. Caldeweyher, S. Ehlert, S. Grimme, ChemRxiv, 2019, preprint.
     DOI: 10.26434/chemrxiv.8326202.v1
   for GFN-FF:
   * S. Spicher and S. Grimme, Angew. Chem. Int. Ed., 2020, 59, 15665-15673.
     DOI: 10.1002/anie.202004239
   
   for ALPB and GBSA implicit solvation:
   * S. Ehlert, M. Stahn, S. Spicher, S. Grimme, J. Chem. Theory Comput.,
     2021, 17, 4250-4261. DOI: 10.1021/acs.jctc.1c00471
   
   for DFT-D4:
   * E. Caldeweyher, C. Bannwarth and S. Grimme, J. Chem. Phys., 2017,
     147, 034112. DOI: 10.1063/1.4993215
   * E. Caldeweyher, S. Ehlert, A. Hansen, H. Neugebauer, S. Spicher,
     C. Bannwarth and S. Grimme, J. Chem. Phys., 2019, 150, 154122.
     DOI: 10.1063/1.5090222
   * E. Caldeweyher, J.-M. Mewes, S. Ehlert and S. Grimme, Phys. Chem. Chem. Phys.
     2020, 22, 8499-8512. DOI: 10.1039/D0CP00502A
   
   for sTDA-xTB:
   * S. Grimme and C. Bannwarth, J. Chem. Phys., 2016, 145, 054103.
     DOI: 10.1063/1.4959605
   
   in the mass-spec context:
   * V. Asgeirsson, C. Bauer and S. Grimme, Chem. Sci., 2017, 8, 4879.
     DOI: 10.1039/c7sc00601b
   * J. Koopman and S. Grimme, ACS Omega 2019, 4, 12, 15120-15133.
     DOI: 10.1021/acsomega.9b02011
   
   for metadynamics refer to:
   * S. Grimme, J. Chem. Theory Comput., 2019, 155, 2847-2862
     DOI: 10.1021/acs.jctc.9b00143
   
   for SPH calculations refer to:
   * S. Spicher and S. Grimme, J. Chem. Theory Comput., 2021, 17, 1701-1714
     DOI: 10.1021/acs.jctc.0c01306
   
   with help from (in alphabetical order)
   P. Atkinson, C. Bannwarth, F. Bohle, G. Brandenburg, E. Caldeweyher
   M. Checinski, S. Dohm, S. Ehlert, S. Ehrlich, I. Gerasimov, C. Hölzer
   A. Katbashev, J. Koopman, C. Lavigne, S. Lehtola, F. März, M. Müller,
   F. Musil, H. Neugebauer, J. Pisarek, C. Plett, P. Pracht, F. Pultar,
   J. Seibert, P. Shushkov, S. Spicher, M. Stahn, M. Steiner, T. Strunk,
   J. Stückrath, T. Rose, and J. Unsleber
   
 * started run on 2022/07/29 at 01:27:40.552     

           -------------------------------------------------
          |                Calculation Setup                |
           -------------------------------------------------

          program call               : xtb DMA_C8_5.xyz --gfn 1 --opt -T 48
          hostname                   : cx3-6-25.cx3.hpc.ic.ac.uk
          coordinate file            : DMA_C8_5.xyz
          omp threads                :                     1

   ID    Z sym.   atoms
    1    6 C      1-5, 7-11, 13-19, 21-26, 28-32, 34-41, 74-78, 80-84, 86-92,
                  94-99, 101-105, 107-114, 147-183, 185-189, 191-197,
                  199-204, 206-210, 212-219, 251-255, 257-261, 263-269,
                  271-276, 278-282, 284-291, 323-327, 329-333, 335-341,
                  343-348, 350-354, 356-363
    2    7 N      6, 12, 20, 27, 33, 42, 79, 85, 93, 100, 106, 115, 184, 190,
                  198, 205, 211, 220, 256, 262, 270, 277, 283, 292, 328, 334,
                  342, 349, 355, 364
    3    1 H      43-73, 116-146, 221-250, 293-322, 365-394

molecular fragmentation (1/2 indicates fragments):
111111111111111111111111111111111111111111111111111111111111111111111111
122222222222222222222222222222222222222222222222222222222222222222222222
222222222222222222222222222222222222222222222222222222222222222222222222
222222222222222222222222222222222222222222222222222222222222222222222222
222222222222222222222222222222222222222222222222222222222222222222222222
2222222222222222222222222222222222
# atoms in fragment 1/2:    73   321
 fragment masses (1/2) :      547.67     2572.01
CMA distance (Bohr)    :  87.308
constraining FC (au)   :  0.0500
########################################################################
[WARNING] Please study the warnings concerning your input carefully
-1- prog_main_parseArguments: Unknown option '-T' provided
########################################################################

           -------------------------------------------------
          |                 G F N 1 - x T B                 |
           -------------------------------------------------

        Reference                      10.1021/acs.jctc.7b00118
      * Hamiltonian:
        H0-scaling (s, p, d)           1.850000    2.250000    2.000000
        zeta-weighting                 0.000000
      * Dispersion:
        s8                             2.400000
        a1                             0.630000
        a2                             5.000000
        s9                             0.000000
      * Repulsion:
        kExp                           1.500000
        rExp                           1.000000
      * Coulomb:
        alpha                          2.000000
        third order                    atomic
        anisotropic                    false
      * Halogen bond correction:
        rad-scale                      1.300000
        damping                        0.440000


          ...................................................
          :                      SETUP                      :
          :.................................................:
          :  # basis functions                1272          :
          :  # atomic orbitals                1272          :
          :  # shells                          788          :
          :  # electrons                      1150          :
          :  # halogen bonds                     0          :
          :  max. iterations                   250          :
          :  Hamiltonian                  GFN1-xTB          :
          :  restarted?                      false          :
          :  GBSA solvation                  false          :
          :  PC potential                    false          :
          :  electronic temp.          300.0000000     K    :
          :  accuracy                    1.0000000          :
          :  -> integral cutoff          0.2500000E+02      :
          :  -> integral neglect         0.1000000E-07      :
          :  -> SCF convergence          0.1000000E-05 Eh   :
          :  -> wf. convergence          0.2000000E-04 e    :
          :  Broyden damping             0.4000000          :
          ...................................................

 iter      E             dE          RMSdq      gap      omega  full diag
   1   -633.7301920 -0.633730E+03  0.100E+01    0.03       0.0  T
   2   -630.4216207  0.330857E+01  0.620E+00    0.01       1.0  T
   3    398.6947109  0.102912E+04  0.101E+01    0.06       1.0  T
   4   2982.4968735  0.258380E+04  0.152E+01    0.00       1.0  T
   5   -358.8355714 -0.334133E+04  0.625E+00    0.02       1.0  T
   6   -524.0250284 -0.165189E+03  0.455E+00    0.03       1.0  T
   7   -599.1287193 -0.751037E+02  0.305E+00    0.12       1.0  T
   8   -614.4772857 -0.153486E+02  0.261E+00    0.01       1.0  T
   9   -626.5009688 -0.120237E+02  0.174E+00    0.01       1.0  T
  10   -632.2056780 -0.570471E+01  0.116E+00    0.11       1.0  T
  11   -633.9101035 -0.170443E+01  0.801E-01    0.17       1.0  T
  12   -633.0051150  0.904988E+00  0.830E-01    0.05       1.0  T
  13   -634.0004145 -0.995300E+00  0.634E-01    0.05       1.0  T
  14   -634.3067677 -0.306353E+00  0.419E-01    0.13       1.0  T
  15   -634.2826308  0.241369E-01  0.474E-01    0.14       1.0  T
  16   -634.0549824  0.227648E+00  0.495E-01    0.01       1.0  T
  17   -634.3211617 -0.266179E+00  0.360E-01    0.21       1.0  T
  18   -634.3414952 -0.203335E-01  0.319E-01    0.17       1.0  T
  19   -634.1335792  0.207916E+00  0.375E-01    0.07       1.0  T
  20   -634.0512230  0.823562E-01  0.433E-01    0.08       1.0  T
  21   -634.0665133 -0.152903E-01  0.428E-01    0.14       1.0  T
  22   -634.3374446 -0.270931E+00  0.234E-01    0.03       1.0  T
  23   -634.3862776 -0.488330E-01  0.224E-01    0.09       1.0  T
  24   -634.3800779  0.619963E-02  0.187E-01    0.06       1.0  T
  25   -634.4358312 -0.557533E-01  0.187E-01    0.09       1.0  T
  26   -634.5158849 -0.800536E-01  0.216E-01    0.02       1.0  T
  27   -634.5111582  0.472669E-02  0.224E-01    0.02       1.0  T
  28   -634.5114696 -0.311421E-03  0.224E-01    0.02       1.0  T
  29   -634.5262288 -0.147592E-01  0.195E-01    0.02       1.0  T
  30   -634.5130439  0.131848E-01  0.211E-01    0.04       1.0  T
  31   -634.5477169 -0.346730E-01  0.134E-01    0.03       1.0  T
  32   -634.5696065 -0.218896E-01  0.806E-02    0.02       1.0  T
  33   -634.5270527  0.425538E-01  0.140E-01    0.03       1.0  T
  34   -634.5737817 -0.467290E-01  0.552E-02    0.02       1.0  T
  35   -634.5736742  0.107529E-03  0.401E-02    0.02       1.0  T
  36   -634.5731474  0.526779E-03  0.555E-02    0.02       1.0  T
  37   -634.5749161 -0.176869E-02  0.364E-02    0.02       1.0  T
  38   -634.5749254 -0.929034E-05  0.321E-02    0.02       1.0  T
  39   -634.5763861 -0.146072E-02  0.435E-02    0.01       1.0  T
  40   -634.5777549 -0.136887E-02  0.313E-02    0.02       1.0  T
  41   -634.5763536  0.140132E-02  0.446E-02    0.01       1.0  T
  42   -634.5783239 -0.197030E-02  0.267E-02    0.01       1.0  T
  43   -634.5785147 -0.190783E-03  0.223E-02    0.01       1.0  T
  44   -634.5788843 -0.369578E-03  0.156E-02    0.01       1.0  T
  45   -634.5789848 -0.100463E-03  0.128E-02    0.01       1.0  T
  46   -634.5791066 -0.121807E-03  0.883E-03    0.01       1.0  T
  47   -634.5791982 -0.915960E-04  0.526E-03    0.01       1.0  T
  48   -634.5792326 -0.344637E-04  0.293E-03    0.01       1.7  T
  49   -634.5792414 -0.876923E-05  0.177E-03    0.01       2.8  T
  50   -634.5792428 -0.144888E-05  0.136E-03    0.01       3.7  T
  51   -634.5792454 -0.253726E-05  0.646E-04    0.01       7.8  T
  52   -634.5792457 -0.359153E-06  0.363E-04    0.01      13.9  T
  53   -634.5792458 -0.102407E-06  0.266E-04    0.01      18.9  T
  54   -634.5792459 -0.591834E-07  0.146E-04    0.01      34.5  T
  55   -634.5792459  0.693808E-08  0.123E-04    0.01      41.0  T

   *** convergence criteria satisfied after 55 iterations ***

         #    Occupation            Energy/Eh            Energy/eV
      -------------------------------------------------------------
         1        2.0000           -0.7939090             -21.6034
       ...           ...                  ...                  ...
       569        2.0000           -0.3754094             -10.2154
       570        2.0000           -0.3740815             -10.1793
       571        2.0000           -0.3721116             -10.1257
       572        2.0000           -0.3704985             -10.0818
       573        2.0000           -0.3690080             -10.0412
       574        2.0000           -0.3686526             -10.0315
       575        0.9011           -0.3557285              -9.6799 (HOMO)
       576        0.6329           -0.3551853              -9.6651 (LUMO)
       577        0.3077           -0.3542975              -9.6409
       578        0.1582           -0.3535847              -9.6215
       579        0.0000           -0.3445292              -9.3751
       580        0.0000           -0.3436972              -9.3525
       ...           ...                  ...                  ...
      1272                          2.3911722              65.0671
      -------------------------------------------------------------
                  HL-Gap            0.0005432 Eh            0.0148 eV
             Fermi-level           -0.3559169 Eh           -9.6850 eV

 SCC (total)                   0 d,  0 h,  0 min, 51.377 sec
 SCC setup                      ...        0 min,  0.046 sec (  0.090%)
 Dispersion                     ...        0 min,  0.023 sec (  0.044%)
 classical contributions        ...        0 min,  0.006 sec (  0.012%)
 integral evaluation            ...        0 min,  0.579 sec (  1.127%)
 iterations                     ...        0 min, 49.381 sec ( 96.115%)
 molecular gradient             ...        0 min,  1.127 sec (  2.194%)
 printout                       ...        0 min,  0.214 sec (  0.417%)

         :::::::::::::::::::::::::::::::::::::::::::::::::::::
         ::                     SUMMARY                     ::
         :::::::::::::::::::::::::::::::::::::::::::::::::::::
         :: total energy            -623.135530179345 Eh    ::
         :: gradient norm              2.025081164721 Eh/a0 ::
         :: HOMO-LUMO gap              0.014780136042 eV    ::
         ::.................................................::
         :: SCC energy              -634.579245891985 Eh    ::
         :: -> electrostatic           0.417227213887 Eh    ::
         :: repulsion energy          11.750718146140 Eh    ::
         :: dispersion energy         -0.307002433501 Eh    ::
         :: halogen bond corr.         0.000000000000 Eh    ::
         :: add. restraining           0.000000000000 Eh    ::
         :: total charge               0.000000000000 e     ::
         :::::::::::::::::::::::::::::::::::::::::::::::::::::

      ----------------------------------------------------------- 
     |                   =====================                   |
     |                        A N C O P T                        |
     |                   =====================                   |
     |               Approximate Normal Coordinate               |
     |                Rational Function Optimizer                |
      ----------------------------------------------------------- 

          ...................................................
          :                      SETUP                      :
          :.................................................:
          :   optimization level            normal          :
          :   max. optcycles                  1182          :
          :   ANC micro-cycles                  20          :
          :   degrees of freedom              1176          :
          :.................................................:
          :   RF solver                   davidson          :
          :   write xtbopt.log                true          :
          :   linear?                        false          :
          :   energy convergence         0.5000000E-05 Eh   :
          :   grad. convergence          0.1000000E-02 Eh/α :
          :   maximium RF displ.         1.0000000          :
          :   Hlow (freq-cutoff)         0.1000000E-01      :
          :   Hmax (freq-cutoff)         5.0000000          :
          :   S6 in model hess.         20.0000000          :
          ...................................................

generating ANC from model Hessian ...
Using Lindh-Hessian (1995)
 Shifting diagonal of input Hessian by    1.0007825624008492E-002
 Lowest  eigenvalues of input Hessian
    0.010000    0.010002    0.010005    0.010006    0.010006    0.010007
    0.000000    0.000000    0.000000    0.000000    0.000000    0.000000
    0.010008    0.010008    0.010009    0.010009    0.010009    0.010011
 Highest eigenvalues
    3.157345    3.157346    3.252973    3.486432    3.486675    3.486675


........................................................................
.............................. CYCLE    1 ..............................
........................................................................
   1   -634.5792459 -0.634579E+03  0.898E-05    0.01       0.0  T
   2   -634.5792367  0.923856E-05  0.197E-03    0.01       2.6  T
   3   -634.5792458 -0.912186E-05  0.301E-04    0.01      16.8  T
   4   -634.5792451  0.727901E-06  0.635E-04    0.01       7.9  T
   5   -634.5792457 -0.622254E-06  0.345E-04    0.01      14.6  T
   6   -634.5792455  0.227953E-06  0.426E-04    0.01      11.8  T
   7   -634.5792457 -0.284440E-06  0.285E-04    0.01      17.7  T
   8   -634.5792459 -0.175971E-06  0.579E-05    0.01      87.0  T
   9   -634.5792459 -0.273167E-08  0.300E-05    0.01     167.7  T
     SCC iter.                  ...        0 min,  8.135 sec
     gradient                   ...        0 min,  1.133 sec
 * total energy  :  -623.1355302 Eh     change       -0.3558580E-07 Eh
   gradient norm :     2.0250798 Eh/α   predicted     0.0000000E+00 (-100.00%)
   displ. norm   :     0.5740896 α      lambda       -0.1106617E+01
   maximum displ.:     0.2420070 α      in ANC's #1171, #1169, #1168, ...

........................................................................
.............................. CYCLE    2 ..............................
........................................................................
   1   -634.4792415 -0.634479E+03  0.170E-01    0.07       0.0  T
   2   -634.1695072  0.309734E+00  0.470E-01    0.02       1.0  T
   3   -634.3242168 -0.154710E+00  0.299E-01    0.27       1.0  T
   4   -634.4073488 -0.831321E-01  0.203E-01    0.16       1.0  T
   5   -634.1565808  0.250768E+00  0.404E-01    0.08       1.0  T
   6   -634.4005049 -0.243924E+00  0.214E-01    0.08       1.0  T
   7   -634.4017864 -0.128149E-02  0.199E-01    0.03       1.0  T
   8   -634.3771738  0.246126E-01  0.224E-01    0.00       1.0  T
   9   -634.4907622 -0.113588E+00  0.799E-02    0.07       1.0  T
  10   -634.4413557  0.494065E-01  0.147E-01    0.06       1.0  T
  11   -634.5006342 -0.592785E-01  0.452E-02    0.06       1.0  T
  12   -634.4992967  0.133756E-02  0.472E-02    0.06       1.0  T
  13   -634.5024776 -0.318087E-02  0.318E-02    0.06       1.0  T
  14   -634.5035793 -0.110170E-02  0.211E-02    0.06       1.0  T
  15   -634.5043918 -0.812573E-03  0.127E-02    0.06       1.0  T
  16   -634.5044355 -0.436583E-04  0.109E-02    0.06       1.0  T
  17   -634.5044804 -0.449334E-04  0.928E-03    0.06       1.0  T
  18   -634.5046864 -0.205990E-03  0.351E-03    0.06       1.4  T
  19   -634.5047058 -0.194268E-04  0.180E-03    0.06       2.8  T
  20   -634.5047112 -0.539450E-05  0.597E-04    0.06       8.4  T
  21   -634.5047118 -0.545101E-06  0.346E-04    0.06      14.6  T
  22   -634.5047119 -0.165300E-06  0.276E-04    0.06      18.3  T
  23   -634.5047120 -0.381579E-08  0.225E-04    0.06      22.4  T
  24   -634.5047121 -0.127694E-06  0.626E-05    0.06      80.4  T
  25   -634.5047121 -0.796558E-08  0.199E-05    0.06     252.7  T
     SCC iter.                  ...        0 min, 22.424 sec
     gradient                   ...        0 min,  1.173 sec
 * total energy  :  -623.8913507 Eh     change       -0.7558205E+00 Eh
   gradient norm :     0.8519795 Eh/α   predicted    -0.7356692E+00 (  -2.67%)
   displ. norm   :     0.5570884 α      lambda       -0.4083291E+00
   maximum displ.:     0.1486408 α      in ANC's #1171, #1169, #1168, ...

........................................................................
.............................. CYCLE    3 ..............................
........................................................................
   1   -634.5971187 -0.634597E+03  0.126E-01    0.12       0.0  T
   2   -634.1220456  0.475073E+00  0.504E-01    0.12       1.0  T
   3   -634.5705442 -0.448499E+00  0.153E-01    0.13       1.0  T
   4   -634.5896318 -0.190876E-01  0.106E-01    0.12       1.0  T
   5   -634.5702362  0.193956E-01  0.118E-01    0.09       1.0  T
   6   -634.5910301 -0.207939E-01  0.880E-02    0.19       1.0  T
   7   -634.5983737 -0.734365E-02  0.666E-02    0.09       1.0  T
   8   -634.6010421 -0.266837E-02  0.547E-02    0.17       1.0  T
   9   -634.6039095 -0.286742E-02  0.386E-02    0.14       1.0  T
  10   -634.6043167 -0.407189E-03  0.331E-02    0.11       1.0  T
  11   -634.6053118 -0.995141E-03  0.211E-02    0.13       1.0  T
  12   -634.6026837  0.262819E-02  0.359E-02    0.11       1.0  T
  13   -634.6054975 -0.281384E-02  0.137E-02    0.11       1.0  T
  14   -634.6056002 -0.102699E-03  0.111E-02    0.12       1.0  T
  15   -634.6058075 -0.207319E-03  0.557E-03    0.12       1.0  T
  16   -634.6058768 -0.692422E-04  0.105E-03    0.12       4.8  T
  17   -634.6058785 -0.173547E-05  0.285E-04    0.12      17.7  T
  18   -634.6058784  0.944460E-07  0.317E-04    0.12      15.9  T
  19   -634.6058786 -0.200126E-06  0.107E-04    0.12      47.2  T
  20   -634.6058786  0.477951E-08  0.956E-05    0.12      52.7  T
     SCC iter.                  ...        0 min, 18.425 sec
     gradient                   ...        0 min,  1.151 sec
 * total energy  :  -624.1835935 Eh     change       -0.2922427E+00 Eh
   gradient norm :     0.3668872 Eh/α   predicted    -0.2675267E+00 (  -8.46%)
   displ. norm   :     0.6353397 α      lambda       -0.1797964E+00
   maximum displ.:     0.1250071 α      in ANC's #458, #293, #285, ...

........................................................................
.............................. CYCLE    4 ..............................
........................................................................
   1   -634.6495887 -0.634650E+03  0.855E-02    0.32       0.0  T
   2   -634.3834636  0.266125E+00  0.376E-01    0.04       1.0  T
   3   -634.6470023 -0.263539E+00  0.837E-02    0.28       1.0  T
   4   -634.6534225 -0.642013E-02  0.438E-02    0.34       1.0  T
   5   -634.6542105 -0.788055E-03  0.271E-02    0.30       1.0  T
   6   -634.6552319 -0.102141E-02  0.231E-02    0.18       1.0  T
   7   -634.6521270  0.310497E-02  0.409E-02    0.12       1.0  T
   8   -634.6546887 -0.256179E-02  0.196E-02    0.14       1.0  T
   9   -634.6554244 -0.735701E-03  0.449E-03    0.17       1.1  T
  10   -634.6554528 -0.283962E-04  0.185E-03    0.18       2.7  T
  11   -634.6554529 -0.891732E-07  0.157E-03    0.18       3.2  T
  12   -634.6554553 -0.232549E-05  0.109E-03    0.18       4.6  T
  13   -634.6554565 -0.122400E-05  0.808E-04    0.18       6.2  T
  14   -634.6554574 -0.900785E-06  0.479E-04    0.18      10.5  T
  15   -634.6554577 -0.341540E-06  0.255E-04    0.18      19.8  T
  16   -634.6554578 -0.112965E-06  0.103E-04    0.18      49.0  T
  17   -634.6554579 -0.207168E-07  0.307E-05    0.18     164.3  T
     SCC iter.                  ...        0 min, 15.658 sec
     gradient                   ...        0 min,  1.188 sec
 * total energy  :  -624.3124341 Eh     change       -0.1288406E+00 Eh
   gradient norm :     0.1712187 Eh/α   predicted    -0.1261862E+00 (  -2.06%)
   displ. norm   :     0.7499189 α      lambda       -0.8964649E-01
   maximum displ.:     0.1757684 α      in ANC's #293, #285, #306, ...

........................................................................
.............................. CYCLE    5 ..............................
........................................................................
   1   -634.6498541 -0.634650E+03  0.454E-02    0.54       0.0  T
   2   -634.6500564 -0.202275E-03  0.544E-02    0.31       1.0  T
   3   -634.6516443 -0.158791E-02  0.186E-02    0.40       1.0  T
   4   -634.6514131  0.231222E-03  0.197E-02    0.36       1.0  T
   5   -634.6516553 -0.242223E-03  0.980E-03    0.36       1.0  T
   6   -634.6516913 -0.359358E-04  0.250E-03    0.37       2.0  T
   7   -634.6516941 -0.286143E-05  0.836E-04    0.37       6.0  T
   8   -634.6516945 -0.396012E-06  0.503E-04    0.37      10.0  T
   9   -634.6516948 -0.311877E-06  0.215E-04    0.37      23.4  T
  10   -634.6516949 -0.408992E-07  0.100E-04    0.37      50.1  T
  11   -634.6516949 -0.629996E-08  0.430E-05    0.37     117.2  T
     SCC iter.                  ...        0 min, 10.176 sec
     gradient                   ...        0 min,  1.174 sec
 * total energy  :  -624.3843934 Eh     change       -0.7195930E-01 Eh
   gradient norm :     0.1105110 Eh/α   predicted    -0.7003088E-01 (  -2.68%)
   displ. norm   :     0.8415155 α      lambda       -0.6710672E-01
   maximum displ.:     0.1852777 α      in ANC's #80, #293, #285, ...

........................................................................
.............................. CYCLE    6 ..............................
........................................................................
   1   -634.6631059 -0.634663E+03  0.439E-02    0.63       0.0  T
   2   -634.6632902 -0.184280E-03  0.529E-02    0.63       1.0  T
   3   -634.6645049 -0.121474E-02  0.171E-02    0.63       1.0  T
   4   -634.6644342  0.707238E-04  0.119E-02    0.63       1.0  T
   5   -634.6645040 -0.698254E-04  0.585E-03    0.63       1.0  T
   6   -634.6645289 -0.248227E-04  0.209E-03    0.63       2.4  T
   7   -634.6645334 -0.449636E-05  0.610E-04    0.63       8.3  T
   8   -634.6645337 -0.371978E-06  0.317E-04    0.63      15.9  T
   9   -634.6645338 -0.735865E-07  0.120E-04    0.63      41.8  T
  10   -634.6645338 -0.653222E-08  0.554E-05    0.63      90.9  T
     SCC iter.                  ...        0 min,  9.359 sec
     gradient                   ...        0 min,  1.166 sec
 * total energy  :  -624.4459452 Eh     change       -0.6155179E-01 Eh
   gradient norm :     0.1030715 Eh/α   predicted    -0.5731415E-01 (  -6.88%)
   displ. norm   :     0.9196004 α      lambda       -0.6756666E-01
   maximum displ.:     0.2243402 α      in ANC's #80, #58, #76, ...

........................................................................
.............................. CYCLE    7 ..............................
........................................................................
   1   -634.6705336 -0.634671E+03  0.501E-02    0.71       0.0  T
   2   -634.6712103 -0.676697E-03  0.506E-02    0.71       1.0  T
   3   -634.6719393 -0.729000E-03  0.193E-02    0.71       1.0  T
   4   -634.6718156  0.123727E-03  0.130E-02    0.71       1.0  T
   5   -634.6719133 -0.976776E-04  0.609E-03    0.71       1.0  T
   6   -634.6719558 -0.425451E-04  0.179E-03    0.71       2.8  T
   7   -634.6719586 -0.274487E-05  0.610E-04    0.71       8.3  T
   8   -634.6719589 -0.353298E-06  0.282E-04    0.71      17.9  T
   9   -634.6719590 -0.669174E-07  0.116E-04    0.71      43.6  T
  10   -634.6719590 -0.682337E-08  0.489E-05    0.71     103.0  T
     SCC iter.                  ...        0 min,  9.466 sec
     gradient                   ...        0 min,  1.210 sec
 * total energy  :  -624.5102533 Eh     change       -0.6430812E-01 Eh
   gradient norm :     0.0992644 Eh/α   predicted    -0.6235271E-01 (  -3.04%)
   displ. norm   :     0.9368106 α      lambda       -0.6583455E-01
   maximum displ.:     0.2595526 α      in ANC's #80, #58, #76, ...

........................................................................
.............................. CYCLE    8 ..............................
........................................................................
   1   -634.6710791 -0.634671E+03  0.516E-02    0.75       0.0  T
   2   -634.6716647 -0.585631E-03  0.505E-02    0.75       1.0  T
   3   -634.6721177 -0.452940E-03  0.235E-02    0.75       1.0  T
   4   -634.6718915  0.226186E-03  0.166E-02    0.75       1.0  T
   5   -634.6721037 -0.212192E-03  0.496E-03    0.75       1.0  T
   6   -634.6721309 -0.272081E-04  0.131E-03    0.75       3.9  T
   7   -634.6721323 -0.137985E-05  0.716E-04    0.75       7.0  T
   8   -634.6721329 -0.582987E-06  0.204E-04    0.75      24.7  T
   9   -634.6721329 -0.278467E-07  0.908E-05    0.75      55.5  T
  10   -634.6721329 -0.422131E-08  0.424E-05    0.75     118.9  T
     SCC iter.                  ...        0 min,  9.216 sec
     gradient                   ...        0 min,  1.153 sec
 * total energy  :  -624.5679522 Eh     change       -0.5769886E-01 Eh
   gradient norm :     0.0916456 Eh/α   predicted    -0.6180596E-01 (   7.12%)
   displ. norm   :     0.8622732 α      lambda       -0.4912874E-01
   maximum displ.:     0.3161579 α      in ANC's #80, #58, #76, ...

........................................................................
.............................. CYCLE    9 ..............................
........................................................................
   1   -634.6985223 -0.634699E+03  0.369E-02    0.75       0.0  T
   2   -634.6986618 -0.139527E-03  0.384E-02    0.75       1.0  T
   3   -634.6989549 -0.293097E-03  0.187E-02    0.75       1.0  T
   4   -634.6987342  0.220721E-03  0.151E-02    0.75       1.0  T
   5   -634.6989565 -0.222239E-03  0.293E-03    0.75       1.7  T
   6   -634.6989629 -0.645574E-05  0.654E-04    0.75       7.7  T
   7   -634.6989632 -0.270751E-06  0.442E-04    0.75      11.4  T
   8   -634.6989634 -0.258533E-06  0.107E-04    0.75      47.3  T
   9   -634.6989634 -0.780585E-08  0.492E-05    0.75     102.4  T
     SCC iter.                  ...        0 min,  8.513 sec
     gradient                   ...        0 min,  1.148 sec
 * total energy  :  -624.6083229 Eh     change       -0.4037077E-01 Eh
   gradient norm :     0.0831067 Eh/α   predicted    -0.4282840E-01 (   6.09%)
   displ. norm   :     0.7863835 α      lambda       -0.3772365E-01
   maximum displ.:     0.3215615 α      in ANC's #80, #58, #76, ...

........................................................................
.............................. CYCLE   10 ..............................
........................................................................
   1   -634.7518318 -0.634752E+03  0.200E-02    0.74       0.0  T
   2   -634.7518648 -0.330188E-04  0.181E-02    0.74       1.0  T
   3   -634.7519975 -0.132711E-03  0.746E-03    0.74       1.0  T
   4   -634.7519523  0.452534E-04  0.829E-03    0.74       1.0  T
   5   -634.7520074 -0.551576E-04  0.215E-03    0.74       2.3  T
   6   -634.7520094 -0.193119E-05  0.646E-04    0.74       7.8  T
   7   -634.7520098 -0.470019E-06  0.219E-04    0.74      23.1  T
   8   -634.7520099 -0.615208E-07  0.733E-05    0.74      68.7  T
   9   -634.7520099 -0.369437E-08  0.345E-05    0.74     146.0  T
     SCC iter.                  ...        0 min,  8.093 sec
     gradient                   ...        0 min,  1.174 sec
 * total energy  :  -624.6398451 Eh     change       -0.3152217E-01 Eh
   gradient norm :     0.0587855 Eh/α   predicted    -0.3052599E-01 (  -3.16%)
   displ. norm   :     0.8653653 α      lambda       -0.3284099E-01
   maximum displ.:     0.3194706 α      in ANC's #80, #58, #76, ...

........................................................................
.............................. CYCLE   11 ..............................
........................................................................
   1   -634.8091981 -0.634809E+03  0.186E-02    0.73       0.0  T
   2   -634.8092498 -0.516961E-04  0.154E-02    0.73       1.0  T
   3   -634.8093657 -0.115830E-03  0.640E-03    0.73       1.0  T
   4   -634.8093476  0.180221E-04  0.659E-03    0.73       1.0  T
   5   -634.8093788 -0.311856E-04  0.208E-03    0.73       2.4  T
   6   -634.8093808 -0.194174E-05  0.749E-04    0.73       6.7  T
   7   -634.8093815 -0.699513E-06  0.188E-04    0.73      26.8  T
   8   -634.8093815 -0.392563E-07  0.753E-05    0.73      66.9  T
     SCC iter.                  ...        0 min,  7.490 sec
     gradient                   ...        0 min,  1.140 sec
 * total energy  :  -624.6656299 Eh     change       -0.2578477E-01 Eh
   gradient norm :     0.0649421 Eh/α   predicted    -0.2871714E-01 (  11.37%)
   displ. norm   :     0.8874757 α      lambda       -0.2951929E-01
   maximum displ.:     0.3949429 α      in ANC's #80, #58, #76, ...

........................................................................
.............................. CYCLE   12 ..............................
........................................................................
   1   -634.8567737 -0.634857E+03  0.168E-02    0.72       0.0  T
   2   -634.8567927 -0.189297E-04  0.135E-02    0.72       1.0  T
   3   -634.8568711 -0.784813E-04  0.519E-03    0.72       1.0  T
   4   -634.8568631  0.807797E-05  0.546E-03    0.72       1.0  T
   5   -634.8568830 -0.199041E-04  0.156E-03    0.72       3.2  T
   6   -634.8568847 -0.174476E-05  0.505E-04    0.72      10.0  T
   7   -634.8568850 -0.337573E-06  0.146E-04    0.72      34.4  T
   8   -634.8568851 -0.237701E-07  0.548E-05    0.72      91.9  T
     SCC iter.                  ...        0 min,  7.304 sec
     gradient                   ...        0 min,  1.181 sec
 * total energy  :  -624.6879753 Eh     change       -0.2234540E-01 Eh
   gradient norm :     0.0540040 Eh/α   predicted    -0.2638455E-01 (  18.08%)
   displ. norm   :     0.8528537 α      lambda       -0.2580740E-01
   maximum displ.:     0.3688812 α      in ANC's #80, #58, #61, ...

........................................................................
.............................. CYCLE   13 ..............................
........................................................................
   1   -634.9009349 -0.634901E+03  0.219E-02    0.70       0.0  T
   2   -634.9010091 -0.741251E-04  0.194E-02    0.70       1.0  T
   3   -634.9011246 -0.115520E-03  0.721E-03    0.70       1.0  T
   4   -634.9010902  0.344236E-04  0.692E-03    0.70       1.0  T
   5   -634.9011254 -0.352088E-04  0.199E-03    0.70       2.5  T
   6   -634.9011291 -0.371415E-05  0.439E-04    0.70      11.5  T
   7   -634.9011292 -0.160200E-06  0.176E-04    0.70      28.7  T
   8   -634.9011293 -0.425191E-07  0.516E-05    0.70      97.6  T
     SCC iter.                  ...        0 min,  7.230 sec
     gradient                   ...        0 min,  1.183 sec
 * total energy  :  -624.7056828 Eh     change       -0.1770753E-01 Eh
   gradient norm :     0.0808072 Eh/α   predicted    -0.2228935E-01 (  25.87%)
   displ. norm   :     0.7753327 α      lambda       -0.2335170E-01
   maximum displ.:     0.3074477 α      in ANC's #80, #58, #76, ...

........................................................................
.............................. CYCLE   14 ..............................
........................................................................
   1   -634.9527389 -0.634953E+03  0.157E-02    0.72       0.0  T
   2   -634.9527834 -0.445616E-04  0.156E-02    0.72       1.0  T
   3   -634.9528554 -0.720028E-04  0.600E-03    0.72       1.0  T
   4   -634.9528277  0.276931E-04  0.568E-03    0.72       1.0  T
   5   -634.9528566 -0.288250E-04  0.131E-03    0.72       3.8  T
   6   -634.9528573 -0.780764E-06  0.352E-04    0.72      14.3  T
   7   -634.9528575 -0.114483E-06  0.152E-04    0.72      33.2  T
   8   -634.9528575 -0.292739E-07  0.467E-05    0.72     108.0  T
     SCC iter.                  ...        0 min,  7.236 sec
     gradient                   ...        0 min,  1.182 sec
 * total energy  :  -624.7244814 Eh     change       -0.1879857E-01 Eh
   gradient norm :     0.0424010 Eh/α   predicted    -0.1869469E-01 (  -0.55%)
   displ. norm   :     0.8768107 α      lambda       -0.1866707E-01
   maximum displ.:     0.3698370 α      in ANC's #80, #58, #76, ...

........................................................................
.............................. CYCLE   15 ..............................
........................................................................
   1   -635.0028093 -0.635003E+03  0.101E-02    0.74       0.0  T
   2   -635.0028311 -0.217979E-04  0.832E-03    0.74       1.0  T
   3   -635.0028520 -0.208874E-04  0.365E-03    0.74       1.4  T
   4   -635.0028418  0.102189E-04  0.340E-03    0.74       1.5  T
   5   -635.0028535 -0.117047E-04  0.817E-04    0.74       6.2  T
   6   -635.0028541 -0.606559E-06  0.281E-04    0.74      17.9  T
   7   -635.0028542 -0.839382E-07  0.102E-04    0.74      49.4  T
   8   -635.0028542 -0.109336E-07  0.334E-05    0.74     150.8  T
     SCC iter.                  ...        0 min,  7.418 sec
     gradient                   ...        0 min,  1.200 sec
 * total energy  :  -624.7406847 Eh     change       -0.1620332E-01 Eh
   gradient norm :     0.0384892 Eh/α   predicted    -0.1650913E-01 (   1.89%)
   displ. norm   :     0.9182066 α      lambda       -0.1827114E-01
   maximum displ.:     0.3682082 α      in ANC's #80, #58, #61, ...

........................................................................
.............................. CYCLE   16 ..............................
........................................................................
   1   -635.0517705 -0.635052E+03  0.811E-03    0.74       0.0  T
   2   -635.0517730 -0.253046E-05  0.634E-03    0.74       1.0  T
   3   -635.0517897 -0.166577E-04  0.309E-03    0.74       1.6  T
   4   -635.0517883  0.138230E-05  0.265E-03    0.74       1.9  T
   5   -635.0517943 -0.595640E-05  0.860E-04    0.74       5.9  T
   6   -635.0517949 -0.654434E-06  0.215E-04    0.74      23.4  T
   7   -635.0517950 -0.591544E-07  0.656E-05    0.74      76.8  T
   8   -635.0517950 -0.434602E-08  0.194E-05    0.74     259.2  T
     SCC iter.                  ...        0 min,  7.137 sec
     gradient                   ...        0 min,  1.170 sec
 * total energy  :  -624.7552340 Eh     change       -0.1454929E-01 Eh
   gradient norm :     0.0377426 Eh/α   predicted    -0.1683783E-01 (  15.73%)
   displ. norm   :     0.8702667 α      lambda       -0.1588860E-01
   maximum displ.:     0.3582129 α      in ANC's #80, #58, #76, ...

........................................................................
.............................. CYCLE   17 ..............................
........................................................................
   1   -635.1073371 -0.635107E+03  0.930E-03    0.73       0.0  T
   2   -635.1073491 -0.120418E-04  0.752E-03    0.73       1.0  T
   3   -635.1073656 -0.165354E-04  0.365E-03    0.73       1.4  T
   4   -635.1073555  0.101557E-04  0.345E-03    0.73       1.5  T
   5   -635.1073684 -0.128701E-04  0.865E-04    0.73       5.8  T
   6   -635.1073690 -0.638962E-06  0.239E-04    0.73      21.1  T
   7   -635.1073691 -0.677762E-07  0.829E-05    0.73      60.7  T
   8   -635.1073691 -0.776788E-08  0.291E-05    0.73     172.9  T
     SCC iter.                  ...        0 min,  6.877 sec
     gradient                   ...        0 min,  1.170 sec
 * total energy  :  -624.7677662 Eh     change       -0.1253221E-01 Eh
   gradient norm :     0.0405640 Eh/α   predicted    -0.1396099E-01 (  11.40%)
   displ. norm   :     0.8522844 α      lambda       -0.1365497E-01
   maximum displ.:     0.3446248 α      in ANC's #58, #80, #61, ...

........................................................................
.............................. CYCLE   18 ..............................
........................................................................
   1   -635.1496135 -0.635150E+03  0.125E-02    0.75       0.0  T
   2   -635.1496231 -0.961193E-05  0.131E-02    0.75       1.0  T
   3   -635.1496952 -0.721027E-04  0.506E-03    0.75       1.0  T
   4   -635.1496739  0.213055E-04  0.487E-03    0.75       1.0  T
   5   -635.1496962 -0.223644E-04  0.891E-04    0.75       5.7  T
   6   -635.1496967 -0.496727E-06  0.226E-04    0.75      22.3  T
   7   -635.1496968 -0.442060E-07  0.103E-04    0.75      48.7  T
   8   -635.1496968 -0.124597E-07  0.315E-05    0.75     159.7  T
     SCC iter.                  ...        0 min,  7.580 sec
     gradient                   ...        0 min,  1.188 sec
 * total energy  :  -624.7788633 Eh     change       -0.1109710E-01 Eh
   gradient norm :     0.0305339 Eh/α   predicted    -0.1178690E-01 (   6.22%)
   displ. norm   :     0.8705088 α      lambda       -0.1132118E-01
   maximum displ.:     0.3235091 α      in ANC's #58, #80, #61, ...

........................................................................
.............................. CYCLE   19 ..............................
........................................................................
   1   -635.1931089 -0.635193E+03  0.723E-03    0.75       0.0  T
   2   -635.1931073  0.154169E-05  0.624E-03    0.75       1.0  T
   3   -635.1931295 -0.222083E-04  0.296E-03    0.75       1.7  T
   4   -635.1931272  0.236107E-05  0.257E-03    0.75       2.0  T
   5   -635.1931331 -0.595464E-05  0.695E-04    0.75       7.3  T
   6   -635.1931335 -0.394798E-06  0.254E-04    0.75      19.8  T
   7   -635.1931336 -0.606842E-07  0.676E-05    0.75      74.6  T
   8   -635.1931336 -0.405760E-08  0.319E-05    0.75     158.0  T
     SCC iter.                  ...        0 min,  8.020 sec
     gradient                   ...        0 min,  1.172 sec
 * total energy  :  -624.7880481 Eh     change       -0.9184839E-02 Eh
   gradient norm :     0.0268885 Eh/α   predicted    -0.9950090E-02 (   8.33%)
   displ. norm   :     0.8805377 α      lambda       -0.1060908E-01
   maximum displ.:     0.3456489 α      in ANC's #58, #80, #61, ...

........................................................................
.............................. CYCLE   20 ..............................
........................................................................
   1   -635.2378009 -0.635238E+03  0.777E-03    0.74       0.0  T
   2   -635.2378038 -0.293165E-05  0.709E-03    0.74       1.0  T
   3   -635.2378330 -0.291610E-04  0.305E-03    0.74       1.6  T
   4   -635.2378266  0.639222E-05  0.304E-03    0.74       1.7  T
   5   -635.2378355 -0.886867E-05  0.814E-04    0.74       6.2  T
   6   -635.2378359 -0.455134E-06  0.239E-04    0.74      21.1  T
   7   -635.2378360 -0.499235E-07  0.793E-05    0.74      63.5  T
   8   -635.2378360 -0.664204E-08  0.342E-05    0.74     147.2  T
     SCC iter.                  ...        0 min,  7.345 sec
     gradient                   ...        0 min,  1.175 sec
 * total energy  :  -624.7948365 Eh     change       -0.6788349E-02 Eh
   gradient norm :     0.0365228 Eh/α   predicted    -0.9417409E-02 (  38.73%)
   displ. norm   :     0.7585012 α      lambda       -0.9343998E-02
   maximum displ.:     0.3039649 α      in ANC's #58, #80, #61, ...
 * RMSD in coord.:     0.6278806 α      energy gain  -0.1659306E+01 Eh

generating ANC from model Hessian ...
Using Lindh-Hessian (1995)
 Shifting diagonal of input Hessian by    1.0001763103932542E-002
 Lowest  eigenvalues of input Hessian
    0.010000    0.010001    0.010001    0.010001    0.000000    0.000000
    0.000000    0.000000    0.000000    0.000000    0.010002    0.010002
    0.010003    0.010004    0.010005    0.010005    0.010006    0.010010
 Highest eigenvalues
    2.801892    2.802447    2.928405    2.938095    3.017821    3.018238


........................................................................
.............................. CYCLE   21 ..............................
........................................................................
   1   -635.2793098 -0.635279E+03  0.897E-03    0.74       0.0  T
   2   -635.2793147 -0.489142E-05  0.846E-03    0.74       1.0  T
   3   -635.2793447 -0.299955E-04  0.350E-03    0.74       1.4  T
   4   -635.2793346  0.100955E-04  0.332E-03    0.74       1.5  T
   5   -635.2793459 -0.112767E-04  0.645E-04    0.74       7.8  T
   6   -635.2793462 -0.282710E-06  0.254E-04    0.74      19.9  T
   7   -635.2793463 -0.802230E-07  0.932E-05    0.74      54.0  T
   8   -635.2793463 -0.952059E-08  0.222E-05    0.74     226.5  T
     SCC iter.                  ...        0 min,  7.820 sec
     gradient                   ...        0 min,  1.179 sec
 * total energy  :  -624.8014196 Eh     change       -0.6583065E-02 Eh
   gradient norm :     0.0291275 Eh/α   predicted     0.0000000E+00 (-100.00%)
   displ. norm   :     0.4595975 α      lambda       -0.4118314E-02
   maximum displ.:     0.2306605 α      in ANC's #69, #66, #96, ...

........................................................................
.............................. CYCLE   22 ..............................
........................................................................
   1   -635.3002992 -0.635300E+03  0.294E-03    0.74       0.0  T
   2   -635.3003004 -0.116408E-05  0.229E-03    0.74       2.2  T
   3   -635.3003019 -0.148424E-05  0.124E-03    0.74       4.1  T
   4   -635.3003016  0.281166E-06  0.104E-03    0.74       4.8  T
   5   -635.3003026 -0.100481E-05  0.363E-04    0.74      13.9  T
   6   -635.3003027 -0.944011E-07  0.906E-05    0.74      55.6  T
   7   -635.3003027 -0.876776E-08  0.248E-05    0.74     203.0  T
     SCC iter.                  ...        0 min,  6.328 sec
     gradient                   ...        0 min,  1.177 sec
 * total energy  :  -624.8046441 Eh     change       -0.3224526E-02 Eh
   gradient norm :     0.0113556 Eh/α   predicted    -0.2498609E-02 ( -22.51%)
   displ. norm   :     0.8192058 α      lambda       -0.6219514E-02
   maximum displ.:     0.3838180 α      in ANC's #69, #96, #66, ...

........................................................................
.............................. CYCLE   23 ..............................
........................................................................
   1   -635.3332270 -0.635333E+03  0.477E-03    0.74       0.0  T
   2   -635.3332290 -0.200999E-05  0.401E-03    0.74       1.3  T
   3   -635.3332362 -0.723473E-05  0.206E-03    0.74       2.4  T
   4   -635.3332350  0.118078E-05  0.176E-03    0.74       2.9  T
   5   -635.3332379 -0.288059E-05  0.578E-04    0.74       8.7  T
   6   -635.3332381 -0.198973E-06  0.157E-04    0.74      32.0  T
   7   -635.3332381 -0.247850E-07  0.409E-05    0.74     123.2  T
     SCC iter.                  ...        0 min,  6.673 sec
     gradient                   ...        0 min,  1.158 sec
 * total energy  :  -624.8084847 Eh     change       -0.3840586E-02 Eh
   gradient norm :     0.0398701 Eh/α   predicted    -0.5196712E-02 (  35.31%)
   displ. norm   :     0.6880879 α      lambda       -0.5212313E-02
   maximum displ.:     0.3394596 α      in ANC's #69, #66, #96, ...

........................................................................
.............................. CYCLE   24 ..............................
........................................................................
   1   -635.3569355 -0.635357E+03  0.366E-03    0.73       0.0  T
   2   -635.3569351  0.489935E-06  0.317E-03    0.73       1.6  T
   3   -635.3569413 -0.629640E-05  0.153E-03    0.73       3.3  T
   4   -635.3569413  0.705121E-07  0.115E-03    0.73       4.4  T
   5   -635.3569423 -0.105690E-05  0.349E-04    0.73      14.4  T
   6   -635.3569424 -0.821337E-07  0.139E-04    0.73      36.4  T
   7   -635.3569424 -0.247132E-07  0.408E-05    0.73     123.6  T
     SCC iter.                  ...        0 min,  6.730 sec
     gradient                   ...        0 min,  1.179 sec
 * total energy  :  -624.8126234 Eh     change       -0.4138744E-02 Eh
   gradient norm :     0.0273745 Eh/α   predicted    -0.3840082E-02 (  -7.22%)
   displ. norm   :     0.7792093 α      lambda       -0.5120900E-02
   maximum displ.:     0.4001135 α      in ANC's #69, #66, #96, ...

........................................................................
.............................. CYCLE   25 ..............................
........................................................................
   1   -635.3713214 -0.635371E+03  0.506E-03    0.74       0.0  T
   2   -635.3713246 -0.323963E-05  0.479E-03    0.74       1.1  T
   3   -635.3713358 -0.112017E-04  0.192E-03    0.74       2.6  T
   4   -635.3713333  0.250986E-05  0.170E-03    0.74       3.0  T
   5   -635.3713361 -0.274576E-05  0.562E-04    0.74       9.0  T
   6   -635.3713363 -0.201933E-06  0.188E-04    0.74      26.8  T
   7   -635.3713363 -0.422688E-07  0.570E-05    0.74      88.4  T
     SCC iter.                  ...        0 min,  6.269 sec
     gradient                   ...        0 min,  1.137 sec
 * total energy  :  -624.8149104 Eh     change       -0.2287035E-02 Eh
   gradient norm :     0.0206606 Eh/α   predicted    -0.4115075E-02 (  79.93%)
   displ. norm   :     0.6392988 α      lambda       -0.4888596E-02
   maximum displ.:     0.3044459 α      in ANC's #69, #66, #96, ...

........................................................................
.............................. CYCLE   26 ..............................
........................................................................
   1   -635.3889052 -0.635389E+03  0.336E-03    0.73       0.0  T
   2   -635.3889051  0.647942E-07  0.293E-03    0.74       1.7  T
   3   -635.3889097 -0.456430E-05  0.132E-03    0.74       3.8  T
   4   -635.3889089  0.768989E-06  0.110E-03    0.74       4.6  T
   5   -635.3889101 -0.124873E-05  0.340E-04    0.74      14.8  T
   6   -635.3889102 -0.888933E-07  0.971E-05    0.74      51.9  T
   7   -635.3889102 -0.911666E-08  0.338E-05    0.74     149.1  T
     SCC iter.                  ...        0 min,  6.344 sec
     gradient                   ...        0 min,  1.190 sec
 * total energy  :  -624.8182127 Eh     change       -0.3302298E-02 Eh
   gradient norm :     0.0155808 Eh/α   predicted    -0.3443291E-02 (   4.27%)
   displ. norm   :     0.7320518 α      lambda       -0.3555042E-02
   maximum displ.:     0.3690653 α      in ANC's #69, #66, #67, ...

........................................................................
.............................. CYCLE   27 ..............................
........................................................................
   1   -635.4011801 -0.635401E+03  0.287E-03    0.73       0.0  T
   2   -635.4011814 -0.131039E-05  0.234E-03    0.73       2.2  T
   3   -635.4011842 -0.273922E-05  0.105E-03    0.73       4.8  T
   4   -635.4011839  0.261134E-06  0.919E-04    0.73       5.5  T
   5   -635.4011846 -0.655802E-06  0.336E-04    0.73      15.0  T
   6   -635.4011847 -0.948335E-07  0.110E-04    0.73      45.6  T
   7   -635.4011847 -0.114370E-07  0.313E-05    0.73     161.2  T
     SCC iter.                  ...        0 min,  6.568 sec
     gradient                   ...        0 min,  1.195 sec
 * total energy  :  -624.8199820 Eh     change       -0.1769234E-02 Eh
   gradient norm :     0.0138890 Eh/α   predicted    -0.2730094E-02 (  54.31%)
   displ. norm   :     0.6628576 α      lambda       -0.3573934E-02
   maximum displ.:     0.3456912 α      in ANC's #69, #66, #67, ...

........................................................................
.............................. CYCLE   28 ..............................
........................................................................
   1   -635.4144540 -0.635414E+03  0.284E-03    0.73       0.0  T
   2   -635.4144550 -0.946017E-06  0.212E-03    0.73       2.4  T
   3   -635.4144564 -0.144551E-05  0.118E-03    0.73       4.3  T
   4   -635.4144566 -0.156952E-06  0.839E-04    0.73       6.0  T
   5   -635.4144571 -0.547207E-06  0.275E-04    0.73      18.4  T
   6   -635.4144572 -0.685021E-07  0.918E-05    0.73      54.9  T
   7   -635.4144572 -0.903856E-08  0.308E-05    0.73     163.8  T
     SCC iter.                  ...        0 min,  6.683 sec
     gradient                   ...        0 min,  1.187 sec
 * total energy  :  -624.8221031 Eh     change       -0.2121165E-02 Eh
   gradient norm :     0.0139019 Eh/α   predicted    -0.2572130E-02 (  21.26%)
   displ. norm   :     0.6503796 α      lambda       -0.3299914E-02
   maximum displ.:     0.3227450 α      in ANC's #69, #66, #68, ...

........................................................................
.............................. CYCLE   29 ..............................
........................................................................
   1   -635.4245583 -0.635425E+03  0.292E-03    0.73       0.0  T
   2   -635.4245600 -0.164644E-05  0.206E-03    0.73       2.4  T
   3   -635.4245613 -0.129888E-05  0.110E-03    0.73       4.6  T
   4   -635.4245613  0.281957E-07  0.821E-04    0.73       6.1  T
   5   -635.4245617 -0.486897E-06  0.293E-04    0.73      17.2  T
   6   -635.4245618 -0.829722E-07  0.888E-05    0.73      56.8  T
   7   -635.4245618 -0.726266E-08  0.348E-05    0.73     144.7  T
     SCC iter.                  ...        0 min,  6.450 sec
     gradient                   ...        0 min,  1.253 sec
 * total energy  :  -624.8237387 Eh     change       -0.1635559E-02 Eh
   gradient norm :     0.0117398 Eh/α   predicted    -0.2347880E-02 (  43.55%)
   displ. norm   :     0.6318576 α      lambda       -0.2374490E-02
   maximum displ.:     0.3272692 α      in ANC's #69, #66, #67, ...

........................................................................
.............................. CYCLE   30 ..............................
........................................................................
   1   -635.4322252 -0.635432E+03  0.253E-03    0.73       0.0  T
   2   -635.4322263 -0.111416E-05  0.192E-03    0.73       2.6  T
   3   -635.4322277 -0.139874E-05  0.100E-03    0.73       5.0  T
   4   -635.4322276  0.401450E-07  0.801E-04    0.73       6.3  T
   5   -635.4322281 -0.486335E-06  0.247E-04    0.73      20.4  T
   6   -635.4322282 -0.572711E-07  0.100E-04    0.73      50.4  T
   7   -635.4322282 -0.113978E-07  0.277E-05    0.73     181.9  T
     SCC iter.                  ...        0 min,  6.557 sec
     gradient                   ...        0 min,  1.183 sec
 * total energy  :  -624.8256267 Eh     change       -0.1887954E-02 Eh
   gradient norm :     0.0085245 Eh/α   predicted    -0.1661250E-02 ( -12.01%)
   displ. norm   :     0.7506619 α      lambda       -0.2228180E-02
   maximum displ.:     0.3595574 α      in ANC's #69, #66, #67, ...

........................................................................
.............................. CYCLE   31 ..............................
........................................................................
   1   -635.4365023 -0.635437E+03  0.328E-03    0.73       0.0  T
   2   -635.4365049 -0.256887E-05  0.201E-03    0.73       2.5  T
   3   -635.4365056 -0.711739E-06  0.125E-03    0.73       4.0  T
   4   -635.4365060 -0.402215E-06  0.825E-04    0.73       6.1  T
   5   -635.4365064 -0.447018E-06  0.251E-04    0.73      20.1  T
   6   -635.4365065 -0.528173E-07  0.893E-05    0.73      56.4  T
   7   -635.4365065 -0.801163E-08  0.315E-05    0.73     160.1  T
     SCC iter.                  ...        0 min,  6.378 sec
     gradient                   ...        0 min,  1.172 sec
 * total energy  :  -624.8272586 Eh     change       -0.1631946E-02 Eh
   gradient norm :     0.0087132 Eh/α   predicted    -0.1741874E-02 (   6.74%)
   displ. norm   :     0.7735370 α      lambda       -0.2127964E-02
   maximum displ.:     0.3603681 α      in ANC's #66, #69, #67, ...

........................................................................
.............................. CYCLE   32 ..............................
........................................................................
   1   -635.4351446 -0.635435E+03  0.320E-03    0.73       0.0  T
   2   -635.4351474 -0.279118E-05  0.191E-03    0.73       2.6  T
   3   -635.4351481 -0.675703E-06  0.119E-03    0.73       4.2  T
   4   -635.4351485 -0.383640E-06  0.806E-04    0.73       6.2  T
   5   -635.4351489 -0.431260E-06  0.224E-04    0.73      22.5  T
   6   -635.4351490 -0.365436E-07  0.840E-05    0.73      60.0  T
   7   -635.4351490 -0.727266E-08  0.309E-05    0.73     162.9  T
     SCC iter.                  ...        0 min,  6.463 sec
     gradient                   ...        0 min,  1.191 sec
 * total energy  :  -624.8286812 Eh     change       -0.1422623E-02 Eh
   gradient norm :     0.0117636 Eh/α   predicted    -0.1700622E-02 (  19.54%)
   displ. norm   :     0.7098577 α      lambda       -0.2005476E-02
   maximum displ.:     0.3438267 α      in ANC's #66, #69, #67, ...

........................................................................
.............................. CYCLE   33 ..............................
........................................................................
   1   -635.4276196 -0.635428E+03  0.271E-03    0.73       0.0  T
   2   -635.4276215 -0.193107E-05  0.174E-03    0.73       2.9  T
   3   -635.4276221 -0.538463E-06  0.103E-03    0.73       4.9  T
   4   -635.4276221 -0.164891E-07  0.743E-04    0.73       6.8  T
   5   -635.4276225 -0.437466E-06  0.230E-04    0.73      21.9  T
   6   -635.4276226 -0.443878E-07  0.668E-05    0.73      75.4  T
   7   -635.4276226 -0.343800E-08  0.259E-05    0.73     194.4  T
     SCC iter.                  ...        0 min,  6.458 sec
     gradient                   ...        0 min,  1.189 sec
 * total energy  :  -624.8299174 Eh     change       -0.1236173E-02 Eh
   gradient norm :     0.0088974 Eh/α   predicted    -0.1508020E-02 (  21.99%)
   displ. norm   :     0.6599148 α      lambda       -0.1652496E-02
   maximum displ.:     0.3201915 α      in ANC's #66, #69, #67, ...

........................................................................
.............................. CYCLE   34 ..............................
........................................................................
   1   -635.4200937 -0.635420E+03  0.237E-03    0.73       0.0  T
   2   -635.4200950 -0.125124E-05  0.152E-03    0.73       3.3  T
   3   -635.4200954 -0.394313E-06  0.907E-04    0.73       5.6  T
   4   -635.4200954 -0.324658E-07  0.612E-04    0.73       8.2  T
   5   -635.4200957 -0.320292E-06  0.238E-04    0.73      21.2  T
   6   -635.4200958 -0.559900E-07  0.599E-05    0.73      84.1  T
   7   -635.4200958 -0.314378E-08  0.279E-05    0.73     180.6  T
     SCC iter.                  ...        0 min,  6.563 sec
     gradient                   ...        0 min,  1.192 sec
 * total energy  :  -624.8309553 Eh     change       -0.1037904E-02 Eh
   gradient norm :     0.0080761 Eh/α   predicted    -0.1186067E-02 (  14.28%)
   displ. norm   :     0.6667702 α      lambda       -0.1269909E-02
   maximum displ.:     0.3194908 α      in ANC's #66, #69, #67, ...

........................................................................
.............................. CYCLE   35 ..............................
........................................................................
   1   -635.4199392 -0.635420E+03  0.217E-03    0.73       0.0  T
   2   -635.4199405 -0.127168E-05  0.133E-03    0.73       3.8  T
   3   -635.4199409 -0.367662E-06  0.752E-04    0.73       6.7  T
   4   -635.4199409 -0.432852E-07  0.494E-04    0.73      10.2  T
   5   -635.4199410 -0.133624E-06  0.215E-04    0.73      23.4  T
   6   -635.4199411 -0.481888E-07  0.518E-05    0.73      97.3  T
   7   -635.4199411 -0.189550E-08  0.261E-05    0.73     193.0  T
     SCC iter.                  ...        0 min,  6.417 sec
     gradient                   ...        0 min,  1.207 sec
 * total energy  :  -624.8319147 Eh     change       -0.9593824E-03 Eh
   gradient norm :     0.0063282 Eh/α   predicted    -0.9172462E-03 (  -4.39%)
   displ. norm   :     0.7151726 α      lambda       -0.1065298E-02
   maximum displ.:     0.3593492 α      in ANC's #66, #67, #69, ...

........................................................................
.............................. CYCLE   36 ..............................
........................................................................
   1   -635.4214299 -0.635421E+03  0.227E-03    0.73       0.0  T
   2   -635.4214314 -0.146271E-05  0.138E-03    0.73       3.7  T
   3   -635.4214318 -0.408741E-06  0.775E-04    0.73       6.5  T
   4   -635.4214318  0.523448E-08  0.511E-04    0.73       9.9  T
   5   -635.4214319 -0.139986E-06  0.235E-04    0.73      21.5  T
   6   -635.4214320 -0.747668E-07  0.634E-05    0.73      79.5  T
   7   -635.4214320 -0.362684E-08  0.289E-05    0.73     174.5  T
     SCC iter.                  ...        0 min,  6.409 sec
     gradient                   ...        0 min,  1.170 sec
 * total energy  :  -624.8326904 Eh     change       -0.7757062E-03 Eh
   gradient norm :     0.0071341 Eh/α   predicted    -0.8050910E-03 (   3.79%)
   displ. norm   :     0.6852252 α      lambda       -0.1023623E-02
   maximum displ.:     0.3520849 α      in ANC's #66, #67, #28, ...

........................................................................
.............................. CYCLE   37 ..............................
........................................................................
   1   -635.4224234 -0.635422E+03  0.215E-03    0.73       0.0  T
   2   -635.4224248 -0.144294E-05  0.144E-03    0.73       3.5  T
   3   -635.4224259 -0.104600E-05  0.757E-04    0.73       6.7  T
   4   -635.4224259 -0.629113E-07  0.524E-04    0.73       9.6  T
   5   -635.4224260 -0.103411E-06  0.290E-04    0.73      17.4  T
   6   -635.4224261 -0.876825E-07  0.739E-05    0.73      68.2  T
   7   -635.4224261 -0.495913E-08  0.280E-05    0.73     179.9  T
     SCC iter.                  ...        0 min,  6.342 sec
     gradient                   ...        0 min,  1.280 sec
 * total energy  :  -624.8334250 Eh     change       -0.7346410E-03 Eh
   gradient norm :     0.0067175 Eh/α   predicted    -0.7521263E-03 (   2.38%)
   displ. norm   :     0.6643163 α      lambda       -0.1041148E-02
   maximum displ.:     0.3347796 α      in ANC's #66, #67, #28, ...

........................................................................
.............................. CYCLE   38 ..............................
........................................................................
   1   -635.4232562 -0.635423E+03  0.315E-03    0.73       0.0  T
   2   -635.4232590 -0.275407E-05  0.197E-03    0.73       2.6  T
   3   -635.4232605 -0.154116E-05  0.109E-03    0.73       4.6  T
   4   -635.4232607 -0.213243E-06  0.711E-04    0.73       7.1  T
   5   -635.4232609 -0.179640E-06  0.363E-04    0.73      13.9  T
   6   -635.4232611 -0.140146E-06  0.103E-04    0.73      48.7  T
   7   -635.4232611 -0.121092E-07  0.342E-05    0.73     147.5  T
     SCC iter.                  ...        0 min,  6.697 sec
     gradient                   ...        0 min,  1.221 sec
 * total energy  :  -624.8338616 Eh     change       -0.4366073E-03 Eh
   gradient norm :     0.0095227 Eh/α   predicted    -0.7503173E-03 (  71.85%)
   displ. norm   :     0.5015888 α      lambda       -0.1023275E-02
   maximum displ.:     0.2400870 α      in ANC's #66, #67, #34, ...

........................................................................
.............................. CYCLE   39 ..............................
........................................................................
   1   -635.4268091 -0.635427E+03  0.237E-03    0.73       0.0  T
   2   -635.4268108 -0.174579E-05  0.161E-03    0.73       3.1  T
   3   -635.4268116 -0.842761E-06  0.843E-04    0.73       6.0  T
   4   -635.4268116  0.603162E-07  0.666E-04    0.73       7.6  T
   5   -635.4268118 -0.255160E-06  0.266E-04    0.73      19.0  T
   6   -635.4268119 -0.732450E-07  0.726E-05    0.73      69.4  T
   7   -635.4268119 -0.551370E-08  0.286E-05    0.73     175.9  T
     SCC iter.                  ...        0 min,  6.298 sec
     gradient                   ...        0 min,  1.181 sec
 * total energy  :  -624.8345579 Eh     change       -0.6962614E-03 Eh
   gradient norm :     0.0074258 Eh/α   predicted    -0.6403666E-03 (  -8.03%)
   displ. norm   :     0.6044264 α      lambda       -0.7003583E-03
   maximum displ.:     0.2745072 α      in ANC's #66, #34, #28, ...

........................................................................
.............................. CYCLE   40 ..............................
........................................................................
   1   -635.4346474 -0.635435E+03  0.322E-03    0.73       0.0  T
   2   -635.4346504 -0.295749E-05  0.193E-03    0.73       2.6  T
   3   -635.4346509 -0.547509E-06  0.116E-03    0.73       4.3  T
   4   -635.4346509  0.764073E-07  0.858E-04    0.73       5.9  T
   5   -635.4346515 -0.669499E-06  0.281E-04    0.73      18.0  T
   6   -635.4346516 -0.729981E-07  0.837E-05    0.73      60.2  T
   7   -635.4346516 -0.734406E-08  0.385E-05    0.73     130.9  T
     SCC iter.                  ...        0 min,  6.496 sec
     gradient                   ...        0 min,  1.182 sec
 * total energy  :  -624.8350420 Eh     change       -0.4840964E-03 Eh
   gradient norm :     0.0066862 Eh/α   predicted    -0.4781139E-03 (  -1.24%)
   displ. norm   :     0.6543372 α      lambda       -0.6736608E-03
   maximum displ.:     0.2972175 α      in ANC's #66, #34, #28, ...

........................................................................
.............................. CYCLE   41 ..............................
........................................................................
   1   -635.4363313 -0.635436E+03  0.278E-03    0.72       0.0  T
   2   -635.4363345 -0.323884E-05  0.165E-03    0.72       3.1  T
   3   -635.4363352 -0.688150E-06  0.889E-04    0.73       5.7  T
   4   -635.4363351  0.158274E-06  0.707E-04    0.72       7.1  T
   5   -635.4363355 -0.386189E-06  0.248E-04    0.73      20.3  T
   6   -635.4363355 -0.510266E-07  0.792E-05    0.73      63.6  T
   7   -635.4363355 -0.572970E-08  0.315E-05    0.73     159.9  T
     SCC iter.                  ...        0 min,  6.269 sec
     gradient                   ...        0 min,  1.187 sec
 * total energy  :  -624.8355595 Eh     change       -0.5174573E-03 Eh
   gradient norm :     0.0067251 Eh/α   predicted    -0.4810509E-03 (  -7.04%)
   displ. norm   :     0.6438857 α      lambda       -0.7071009E-03
   maximum displ.:     0.2685560 α      in ANC's #66, #34, #28, ...

........................................................................
.............................. CYCLE   42 ..............................
........................................................................
   1   -635.4368029 -0.635437E+03  0.335E-03    0.73       0.0  T
   2   -635.4368060 -0.317484E-05  0.185E-03    0.73       2.7  T
   3   -635.4368064 -0.394951E-06  0.115E-03    0.73       4.4  T
   4   -635.4368064  0.495334E-09  0.825E-04    0.73       6.1  T
   5   -635.4368070 -0.593364E-06  0.278E-04    0.73      18.1  T
   6   -635.4368071 -0.831582E-07  0.120E-04    0.73      42.0  T
   7   -635.4368071 -0.176522E-07  0.286E-05    0.73     175.9  T
     SCC iter.                  ...        0 min,  6.080 sec
     gradient                   ...        0 min,  1.180 sec
 * total energy  :  -624.8361226 Eh     change       -0.5631265E-03 Eh
   gradient norm :     0.0069793 Eh/α   predicted    -0.5001328E-03 ( -11.19%)
   displ. norm   :     0.6756114 α      lambda       -0.7019238E-03
   maximum displ.:     0.2255078 α      in ANC's #34, #66, #28, ...
 * RMSD in coord.:     0.6225122 α      energy gain  -0.4128609E-01 Eh

generating ANC from model Hessian ...
Using Lindh-Hessian (1995)
 Shifting diagonal of input Hessian by    1.0003965824574926E-002
 Lowest  eigenvalues of input Hessian
    0.010000    0.010001    0.010002    0.010003    0.010003    0.010003
    0.000000    0.000000    0.000000    0.000000    0.000000    0.000000
    0.010004    0.010005    0.010005    0.010006    0.010007    0.010009
 Highest eigenvalues
    2.798549    2.799978    3.014654    3.014719    3.021807    3.022459


........................................................................
.............................. CYCLE   43 ..............................
........................................................................
   1   -635.4443415 -0.635444E+03  0.321E-03    0.73       0.0  T
   2   -635.4443440 -0.246704E-05  0.207E-03    0.73       2.4  T
   3   -635.4443459 -0.195595E-05  0.122E-03    0.73       4.1  T
   4   -635.4443467 -0.729834E-06  0.790E-04    0.73       6.4  T
   5   -635.4443470 -0.296693E-06  0.385E-04    0.73      13.1  T
   6   -635.4443471 -0.137978E-06  0.102E-04    0.73      49.3  T
   7   -635.4443471 -0.912723E-08  0.295E-05    0.73     170.9  T
     SCC iter.                  ...        0 min,  6.347 sec
     gradient                   ...        0 min,  1.149 sec
 * total energy  :  -624.8366831 Eh     change       -0.5605261E-03 Eh
   gradient norm :     0.0079022 Eh/α   predicted     0.0000000E+00 (-100.00%)
   displ. norm   :     0.1059995 α      lambda       -0.2064901E-03
   maximum displ.:     0.0323740 α      in ANC's #24, #87, #48, ...

........................................................................
.............................. CYCLE   44 ..............................
........................................................................
   1   -635.4440546 -0.635444E+03  0.123E-03    0.72       0.0  T
   2   -635.4440549 -0.240543E-06  0.663E-04    0.72       7.6  T
   3   -635.4440548  0.171699E-07  0.443E-04    0.72      11.4  T
   4   -635.4440549 -0.392720E-07  0.304E-04    0.72      16.6  T
   5   -635.4440550 -0.923131E-07  0.102E-04    0.72      49.2  T
   6   -635.4440550 -0.876923E-08  0.319E-05    0.72     157.9  T
     SCC iter.                  ...        0 min,  5.647 sec
     gradient                   ...        0 min,  1.179 sec
 * total energy  :  -624.8368382 Eh     change       -0.1551021E-03 Eh
   gradient norm :     0.0047624 Eh/α   predicted    -0.1044065E-03 ( -32.69%)
   displ. norm   :     0.4678082 α      lambda       -0.7541937E-03
   maximum displ.:     0.1446553 α      in ANC's #24, #87, #48, ...

........................................................................
.............................. CYCLE   45 ..............................
........................................................................
   1   -635.4404787 -0.635440E+03  0.510E-03    0.72       0.0  T
   2   -635.4404833 -0.457783E-05  0.276E-03    0.72       1.8  T
   3   -635.4404833 -0.235165E-07  0.186E-03    0.72       2.7  T
   4   -635.4404842 -0.901257E-06  0.125E-03    0.72       4.0  T
   5   -635.4404857 -0.143915E-05  0.439E-04    0.72      11.5  T
   6   -635.4404858 -0.159823E-06  0.141E-04    0.72      35.7  T
   7   -635.4404859 -0.240481E-07  0.452E-05    0.72     111.5  T
     SCC iter.                  ...        0 min,  6.551 sec
     gradient                   ...        0 min,  1.186 sec
 * total energy  :  -624.8369353 Eh     change       -0.9710220E-04 Eh
   gradient norm :     0.0141139 Eh/α   predicted    -0.4596278E-03 ( 373.34%)
   displ. norm   :     0.1990752 α      lambda       -0.7211223E-03
   maximum displ.:     0.0568472 α      in ANC's #24, #83, #32, ...

........................................................................
.............................. CYCLE   46 ..............................
........................................................................
   1   -635.4403223 -0.635440E+03  0.138E-03    0.72       0.0  T
   2   -635.4403227 -0.364406E-06  0.876E-04    0.72       5.7  T
   3   -635.4403228 -0.861494E-07  0.519E-04    0.72       9.7  T
   4   -635.4403228 -0.726709E-08  0.371E-04    0.72      13.6  T
   5   -635.4403229 -0.996986E-07  0.124E-04    0.72      40.8  T
   6   -635.4403229 -0.161721E-07  0.364E-05    0.72     138.2  T
     SCC iter.                  ...        0 min,  5.462 sec
     gradient                   ...        0 min,  1.173 sec
 * total energy  :  -624.8372530 Eh     change       -0.3176939E-03 Eh
   gradient norm :     0.0115705 Eh/α   predicted    -0.3748507E-03 (  17.99%)
   displ. norm   :     0.2245855 α      lambda       -0.7206355E-03
   maximum displ.:     0.0561721 α      in ANC's #24, #75, #54, ...

........................................................................
.............................. CYCLE   47 ..............................
........................................................................
   1   -635.4388923 -0.635439E+03  0.324E-03    0.72       0.0  T
   2   -635.4388934 -0.113938E-05  0.212E-03    0.72       2.4  T
   3   -635.4388938 -0.422582E-06  0.119E-03    0.72       4.2  T
   4   -635.4388939 -0.597038E-07  0.705E-04    0.72       7.1  T
   5   -635.4388942 -0.298564E-06  0.266E-04    0.72      18.9  T
   6   -635.4388943 -0.768226E-07  0.613E-05    0.72      82.1  T
   7   -635.4388943 -0.419595E-08  0.229E-05    0.72     219.7  T
     SCC iter.                  ...        0 min,  6.400 sec
     gradient                   ...        0 min,  1.199 sec
 * total energy  :  -624.8370655 Eh     change        0.1875426E-03 Eh
   gradient norm :     0.0111530 Eh/α   predicted    -0.3784932E-03 (-301.82%)
   displ. norm   :     0.1848996 α      lambda       -0.1097098E-02
   maximum displ.:     0.0588918 α      in ANC's #54, #83, #78, ...

........................................................................
.............................. CYCLE   48 ..............................
........................................................................
   1   -635.4413125 -0.635441E+03  0.158E-03    0.72       0.0  T
   2   -635.4413128 -0.298983E-06  0.155E-03    0.72       3.3  T
   3   -635.4413135 -0.662127E-06  0.732E-04    0.72       6.9  T
   4   -635.4413132  0.252745E-06  0.507E-04    0.72       9.9  T
   5   -635.4413135 -0.253196E-06  0.127E-04    0.72      39.7  T
   6   -635.4413135 -0.167914E-07  0.463E-05    0.72     108.7  T
     SCC iter.                  ...        0 min,  5.322 sec
     gradient                   ...        0 min,  1.210 sec
 * total energy  :  -624.8375418 Eh     change       -0.4763008E-03 Eh
   gradient norm :     0.0064097 Eh/α   predicted    -0.5673032E-03 (  19.11%)
   displ. norm   :     0.2971974 α      lambda       -0.7095553E-03
   maximum displ.:     0.0897050 α      in ANC's #24, #32, #48, ...

........................................................................
.............................. CYCLE   49 ..............................
........................................................................
   1   -635.4407023 -0.635441E+03  0.218E-03    0.72       0.0  T
   2   -635.4407031 -0.753007E-06  0.122E-03    0.72       4.1  T
   3   -635.4407030  0.524301E-07  0.758E-04    0.72       6.6  T
   4   -635.4407030  0.442535E-07  0.565E-04    0.72       8.9  T
   5   -635.4407033 -0.324613E-06  0.165E-04    0.72      30.5  T
   6   -635.4407034 -0.290213E-07  0.521E-05    0.72      96.6  T
     SCC iter.                  ...        0 min,  5.264 sec
     gradient                   ...        0 min,  1.168 sec
 * total energy  :  -624.8375939 Eh     change       -0.5215804E-04 Eh
   gradient norm :     0.0098405 Eh/α   predicted    -0.3861168E-03 ( 640.28%)
   displ. norm   :     0.2466487 α      lambda       -0.6577005E-03
   maximum displ.:     0.0809089 α      in ANC's #24, #51, #70, ...

........................................................................
.............................. CYCLE   50 ..............................
........................................................................
   1   -635.4408824 -0.635441E+03  0.107E-03    0.72       0.0  T
   2   -635.4408827 -0.302794E-06  0.648E-04    0.72       7.8  T
   3   -635.4408828 -0.519325E-07  0.373E-04    0.72      13.5  T
   4   -635.4408827  0.330440E-07  0.290E-04    0.72      17.4  T
   5   -635.4408828 -0.716565E-07  0.106E-04    0.72      47.7  T
   6   -635.4408828 -0.116274E-07  0.299E-05    0.72     168.3  T
     SCC iter.                  ...        0 min,  5.346 sec
     gradient                   ...        0 min,  1.183 sec
 * total energy  :  -624.8378424 Eh     change       -0.2485023E-03 Eh
   gradient norm :     0.0078491 Eh/α   predicted    -0.3488594E-03 (  40.38%)
   displ. norm   :     0.3399884 α      lambda       -0.9266874E-03
   maximum displ.:     0.1092070 α      in ANC's #24, #48, #28, ...

........................................................................
.............................. CYCLE   51 ..............................
........................................................................
   1   -635.4418818 -0.635442E+03  0.272E-03    0.72       0.0  T
   2   -635.4418829 -0.109553E-05  0.145E-03    0.72       3.5  T
   3   -635.4418828  0.157826E-06  0.941E-04    0.72       5.4  T
   4   -635.4418829 -0.102063E-06  0.691E-04    0.72       7.3  T
   5   -635.4418834 -0.489574E-06  0.208E-04    0.72      24.2  T
   6   -635.4418834 -0.381550E-07  0.585E-05    0.72      86.1  T
   7   -635.4418834 -0.316231E-08  0.206E-05    0.72     244.8  T
     SCC iter.                  ...        0 min,  5.851 sec
     gradient                   ...        0 min,  1.138 sec
 * total energy  :  -624.8378401 Eh     change        0.2366321E-05 Eh
   gradient norm :     0.0099113 Eh/α   predicted    -0.5169037E-03 (*******%)
   displ. norm   :     0.2228101 α      lambda       -0.8365743E-03
   maximum displ.:     0.0714395 α      in ANC's #24, #48, #28, ...

........................................................................
.............................. CYCLE   52 ..............................
........................................................................
   1   -635.4433724 -0.635443E+03  0.106E-03    0.72       0.0  T
   2   -635.4433726 -0.168507E-06  0.659E-04    0.72       7.6  T
   3   -635.4433726 -0.295416E-07  0.392E-04    0.72      12.9  T
   4   -635.4433726 -0.128043E-07  0.276E-04    0.72      18.3  T
   5   -635.4433727 -0.525157E-07  0.947E-05    0.72      53.2  T
   6   -635.4433727 -0.935484E-08  0.277E-05    0.72     182.2  T
     SCC iter.                  ...        0 min,  5.268 sec
     gradient                   ...        0 min,  1.172 sec
 * total energy  :  -624.8382984 Eh     change       -0.4583566E-03 Eh
   gradient norm :     0.0050069 Eh/α   predicted    -0.4390506E-03 (  -4.21%)
   displ. norm   :     0.3958502 α      lambda       -0.7538668E-03
   maximum displ.:     0.1339979 α      in ANC's #24, #51, #28, ...

........................................................................
.............................. CYCLE   53 ..............................
........................................................................
   1   -635.4429872 -0.635443E+03  0.195E-03    0.72       0.0  T
   2   -635.4429878 -0.644933E-06  0.114E-03    0.72       4.4  T
   3   -635.4429879 -0.866108E-07  0.676E-04    0.72       7.4  T
   4   -635.4429878  0.733853E-07  0.512E-04    0.72       9.8  T
   5   -635.4429881 -0.235997E-06  0.150E-04    0.72      33.5  T
   6   -635.4429881 -0.219969E-07  0.478E-05    0.72     105.5  T
     SCC iter.                  ...        0 min,  5.311 sec
     gradient                   ...        0 min,  1.187 sec
 * total energy  :  -624.8380725 Eh     change        0.2259423E-03 Eh
   gradient norm :     0.0103391 Eh/α   predicted    -0.4360022E-03 (-292.97%)
   displ. norm   :     0.2341748 α      lambda       -0.1108404E-02
   maximum displ.:     0.0763522 α      in ANC's #24, #48, #28, ...

........................................................................
.............................. CYCLE   54 ..............................
[...]
   113   6 C      146   1 H                                       1.0789279
   147   6 C      148   6 C                                       1.2252672
   149   6 C      150   6 C                                       1.2313626
   151   6 C      152   6 C                                       1.2314844
   153   6 C      154   6 C                                       1.2254817
   155   6 C      156   6 C                                       1.2255780
   157   6 C      158   6 C                                       1.2316566
   159   6 C      160   6 C                                       1.2315990
   161   6 C      162   6 C                                       1.2255812
   163   6 C      164   6 C                                       1.2255731
   165   6 C      166   6 C                                       1.2316741
   167   6 C      168   6 C                                       1.2315908
   169   6 C      170   6 C                                       1.2255794
   171   6 C      172   6 C                                       1.2254712
   173   6 C      174   6 C                                       1.2314436
   175   6 C      176   6 C                                       1.2314050
   177   6 C      178   6 C                                       1.2252623
   179   6 C      180   6 C                                       1.4092621
   180   6 C      181   6 C                                       1.4180198
   181   6 C      182   6 C                                       1.3688960
   182   6 C      183   6 C                                       1.4206841
   180   6 C      184   7 N                                       1.3628176
   183   6 C      184   7 N                                       1.3695824
   183   6 C      185   6 C                                       1.4019743
   186   6 C      187   6 C                                       1.3963991
   187   6 C      188   6 C                                       1.3825916
   188   6 C      189   6 C                                       1.4033934
   189   6 C      190   7 N                                       1.3907660
   190   7 N      191   6 C                                       1.4635887
   190   7 N      192   6 C                                       1.4629440
   189   6 C      193   6 C                                       1.4033215
   186   6 C      194   6 C                                       1.3961030
   193   6 C      194   6 C                                       1.3828560
   185   6 C      195   6 C                                       1.3966536
   195   6 C      196   6 C                                       1.4515301
   196   6 C      197   6 C                                       1.3495992
   195   6 C      198   7 N                                       1.3622155
   197   6 C      199   6 C                                       1.4488434
   198   7 N      199   6 C                                       1.3480736
   199   6 C      200   6 C                                       1.4102509
   200   6 C      201   6 C                                       1.4093415
   201   6 C      202   6 C                                       1.4181004
   202   6 C      203   6 C                                       1.3688560
   203   6 C      204   6 C                                       1.4207323
   201   6 C      205   7 N                                       1.3626694
   204   6 C      205   7 N                                       1.3697779
   204   6 C      206   6 C                                       1.4017066
   207   6 C      208   6 C                                       1.3963821
   208   6 C      209   6 C                                       1.3826155
   209   6 C      210   6 C                                       1.4034339
   210   6 C      211   7 N                                       1.3905923
   211   7 N      212   6 C                                       1.4628632
   211   7 N      213   6 C                                       1.4635451
   210   6 C      214   6 C                                       1.4033428
   207   6 C      215   6 C                                       1.3961704
   214   6 C      215   6 C                                       1.3827886
   206   6 C      216   6 C                                       1.3969663
   216   6 C      217   6 C                                       1.4514964
   217   6 C      218   6 C                                       1.3496354
   179   6 C      219   6 C                                       1.4100507
   218   6 C      219   6 C                                       1.4487234
   216   6 C      220   7 N                                       1.3619424
   219   6 C      220   7 N                                       1.3483546
   181   6 C      221   1 H                                       1.0780672
   182   6 C      222   1 H                                       1.0777512
   184   7 N      223   1 H                                       1.0145110
   187   6 C      224   1 H                                       1.0847869
   188   6 C      225   1 H                                       1.0823895
   191   6 C      226   1 H                                       1.0893698
   191   6 C      227   1 H                                       1.0905620
   191   6 C      228   1 H                                       1.0955569
   192   6 C      229   1 H                                       1.0903996
   192   6 C      230   1 H                                       1.0957070
   192   6 C      231   1 H                                       1.0894635
   193   6 C      232   1 H                                       1.0823252
   194   6 C      233   1 H                                       1.0846198
   196   6 C      234   1 H                                       1.0779105
   197   6 C      235   1 H                                       1.0783379
   202   6 C      236   1 H                                       1.0780696
   203   6 C      237   1 H                                       1.0777553
   205   7 N      238   1 H                                       1.0145047 (min)
   208   6 C      239   1 H                                       1.0847850
   209   6 C      240   1 H                                       1.0823976
   212   6 C      241   1 H                                       1.0957101
   212   6 C      242   1 H                                       1.0904186
   212   6 C      243   1 H                                       1.0894660
   213   6 C      244   1 H                                       1.0955456
   213   6 C      245   1 H                                       1.0893657
   213   6 C      246   1 H                                       1.0905795
   214   6 C      247   1 H                                       1.0823171
   215   6 C      248   1 H                                       1.0846207
   217   6 C      249   1 H                                       1.0779078
   218   6 C      250   1 H                                       1.0783318
   251   6 C      252   6 C                                       1.4093572
   252   6 C      253   6 C                                       1.4180411
   253   6 C      254   6 C                                       1.3688908
   254   6 C      255   6 C                                       1.4206827
   252   6 C      256   7 N                                       1.3627097
   255   6 C      256   7 N                                       1.3696754
   255   6 C      257   6 C                                       1.4018427
   258   6 C      259   6 C                                       1.3963904
   259   6 C      260   6 C                                       1.3825854
   260   6 C      261   6 C                                       1.4034157
   261   6 C      262   7 N                                       1.3906375
   262   7 N      263   6 C                                       1.4635488
   262   7 N      264   6 C                                       1.4629146
   261   6 C      265   6 C                                       1.4033523
   258   6 C      266   6 C                                       1.3961165
   265   6 C      266   6 C                                       1.3828290
   257   6 C      267   6 C                                       1.3967526
   267   6 C      268   6 C                                       1.4515016
   268   6 C      269   6 C                                       1.3495942
   267   6 C      270   7 N                                       1.3621361
   269   6 C      271   6 C                                       1.4487883
   270   7 N      271   6 C                                       1.3481582
   271   6 C      272   6 C                                       1.4101703
   272   6 C      273   6 C                                       1.4093691
   273   6 C      274   6 C                                       1.4180477
   274   6 C      275   6 C                                       1.3688986
   275   6 C      276   6 C                                       1.4206879
   273   6 C      277   7 N                                       1.3627244
   276   6 C      277   7 N                                       1.3696746
   276   6 C      278   6 C                                       1.4018559
   279   6 C      280   6 C                                       1.3963926
   280   6 C      281   6 C                                       1.3825847
   281   6 C      282   6 C                                       1.4034133
   282   6 C      283   7 N                                       1.3906389
   283   7 N      284   6 C                                       1.4629124
   283   7 N      285   6 C                                       1.4635574
   282   6 C      286   6 C                                       1.4033488
   279   6 C      287   6 C                                       1.3961151
   286   6 C      287   6 C                                       1.3828350
   278   6 C      288   6 C                                       1.3967678
   288   6 C      289   6 C                                       1.4515087
   289   6 C      290   6 C                                       1.3495981
   251   6 C      291   6 C                                       1.4101842
   290   6 C      291   6 C                                       1.4487924
   288   6 C      292   7 N                                       1.3621341
   291   6 C      292   7 N                                       1.3481723
   253   6 C      293   1 H                                       1.0780639
   254   6 C      294   1 H                                       1.0777507
   256   7 N      295   1 H                                       1.0145107
   259   6 C      296   1 H                                       1.0847844
   260   6 C      297   1 H                                       1.0823849
   263   6 C      298   1 H                                       1.0893673
   263   6 C      299   1 H                                       1.0905661
   263   6 C      300   1 H                                       1.0955525
   264   6 C      301   1 H                                       1.0904102
   264   6 C      302   1 H                                       1.0957076
   264   6 C      303   1 H                                       1.0894644
   265   6 C      304   1 H                                       1.0823223
   266   6 C      305   1 H                                       1.0846205
   268   6 C      306   1 H                                       1.0779032
   269   6 C      307   1 H                                       1.0783352
   274   6 C      308   1 H                                       1.0780636
   275   6 C      309   1 H                                       1.0777533
   277   7 N      310   1 H                                       1.0145094
   280   6 C      311   1 H                                       1.0847838
   281   6 C      312   1 H                                       1.0823867
   284   6 C      313   1 H                                       1.0957028
   284   6 C      314   1 H                                       1.0904149
   284   6 C      315   1 H                                       1.0894586
   285   6 C      316   1 H                                       1.0955504
   285   6 C      317   1 H                                       1.0893657
   285   6 C      318   1 H                                       1.0905717
   286   6 C      319   1 H                                       1.0823224
   287   6 C      320   1 H                                       1.0846201
   289   6 C      321   1 H                                       1.0779035
   290   6 C      322   1 H                                       1.0783324
   323   6 C      324   6 C                                       1.4093241
   324   6 C      325   6 C                                       1.4181042
   325   6 C      326   6 C                                       1.3688465
   326   6 C      327   6 C                                       1.4207362
   324   6 C      328   7 N                                       1.3626697
   327   6 C      328   7 N                                       1.3697866
   327   6 C      329   6 C                                       1.4017020
   330   6 C      331   6 C                                       1.3963766
   331   6 C      332   6 C                                       1.3826173
   332   6 C      333   6 C                                       1.4034305
   333   6 C      334   7 N                                       1.3906239
   334   7 N      335   6 C                                       1.4635572
   334   7 N      336   6 C                                       1.4628663
   333   6 C      337   6 C                                       1.4033380
   330   6 C      338   6 C                                       1.3961657
   337   6 C      338   6 C                                       1.3827972
   329   6 C      339   6 C                                       1.3969657
   339   6 C      340   6 C                                       1.4514947
   340   6 C      341   6 C                                       1.3496266
   339   6 C      342   7 N                                       1.3619537
   341   6 C      343   6 C                                       1.4487212
   342   7 N      343   6 C                                       1.3483508
   343   6 C      344   6 C                                       1.4100357
   344   6 C      345   6 C                                       1.4092845
   345   6 C      346   6 C                                       1.4180308
   346   6 C      347   6 C                                       1.3688962
   347   6 C      348   6 C                                       1.4206781
   345   6 C      349   7 N                                       1.3628140
   348   6 C      349   7 N                                       1.3695950
   348   6 C      350   6 C                                       1.4019556
   351   6 C      352   6 C                                       1.3963759
   352   6 C      353   6 C                                       1.3826017
   353   6 C      354   6 C                                       1.4033876
   354   6 C      355   7 N                                       1.3908189
   355   7 N      356   6 C                                       1.4629545
   355   7 N      357   6 C                                       1.4636223
   354   6 C      358   6 C                                       1.4033034
   351   6 C      359   6 C                                       1.3960927
   358   6 C      359   6 C                                       1.3828630
   350   6 C      360   6 C                                       1.3966319
   360   6 C      361   6 C                                       1.4515273
   361   6 C      362   6 C                                       1.3495916
   323   6 C      363   6 C                                       1.4102619
   362   6 C      363   6 C                                       1.4488568
   360   6 C      364   7 N                                       1.3622178
   363   6 C      364   7 N                                       1.3480635
   325   6 C      365   1 H                                       1.0780702
   326   6 C      366   1 H                                       1.0777546
   328   7 N      367   1 H                                       1.0145086
   331   6 C      368   1 H                                       1.0847835
   332   6 C      369   1 H                                       1.0823959
   335   6 C      370   1 H                                       1.0893690
   335   6 C      371   1 H                                       1.0905763
   335   6 C      372   1 H                                       1.0955473
   336   6 C      373   1 H                                       1.0904082
   336   6 C      374   1 H                                       1.0957188
   336   6 C      375   1 H                                       1.0894760
   337   6 C      376   1 H                                       1.0823190
   338   6 C      377   1 H                                       1.0846220
   340   6 C      378   1 H                                       1.0779050
   341   6 C      379   1 H                                       1.0783326
   346   6 C      380   1 H                                       1.0780650
   347   6 C      381   1 H                                       1.0777518
   349   7 N      382   1 H                                       1.0145136
   352   6 C      383   1 H                                       1.0847847
   353   6 C      384   1 H                                       1.0823914
   356   6 C      385   1 H                                       1.0957089
   356   6 C      386   1 H                                       1.0903983
   356   6 C      387   1 H                                       1.0894637
   357   6 C      388   1 H                                       1.0955539
   357   6 C      389   1 H                                       1.0893666
   357   6 C      390   1 H                                       1.0905613
   358   6 C      391   1 H                                       1.0823234
   359   6 C      392   1 H                                       1.0846208
   361   6 C      393   1 H                                       1.0779106
   362   6 C      394   1 H                                       1.0783348

 * 4 distinct bonds (by element types)

   Z      Z             #   av. dist./Å        max./Å        min./Å
   1 H    6 C         142     1.0855445     1.0957415     1.0777507
   6 C    6 C         174     1.3856083     1.4516178     1.2252623
   1 H    7 N          10     1.0145583     1.0147107     1.0145047
   6 C    7 N          70     1.3943283     1.4636516     1.3478216


optimized geometry written to: xtbopt.xyz


           -------------------------------------------------
          | TOTAL ENERGY             -624.846965019190 Eh   |
          | GRADIENT NORM               0.000615593335 Eh/α |
          | HOMO-LUMO GAP               0.705940730166 eV   |
           -------------------------------------------------

------------------------------------------------------------------------
 * finished run on 2022/07/29 at 01:46:33.229     
------------------------------------------------------------------------
 total:
 * wall-time:     0 d,  0 h, 18 min, 52.677 sec
 *  cpu-time:     0 d,  0 h, 18 min, 32.458 sec
 * ratio c/w:     0.982 speedup
 SCF:
 * wall-time:     0 d,  0 h,  0 min, 51.380 sec
 *  cpu-time:     0 d,  0 h,  0 min, 50.994 sec
 * ratio c/w:     0.992 speedup
 ANC optimizer:
 * wall-time:     0 d,  0 h, 18 min,  0.766 sec
 *  cpu-time:     0 d,  0 h, 17 min, 41.014 sec
 * ratio c/w:     0.982 speedup

