122
 energy: -206.168134837315 gnorm: 0.956488413294 xtb: 6.5.1 (b24c23e)
Fe          16.83376600000000       -0.02556900000000        0.01463100000000
C           13.49217300000000        0.11771900000000        0.00512900000000
C           14.15444100000000        1.15679300000000       -0.51166100000000
C           13.50389300000000        2.30464900000000       -1.13184600000000
C           14.44410800000000        3.15313400000000       -1.50429000000000
C           15.74903100000000        2.59227000000000       -1.12742300000000
N           15.57187700000000        1.31876500000000       -0.50566000000000
C           16.94115300000000        3.19438400000000       -1.32006100000000
C           16.99087600000000        4.53991700000000       -1.93678100000000
C           17.54781600000000        4.70789600000000       -3.21346400000000
C           17.61107400000000        5.97890100000000       -3.79212000000000
C           17.12206700000000        7.09543900000000       -3.09919000000000
N           17.18697700000000        8.39525600000000       -3.69169900000000
C           16.57101800000000        6.92953400000000       -1.82063700000000
C           16.50810300000000        5.65918300000000       -1.24062200000000
C           18.23234100000000        2.56925600000000       -0.92999300000000
C           19.51579700000000        3.28189700000000       -0.92382200000000
C           20.45031000000000        2.42652700000000       -0.56193600000000
N           18.37500300000000        1.32736600000000       -0.58107500000000
C           19.77019600000000        1.15813500000000       -0.33040700000000
C           20.36439400000000        0.00000000000000        0.00000000000000
C           19.60081100000000       -1.24601100000000        0.23280500000000
C           20.13133200000000       -2.46219600000000        0.21295300000000
C           19.08843600000000       -3.39379600000000        0.59669800000000
C           17.99080200000000       -2.68371700000000        0.83046600000000
N           18.22464800000000       -1.29187500000000        0.61004100000000
C           16.71218900000000       -3.25474100000000        1.32597600000000
C           16.73500900000000       -4.59272700000000        1.96588700000000
C           17.47396100000000       -4.79669300000000        3.14141600000000
C           17.51493700000000       -6.06034700000000        3.73787700000000
C           16.82275400000000       -7.13541700000000        3.16293700000000
N           16.86515200000000       -8.42777300000000        3.77354400000000
C           16.09129400000000       -6.93585700000000        1.98373000000000
C           16.05024200000000       -5.67290500000000        1.38591900000000
C           15.55013100000000       -2.58363100000000        1.20988700000000
C           14.24280000000000       -3.02626500000000        1.69183200000000
C           13.38113800000000       -2.09968100000000        1.31912500000000
C           14.12959500000000       -1.06085100000000        0.61348000000000
N           15.39445500000000       -1.33231100000000        0.54369500000000
H           12.40881000000000        0.13568300000000       -0.01833000000000
H           12.44058200000000        2.44819100000000       -1.27509500000000
H           14.25630800000000        4.09500300000000       -2.00288300000000
H           17.93087800000000        3.85427700000000       -3.75925700000000
H           18.04142200000000        6.09382400000000       -4.77898100000000
H           17.59630600000000        8.52920200000000       -4.64321100000000
H           16.82598600000000        9.23315900000000       -3.18329200000000
H           16.19282400000000        7.78396900000000       -1.27363900000000
H           16.08542500000000        5.54622000000000       -0.24975300000000
H           19.68671500000000        4.32229600000000       -1.16727200000000
H           21.50408500000000        2.65177500000000       -0.46579500000000
H           21.15701300000000       -2.71744400000000       -0.01745500000000
H           19.19718200000000       -4.46577200000000        0.69886500000000
H           18.01494200000000       -3.97593100000000        3.59640600000000
H           18.08631600000000       -6.20189800000000        4.64661800000000
H           17.40814100000000       -8.58668200000000        4.65148100000000
H           16.35365100000000       -9.23510600000000        3.35229500000000
H           15.55623000000000       -7.75884800000000        1.52689000000000
H           15.48880400000000       -5.53633600000000        0.46975300000000
H           14.00096300000000       -3.92431600000000        2.24479700000000
H           12.31658400000000       -2.11592500000000        1.51251600000000
Fe          27.37562500000000        0.02632200000000       -0.01322700000000
C           30.71721800000000       -0.06076800000000        0.10095300000000
C           30.05495000000000       -1.06562500000000        0.68147600000000
C           30.70549800000000       -2.21676700000000        1.29554000000000
C           29.76528300000000       -2.99600800000000        1.79696400000000
C           28.46036000000000       -2.37199900000000        1.53771500000000
N           28.63751400000000       -1.15011700000000        0.81979400000000
C           27.26823800000000       -2.86524500000000        1.93313800000000
C           27.21851500000000       -4.12272100000000        2.71387900000000
C           26.66157500000000       -5.27964300000000        2.14848800000000
C           26.59831700000000       -6.46421400000000        2.88814200000000
C           27.08732400000000       -6.50357700000000        4.20163400000000
N           27.02241400000000       -7.71561300000000        4.95764900000000
C           27.63837300000000       -5.34624100000000        4.76978700000000
C           27.70128800000000       -4.16089900000000        4.03142800000000
C           25.97704999999999       -2.19472600000000        1.62761900000000
C           24.69359400000000       -2.58333600000000        2.22501100000000
C           23.75908100000000       -1.80909100000000        1.71201600000000
N           25.83438800000000       -1.21772800000000        0.78529500000000
C           24.43919500000000       -0.91529200000000        0.78274200000000
C           23.84499700000000        0.00000000000000        0.00000000000000
C           24.60858000000000        0.88249500000000       -0.90991400000000
C           24.07805900000000        1.53792300000000       -1.93456800000000
C           25.12095500000000        2.37250600000000       -2.49902300000000
C           26.21858900000000        2.17501400000000       -1.77801200000000
N           25.98474300000000        1.22226100000000       -0.73970800000000
C           27.49720200000000        2.90352500000000       -1.98017500000000
C           27.47438199999999        4.17615900000000       -2.74181500000000
C           26.73543000000000        5.26865400000000       -2.26230800000000
C           26.69445400000000        6.46400400000000       -2.98599800000000
C           27.38663700000000        6.57879800000000       -4.19973400000000
N           27.34423900000000        7.80179700000000       -4.93953000000000
C           28.11809700000000        5.48567200000000       -4.68494400000000
C           28.15914900000000        4.28958500000000       -3.96258500000000
C           28.65925900000000        2.43595900000000       -1.48495100000000
C           29.96659100000000        3.08222500000000       -1.58759700000000
C           30.82825300000000        2.25961300000000       -1.02122400000000
C           30.07979600000000        1.09748100000000       -0.54525100000000
N           28.81493600000000        1.18930400000000       -0.81006900000000
H           31.80058100000000       -0.09024600000000        0.10296300000000
H           31.76880900000000       -2.41547500000000        1.33603300000000
H           29.95308300000000       -3.93199000000000        2.30652100000000
H           26.27851300000000       -5.26291300000000        1.13543600000000
H           26.16796800000000       -7.35025600000000        2.43866400000000
H           26.61308500000000       -8.58270300000000        4.54355700000000
H           27.38340500000000       -7.75482100000000        5.93694600000000
H           28.01656700000000       -5.36241800000000        5.78418500000000
H           28.12396500000000       -3.27260000000000        4.48475500000000
H           24.52267600000000       -3.36109700000000        2.95766600000000
H           22.70530600000000       -1.85341300000000        1.95287900000000
H           23.05237800000000        1.48691000000000       -2.27462200000000
H           25.01220800000000        3.04995600000000       -3.33606000000000
H           26.19444900000000        5.19439400000000       -1.32681300000000
H           26.12307500000000        7.29964600000000       -2.60187700000000
H           26.80125000000000        8.62135500000000       -4.58689700000000
H           27.85574000000000        7.89676000000000       -5.84519000000000
H           28.65316100000000        5.55962200000000       -5.62332000000000
H           28.72058600000000        3.45050700000000       -4.35496100000000
H           30.20842800000000        4.03931500000000       -2.03059100000000
H           31.89280700000000        2.42977900000000       -0.92790900000000
C           21.49373700000000        0.00000000000000        0.00000000000000
C           22.71565400000000        0.00000000000000        0.00000000000000
122
 energy: -206.384587716821 gnorm: 0.290022526912 xtb: 6.5.1 (b24c23e)
Fe          16.83973239200842       -0.01704976660394        0.01184003803165
C           13.49318942328008        0.10359303308785        0.01336031019777
C           14.16104644497791        1.15621475178583       -0.51089893218916
C           13.50453786192804        2.29710033974255       -1.12848992418130
C           14.45546772356977        3.15362884005020       -1.50373198115339
C           15.74865421210290        2.58400403022266       -1.12372976502940
N           15.56084757882275        1.32332416619988       -0.51405424199699
C           16.95394742663698        3.19542518633097       -1.31812064263218
C           16.99547301358078        4.54352032294420       -1.93640578158219
C           17.54808880997629        4.71613522822550       -3.21110811539460
C           17.60947948858290        5.98180210487180       -3.79007259482208
C           17.12259170815999        7.10522615077383       -3.10367901483802
N           17.18668179078329        8.38807382771996       -3.68841341987268
C           16.57229702620057        6.92953919767119       -1.82438453654086
C           16.50892636109367        5.66244463368964       -1.24832591042722
C           18.21719556623674        2.59376598523596       -0.94019854158723
C           19.49711635541824        3.29478820960307       -0.93259406998908
C           20.43700099619265        2.41622073904310       -0.56048705739604
N           18.35717492719565        1.33675552782040       -0.57396547527543
C           19.71277535996610        1.17904603266808       -0.33702646571946
C           20.24849091638803       -0.01495523608209        0.00506982415383
C           19.55246652129724       -1.24963819272176        0.24274367086540
C           20.12587776918440       -2.48120506849459        0.21881801638891
C           19.10444381556772       -3.39978293376271        0.59784967002886
C           17.97628020498890       -2.67559580553308        0.83862211002185
N           18.20169131284274       -1.30343988539517        0.59894181460499
C           16.72325628295972       -3.24946301628382        1.32360249041515
C           16.74198641043791       -4.59294084520977        1.96216956711719
C           17.47375997443426       -4.80406687269531        3.13849510314591
C           17.51248536120854       -6.06226853407340        3.73588322546823
C           16.82299959657990       -7.14497062357395        3.16749460314658
N           16.86482574739721       -8.42021139442166        3.76994412199875
C           16.09315792863246       -6.93480247945190        1.98691161419585
C           16.05220264707028       -5.67428510077725        1.39329276933842
C           15.54998112819798       -2.58039274478165        1.20811110501069
C           14.25095648365882       -3.02482476403717        1.68919844510259
C           13.37214745295690       -2.08869027852653        1.31270075818775
C           14.11319158543525       -1.05284944677102        0.60926066170149
N           15.39888515378231       -1.33172400174885        0.55270085731243
H           12.40948023340886        0.13058017173405       -0.01483662158251
H           12.44147063107746        2.43988732148546       -1.27088511112563
H           14.26824254129616        4.09533427582466       -2.00206152479310
H           17.92948701007100        3.85763737432046       -3.75709999568965
H           18.04081218348676        6.09457769510211       -4.77848341195934
H           17.58778922393032        8.52265309390558       -4.62196786915724
H           16.83327363938150        9.21219566133431       -3.19198121375761
H           16.19351619822709        7.78396188817003       -1.27453842549293
H           16.08727430614939        5.54656786192487       -0.25361567961687
H           19.67811752602137        4.32855080022101       -1.17091828068606
H           21.49664081573404        2.63633108810774       -0.46216602572860
H           21.15412162511760       -2.71905691421684       -0.01790762896596
H           19.20296173750256       -4.46820472088954        0.69684606999330
H           18.01312463381277       -3.97890896822745        3.59469099764745
H           18.08528910521211       -6.20224096116680        4.64604117181386
H           17.39680260960391       -8.57947555542007        4.63157306018485
H           16.36396710593831       -9.21460261121955        3.35905588212126
H           15.55709711665931       -7.75825145867073        1.52752162975206
H           15.49114185703087       -5.53638610665414        0.47315092518626
H           14.01168922300211       -3.92344192347127        2.24254961878575
H           12.31239616144923       -2.10846048762988        1.50894445295928
Fe          27.36965857784021        0.01928875954736       -0.00766830127065
C           30.71620163660558       -0.04610207275867        0.09372684166580
C           30.04834451268021       -1.06467049205430        0.68141510769035
C           30.70485309138706       -2.20979899869378        1.29110269215803
C           29.75392332072996       -2.99581615335597        1.79768458526262
C           28.46073678814136       -2.36435348017156        1.53286598458858
N           28.64854340330493       -1.15963279523660        0.81895626679583
C           27.25544360644475       -2.86420306779795        1.93507767798867
C           27.21391799518653       -4.12439915668128        2.71708965735088
C           26.66130220497880       -5.28223192303640        2.15665708613584
C           26.59991150639002       -6.46411043929282        2.89169155895180
C           27.08679930869748       -6.51272603003051        4.20731120581952
N           27.02270921241030       -7.70890614750395        4.95347806712756
C           27.63709391557109       -5.34936761474736        4.76772053545714
C           27.70046453782122       -4.16912252914808        4.02989003867259
C           25.99219543323045       -2.21677465996152        1.64240898065287
C           24.71227462191493       -2.59776991344592        2.23090892898838
C           23.77238998674786       -1.80218868574696        1.70422615920875
N           25.85221604409534       -1.21699013104573        0.79704933885431
C           24.49661568909766       -0.93236342038482        0.79651397947296
C           23.96090004641522        0.01248880611311       -0.00966391414181
C           24.65692447378519        0.89278310202054       -0.90744592890620
C           24.08351327017133        1.55331434345663       -1.94717123289666
C           25.10494712234694        2.37677380286802       -2.50337663102427
C           26.23311068193175        2.17732477911721       -1.76673651731780
N           26.00769952790352        1.21939992743053       -0.75548004850880
C           27.48613460443980        2.89863036405711       -1.97708752432083
C           27.46740450674452        4.17317896095201       -2.74404686083328
C           26.73563103582547        5.27029386998576       -2.27006816912830
C           26.69690568046542        6.46340370848246       -2.98870123840655
C           27.38639140960674        6.58787535852831       -4.20517856564082
N           27.34456531954178        7.79461847729410       -4.93521653614563
C           28.11623304075920        5.48774126463543       -4.68230720080602
C           28.15718824268221        4.29649366294636       -3.95966123228648
C           28.65940933072962        2.43268958194329       -1.48323297289970
C           29.95843451755875        3.07923406964652       -1.58785169905703
C           30.83724352828896        2.24818590303142       -1.01561280866599
C           30.09619941076254        1.08954306102711       -0.54091294226263
N           28.81050587764239        1.19648600240457       -0.80460388899657
H           31.79991080750637       -0.08451483324125        0.10064003798898
H           31.76792035316525       -2.40737812413320        1.33143801528910
H           29.94114850432507       -3.93148848668064        2.30725110971266
H           26.27990391325383       -5.26297179634061        1.13942846129383
H           26.16857788848578       -7.35025770454532        2.43956713487822
H           26.62160183058860       -8.56137840886118        4.54983598745486
H           27.37611730221962       -7.75048067079806        5.91467198331448
H           28.01587479851064       -5.36316380924778        5.78368220108130
H           28.12211587606282       -3.27601144302822        4.48291086990628
H           24.53127342028371       -3.36759238158247        2.96086492261884
H           22.71275014571754       -1.84185509880275        1.94201167848233
H           23.05526936821308        1.48742387587573       -2.27621646039725
H           25.00642832898809        3.04961748669412       -3.33920327283504
H           26.19626637206673        5.19460996171092       -1.33024269451881
H           26.12410192311027        7.29935468703181       -2.60248157401191
H           26.81258840622421        8.60078002224452       -4.59189013758387
H           27.84542383325210        7.89106653639049       -5.82436488389294
H           28.65229379839306        5.55981883125469       -5.62247360510631
H           28.71824833215959        3.45336669570353       -4.35312544866463
H           30.19770178710049        4.03695899524717       -2.03110425377287
H           31.89699479682517        2.42267782590376       -0.92366080451571
C           21.52192384004293       -0.00804755685808        0.00011756753295
C           22.68746710878477        0.00454446036668       -0.00664263928284
122
 energy: -206.457138124958 gnorm: 0.149146984442 xtb: 6.5.1 (b24c23e)
Fe          16.84255799049847       -0.00520646303823        0.00659583883276
C           13.49609829882434        0.08830149688873        0.02243973893117
C           14.16788037082584        1.15292369989429       -0.51190147435011
C           13.50947166431111        2.28627330797185       -1.12387452793767
C           14.46906946939169        3.14981355160772       -1.50140753292633
C           15.74713261454676        2.57599393956212       -1.12242957706737
N           15.54699437941932        1.33142996934499       -0.52444261658669
C           16.96078735219041        3.20119211656021       -1.31770552307616
C           16.99793259724180        4.55048499163964       -1.93674007436597
C           17.55010526035983        4.72750156284776       -3.20807079670221
C           17.60840956305157        5.98664699016764       -3.78876206955162
C           17.12261824221041        7.11242705013005       -3.10697065267771
N           17.18589496383192        8.37313233986315       -3.68156008262468
C           16.57262952777137        6.93185727362449       -1.82900677500006
C           16.50839739764398        5.66874023109520       -1.25739286294617
C           18.19292303117903        2.62465289877983       -0.95036862314059
C           19.47082399243731        3.30641397219101       -0.94609349505358
C           20.40552218992548        2.40730620483757       -0.56060502541455
N           18.32921207111241        1.35511345980819       -0.55364437163408
C           19.66214388896552        1.18947358811055       -0.33506831254578
C           20.17243025422417       -0.03228962723999        0.00277437531422
C           19.50708582813211       -1.24848430244790        0.24803242628395
C           20.11315488292134       -2.50009569713105        0.23445162804714
C           19.12164255199694       -3.40342805435412        0.60832297809358
C           17.96035530567123       -2.67291070097454        0.84562976817423
N           18.17281326548641       -1.32494745517866        0.57210023298283
C           16.73691652393642       -3.24257209458579        1.32077553794248
C           16.75421249848314       -4.59266964310078        1.95408476985504
C           17.47772420993953       -4.81278545216116        3.13202830941189
C           17.51066331907331       -6.06408448522547        3.73329760390378
C           16.82314343213512       -7.15000540812651        3.17011656439205
N           16.86423194336131       -8.40353265932427        3.76201942369337
C           16.09468531133008       -6.93219508971222        1.99056809199567
C           16.05587684228739       -5.67467063060470        1.40078184485458
C           15.55043612947211       -2.56899779561630        1.20773509679827
C           14.26008513645378       -3.01532949320496        1.68138032967589
C           13.36503300577854       -2.07727711540697        1.30202138954943
C           14.09701295727261       -1.04359315528315        0.60633838959553
N           15.40406967874889       -1.32590689006291        0.56900545824533
H           12.41197073643116        0.12278640606546       -0.00608441974704
H           12.44571823144450        2.42231154785870       -1.26161425588295
H           14.29235362115497        4.09328497730321       -1.99871984829989
H           17.92774279021532        3.86576370884283       -3.75303413138361
H           18.03914049841800        6.09767136135150       -4.77835451575769
H           17.57933991348563        8.50729698874645       -4.59797998645165
H           16.83939382397383        9.18347289641969       -3.19585748815146
H           16.19448806394333        7.78599561229130       -1.27721584118104
H           16.08952071945116        5.54939020357387       -0.26135911412359
H           19.65936536710039        4.33904105067222       -1.18070369532730
H           21.46891793446768        2.60841107825872       -0.45743663146306
H           21.14190619751659       -2.72081624394220       -0.01553445362699
H           19.21232197285189       -4.47240630277516        0.69748295261629
H           18.01197853906782       -3.98537450715655        3.59123519302397
H           18.08244252762100       -6.20320595215947        4.64530337252447
H           17.38598486680884       -8.56271112994871        4.60802024579096
H           16.37333132535882       -9.18528095669194        3.36063788815153
H           15.55874783937566       -7.75621809579077        1.52957428179593
H           15.49518184786535       -5.53660887802680        0.47987590303606
H           14.03326165379703       -3.91698278510181        2.23493094099636
H           12.30626399784381       -2.09545902023559        1.50033740464853
Fe          27.36683325167600        0.00837352934194       -0.00069530473665
C           30.71329260671292       -0.03008532373864        0.08599780473681
C           30.04151028030443       -1.06368763888637        0.67811801146438
C           30.69991909690375       -2.19996976846304        1.28462859970953
C           29.74032136994218       -2.99177047260094        1.79578868283177
C           28.46225817330210       -2.35884372492041        1.52690798674558
N           28.66239605206986       -1.17277001417239        0.81997246258878
C           27.24860370543345       -2.86704355545005        1.94011337120836
C           27.21145843862889       -4.12852586352915        2.72270988148657
C           26.65928575041140       -5.28598062121487        2.16780906445456
C           26.60098136764383       -6.46569502436225        2.89645406655229
C           27.08677276595823       -6.51944804033300        4.21149435722345
N           27.02349603390561       -7.69493838186067        4.94481107455107
C           27.63676139445068       -5.35450114321335        4.76709861662912
C           27.70099344054552       -4.18015833834218        4.03012772707407
C           26.01646807280237       -2.24231697596194        1.66253356343528
C           24.73856701030639       -2.61544480128159        2.23314017225230
C           23.80386885576421       -1.79736140526981        1.69673054427804
N           25.88017923902570       -1.21019537603117        0.82357873849500
C           24.54724730333062       -0.93649297772167        0.80628729444611
C           24.03696075395342        0.02015307767017       -0.02538010750444
C           24.70230527147666        0.89655378110196       -0.90356181727227
C           24.09623624259502        1.57678210847073       -1.95427815427102
C           25.08774859451145        2.38751722082381       -2.50062789133715
C           26.24903560047736        2.18168181852936       -1.76062651436329
N           26.03657787281216        1.20891081181736       -0.78823720127547
C           27.47247450786082        2.89246653058053       -1.97290625375039
C           27.45517847745425        4.16629075522333       -2.74828748556418
C           26.73166677209144        5.26972126354023       -2.28090828353552
C           26.69872770799216        6.46225189506293       -2.99164350883392
C           27.38624758255522        6.59284264423473       -4.20792619787744
N           27.34515920456298        7.77879774579015       -4.92569351691096
C           28.11470558804304        5.48934829730869       -4.67811366638737
C           28.15351397242668        4.30294890300437       -3.95584478788821
C           28.65895459350537        2.42608013743361       -1.47394297168449
C           29.94930579722889        3.06747121083852       -1.58425719016051
C           30.84435783668926        2.23297872649881       -1.01200048446815
C           30.11237779787612        1.08199287961770       -0.53481226858004
N           28.80532108861449        1.20686164991126       -0.79074637226778
H           31.79742019804750       -0.07291371730875        0.09897989744071
H           31.76367261170580       -2.38993977766194        1.32191104740753
H           29.91703735050873       -3.92757091548451        2.30738946347888
H           26.28164806830667       -5.26407285078613        1.14844801515948
H           26.17024972857064       -7.35185961793472        2.44221691437855
H           26.63005119766027       -8.53289987550681        4.55029078111059
H           27.36999705877952       -7.73784152466942        5.88858979434509
H           28.01490289877506       -5.36651923966568        5.78389803584443
H           28.11986968097415       -3.28402469031382        4.48098496423139
H           24.55002553770790       -3.38154479944250        2.96420193154834
H           22.74047305605993       -1.82248664176968        1.92135354651335
H           23.06748488409869        1.49037378055541       -2.27637151221973
H           24.99706842400565        3.05246990588988       -3.34235337529061
H           26.19741248017604        5.19530197543335       -1.33754110935909
H           26.12694853376314        7.29927292770254       -2.60369357239656
H           26.82340617273963        8.57188595816029       -4.59093062179765
H           27.83605954855789        7.87618415694081       -5.79905123881244
H           28.65064298457385        5.56040617203686       -5.61964444635679
H           28.71420855213821        3.45909495710169       -4.34959551710615
H           30.17612931106011        4.02704009454744       -2.02993018134761
H           31.90312683677329        2.40832021557246       -0.91757987555978
C           21.50008519815495       -0.02280322849404       -0.00279349680007
C           22.70930580439020        0.01027080395586       -0.02054969007963
122
 energy: -206.485452158596 gnorm: 0.048806961264 xtb: 6.5.1 (b24c23e)
Fe          16.83911037059013        0.00551291304637        0.00419179957000
C           13.49800153679220        0.08034415333868        0.02897624623951
C           14.17112059024514        1.15250332158503       -0.51884530640607
C           13.50996365618228        2.27702109102494       -1.12218936063656
C           14.47416724950852        3.14600545468356       -1.50141052593007
C           15.73626025551618        2.57069641620944       -1.12575571685871
N           15.53296349344088        1.34156054567356       -0.53659650771897
C           16.95460172537895        3.21149891649677       -1.31889787339472
C           16.99059756228456        4.55909501533887       -1.93908418144897
C           17.55056264872161        4.73679146184768       -3.20584986782374
C           17.60874453162678        5.99055835215301       -3.78823384546641
C           17.12199951021931        7.11487392773878       -3.10750387468563
N           17.18519455105563        8.35832738969206       -3.67468389829433
C           16.57080565357847        6.93676495235725       -1.83130120867665