120
 energy: -214.366701907476 gnorm: 0.521003719478 xtb: 6.5.1 (b24c23e)
Fe          16.72044600000000       -0.03046100000000       -0.00246500000000
C           13.38244900000000        0.09269400000000        0.06961300000000
C           14.04442400000000        1.24213800000000        0.23053500000000
C           13.39355300000000        2.53944500000000        0.36771000000000
C           14.33352200000000        3.45010300000000        0.54039700000000
C           15.63859900000000        2.77468700000000        0.53440100000000
N           15.46181400000000        1.37266900000000        0.32731600000000
C           16.83053300000000        3.38054100000000        0.71605400000000
C           16.87974400000000        4.83900600000000        0.96832500000000
C           16.39706500000000        5.36814900000000        2.17603200000000
C           16.46001800000000        6.74399600000000        2.41651700000000
C           17.01085400000000        7.60054000000000        1.45485600000000
C           17.07686600000000        9.01676200000000        1.70356900000000
N           17.12992500000000       10.15533800000000        1.90361600000000
C           17.49996200000000        7.07553700000000        0.25192200000000
C           17.43664500000000        5.69988100000000        0.01012900000000
C           18.12196700000000        2.64481700000000        0.68453800000000
C           19.40530800000000        3.22989700000000        1.09183200000000
C           20.34011000000000        2.32000200000000        0.90702200000000
N           18.26499500000000        1.42297100000000        0.27094700000000
C           19.66032600000000        1.14226800000000        0.38183800000000
C           20.25488600000000        0.00023400000000        0.00006600000000
C           19.49167300000000       -1.15985800000000       -0.51136100000000
C           20.02259100000000       -2.15237700000000       -1.21421800000000
C           18.97997400000000       -3.13817400000000       -1.42371200000000
C           17.88206700000000       -2.68428100000000       -0.83019700000000
N           18.11546200000000       -1.41095600000000       -0.22629200000000
C           16.60357300000000       -3.43561800000000       -0.74407600000000
C           16.62683200000000       -4.90115700000000       -0.97161800000000
C           15.94266100000000       -5.46519900000000       -2.06106300000000
C           15.98454300000000       -6.84519600000000       -2.28142700000000
C           16.71619700000000       -7.67207200000000       -1.41982100000000
C           16.76021300000000       -9.09263500000000       -1.64785700000000
N           16.79563700000000      -10.23471800000000       -1.83111300000000
C           17.40792900000000       -7.11312300000000       -0.33790400000000
C           17.36601200000000       -5.73329500000000       -0.11618600000000
C           15.44125200000000       -2.81648400000000       -0.46139200000000
C           14.13396300000000       -3.45425000000000       -0.31441400000000
C           13.27198300000000       -2.47929800000000       -0.09901800000000
C           14.02019200000000       -1.22332000000000       -0.09410800000000
N           15.28521800000000       -1.40764000000000       -0.30436100000000
H           12.29908900000000        0.12052000000000        0.06025600000000
H           12.33020300000000        2.73858600000000        0.33050300000000
H           14.14548700000000        4.50885900000000        0.66165700000000
H           15.97475900000000        4.71437000000000        2.92930400000000
H           16.08193500000000        7.13905100000000        3.35181800000000
H           17.93079100000000        7.72868200000000       -0.49741900000000
H           17.81969100000000        5.30465100000000       -0.92275100000000
H           19.57597500000000        4.22599900000000        1.47861500000000
H           21.39388800000000        2.45199900000000        1.11324500000000
H           21.04836000000000       -2.23277600000000       -1.54825100000000
H           19.08908800000000       -4.08063200000000       -1.94458300000000
H           15.38130700000000       -4.83514900000000       -2.74009500000000
H           15.44981800000000       -7.26643000000000       -3.12428400000000
H           17.97985000000000       -7.74311800000000        0.33276900000000
H           17.90638100000000       -5.31272800000000        0.72312800000000
H           13.89236700000000       -4.50771800000000       -0.36554400000000
H           12.20736400000000       -2.60217500000000        0.05083200000000
Fe          30.50425700000000        0.03074600000000       -0.00412300000000
C           33.84225400000000       -0.08832600000000        0.07451700000000
C           33.18028000000000       -1.22737300000000        0.29742900000000
C           33.83115000000000       -2.51535200000000        0.50463400000000
C           32.89118100000000       -3.41532500000000        0.72636800000000
C           31.58610400000000       -2.74122400000000        0.68381600000000
N           31.76289000000000       -1.35247300000000        0.40113500000000
C           30.39417000000000       -3.33635600000000        0.89800200000000
C           30.34496000000000       -4.77902500000000        1.22885800000000
C           30.82763800000000       -5.24201100000000        2.46344100000000
C           30.76468500000000       -6.60282100000000        2.77805600000000
C           30.21384900000000       -7.51017000000000        1.86417600000000
C           30.14783700000000       -8.91085100000000        2.18919400000000
N           30.09477800000000      -10.03692700000000        2.45058500000000
C           29.72474100000000       -7.05105900000000        0.63458400000000
C           29.78805800000000       -5.69051000000000        0.31867300000000
C           29.10273700000000       -2.60341700000000        0.82670300000000
C           27.81939500000000       -3.16558900000000        1.26507300000000
C           26.88459300000000       -2.26703400000000        1.03127600000000
N           28.95970800000000       -1.40575300000000        0.34757200000000
C           27.56437700000000       -1.11945800000000        0.44310300000000
C           26.96981700000000        0.00023400000000        0.00006600000000
C           27.73303000000000        1.13093700000000       -0.57341500000000
C           27.20211200000000        2.08395100000000       -1.32897200000000
C           28.24472900000000        3.05696100000000       -1.59152700000000
C           29.34263600000000        2.63586400000000       -0.97431000000000
N           29.10924100000000        1.39710000000000       -0.30235700000000
C           30.62113000000000        3.39076100000000       -0.92898900000000
C           30.59787200000000        4.84183300000000       -1.23553700000000
C           31.28204200000000        5.34607000000000       -2.35391900000000
C           31.24016000000000        6.71211300000000       -2.64866800000000
C           30.50850600000000        7.58442000000000       -1.83309000000000
C           30.46449000000000        8.99055600000000       -2.13769600000000
N           30.42906600000000       10.12104200000000       -2.38251100000000
C           29.81677400000000        7.08486200000000       -0.72250000000000
C           29.85869100000000        5.71906100000000       -0.42640800000000
C           31.78345100000000        2.78783900000000       -0.61320200000000
C           33.09074000000000        3.43262700000000       -0.50096600000000
C           33.95272100000000        2.47076500000000       -0.23310500000000
C           33.20451100000000        1.21689500000000       -0.16020900000000
N           31.93948500000000        1.38956300000000       -0.38013200000000
H           34.92561400000000       -0.11661800000000        0.06668000000000
H           34.89450000000000       -2.71621500000000        0.47826300000000
H           33.07921600000000       -4.46596400000000        0.90476800000000
H           31.24994400000000       -4.54841200000000        3.18021400000000
H           31.14276800000000       -6.94666300000000        3.73337300000000
H           29.29391200000000       -7.74381400000000       -0.07829900000000
H           29.40501200000000       -5.34636300000000       -0.63423600000000
H           27.64872800000000       -4.13929100000000        1.70521400000000
H           25.83081500000000       -2.38767300000000        1.24434200000000
H           26.17634300000000        2.14614900000000       -1.66686700000000
H           28.13561500000000        3.96983800000000       -2.16265500000000
H           31.84339599999999        4.68018300000000       -2.99784700000000
H           31.77488500000000        7.08710000000000       -3.51309400000000
H           29.24485400000000        7.75024100000000       -0.08691600000000
H           29.31832199999999        5.34454900000000        0.43444300000000
H           33.33233600000000        4.48178200000000       -0.60905200000000
H           35.01733900000000        2.60157500000000       -0.09012700000000
C           22.87686000000000        0.01240500000000        0.00243300000000
C           21.62459000000000       -0.00677600000000       -0.00191600000000
C           24.19052800000000        0.01163900000000        0.00436500000000
C           25.69366200000000       -0.00677600000000       -0.00191600000000
120
 energy: -214.496509712906 gnorm: 0.288455903482 xtb: 6.5.1 (b24c23e)
Fe          16.73326279214313       -0.01702567544004        0.00128599110048
C           13.38322220788782        0.07295140701002        0.06832258510984
C           14.05201728154109        1.23831310357579        0.23017663324088
C           13.39709286154570        2.52830915528608        0.36560302567465
C           14.34955783010055        3.44806314978654        0.54092229651322
C           15.64149288586989        2.76320999509950        0.53221119564995
N           15.44986341292167        1.38103253374858        0.31977216516311
C           16.84787274702160        3.37602494584326        0.71805450707585
C           16.88860849377379        4.83972113251965        0.97185740109262
C           16.39805322238443        5.37272911131160        2.17064686601008
C           16.46041580910146        6.74092975546027        2.41248158084938
C           17.01085508735972        7.60054608987419        1.45483252128807
C           17.07668002059405        9.01143858129966        1.70268068630893
N           17.12931303352041       10.14366372667256        1.90158983160417
C           17.49820380602822        7.07186242523945        0.25403197501084
C           17.43804325311948        5.70297285340521        0.01696148820846
C           18.11131364930525        2.66349149900684        0.68819996795964
C           19.38476504532887        3.24702118121173        1.09090510733169
C           20.33025393910863        2.31468693815363        0.90349906260115
N           18.26883110207363        1.41356769071154        0.28846627425659
C           19.65167883304375        1.14797864555803        0.38321087068972
C           20.26172481933998       -0.01289582425249       -0.01194530573210
C           19.48142460226045       -1.15828004548077       -0.49642004222253
C           20.02477042629176       -2.17599029546077       -1.21977404166773
C           19.00111819906125       -3.14274566869060       -1.42361195252377
C           17.87325261145019       -2.67471454868357       -0.81415539014548
N           18.10770708914935       -1.39781597956486       -0.25075267574541
C           16.61994820090401       -3.42377017094464       -0.74073230944446
C           16.63953722869358       -4.89527055586823       -0.97673550131753
C           15.94603942681762       -5.46645939884659       -2.05452538887169
C           15.98605497552404       -6.83992336689554       -2.27672745348960
C           16.71621391586214       -7.67115342759484       -1.41959490194591
C           16.76012569144740       -9.08672149878249       -1.64705168968913
N           16.79511828570679      -10.22249099043306       -1.82918985990751
C           17.40527401104369       -7.10799959410151       -0.33939646851231
C           17.36715006355863       -5.73429843209126       -0.12305397916785
C           15.44398820015254       -2.80947048433544       -0.45949816438176
C           14.14406637660739       -3.44775939245489       -0.31593776365402
C           13.26113915874804       -2.46342550393445       -0.09862858855970
C           14.00216873736318       -1.21256890214973       -0.09249052782597
N           15.29089513607808       -1.41038376598672       -0.28991576123031
H           12.29987571369494        0.10911820631959        0.06033742740674
H           12.33320195862768        2.72266918708846        0.32848268085536
H           14.16676720780512        4.50738128126259        0.66305841432370
H           15.97715605641112        4.71593612852418        2.92489930179542
H           16.08333136019562        7.13819694427000        3.34867605697679
H           17.92894407070593        7.72733418448794       -0.49497903435432
H           17.81805733071496        5.30521935603652       -0.91824280720813
H           19.55859897642386        4.23717033670848        1.47862254328983
H           21.38656314067700        2.43581618196740        1.10676975236978
H           21.04810165449982       -2.24188727940598       -1.55437332295262
H           19.09817467976345       -4.08018882423409       -1.94845340072501
H           15.38472057286844       -4.83544805073663       -2.73570560912391
H           15.45199728733822       -7.26406688034506       -3.12071740670936
H           17.97727320432826       -7.74096938601061        0.33059769433261
H           17.90458944574931       -5.31294169352448        0.71957730120315
H           13.91098563610926       -4.50313293039921       -0.36791643137576
H           12.20075766829821       -2.58827673116785        0.05243275918082
Fe          30.49074567698024        0.01736080016673        0.00052314506737
C           33.84144674913937       -0.06874730677425        0.07219671588416
C           33.17266185868102       -1.22363244457199        0.29687995200044
C           33.82763517756629       -2.50434338105605        0.50191934207528
C           32.87505335958616       -3.41319206462602        0.72677009198938
C           31.58320835076831       -2.72967630320812        0.68094729751154
N           31.77466051843267       -1.36118598822597        0.39356481001683
C           30.37637029735522       -3.33139170301561        0.89976220853359
C           30.33606086612441       -4.77934697398425        1.23239774066226
C           30.82665553783799       -5.24679053022528        2.45827531579981
C           30.76427277870662       -6.59992044493485        2.77383632579711
C           30.21385095462855       -7.51014416787117        1.86414530943584
C           30.14801840130981       -8.90556582311076        2.18801670253705
N           30.09539830276468      -10.02536220927994        2.44792478386202
C           29.72653629022422       -7.04721746455408        0.63648596458460
C           29.78667659201938       -5.69313786251433        0.32565978026474
C           29.11264954547416       -2.62236222624217        0.83154346807748
C           27.84112316047666       -3.18388066053044        1.26531432292361
C           26.89449900725766       -2.26262253716713        1.02825109519037
N           28.95185586924171       -1.39460422430313        0.36384830188223
C           27.56956075824033       -1.12811843318450        0.44683131890873
C           26.94308825129298        0.01446063508838       -0.01165047407784
C           27.74073810422396        1.13213214077903       -0.55914106797126
C           27.19973404569067        2.10742441412566       -1.33688455168480
C           28.22403548154629        3.06179099314091       -1.59175040165328
C           29.35110803566428        2.62696681063233       -0.95760112026032
N           29.11488684155183        1.38253848051549       -0.32529516614418
C           30.60480115720076        3.37893602086171       -0.92497851738721
C           30.58516702654075        4.83557364293274       -1.24028148042502
C           31.27866187480523        5.34763566846607       -2.34743092264351
C           31.23863466594304        6.70706970283968       -2.64367696248618
C           30.50848849695836        7.58349768118915       -1.83281009804715
C           30.46457669188898        8.98468751250852       -2.13657096276658
N           30.42958659284877       10.10892705094426       -2.37992613436935
C           29.81943692944665        7.07963805290231       -0.72370832272802
C           29.85754084156557        5.71965051120410       -0.43331572204579
C           31.78073093035135        2.78089286553931       -0.61100107078858
C           33.08061175407538        3.42607822110751       -0.50212766902634
C           33.96353263906530        2.45494880514686       -0.23185958342306
C           33.22241603636741        1.20631973638916       -0.15797149178323
N           31.93372204800062        1.39294626964926       -0.36557038000501
H           34.92480257762811       -0.10526312813405        0.06610368284745
H           34.89151483190061       -2.70042550652931        0.47541436107862
H           33.05786032487227       -4.46435759440041        0.90610033837269
H           31.24754124743578       -4.55018677256115        3.17591314879180
H           31.14136402010785       -6.94594362457546        3.73016661694945
H           29.29576653538605       -7.74229109528016       -0.07592633869029
H           29.40662772172298       -5.34665074667926       -0.62970115832102
H           27.66677211961236       -4.15117064475312        1.70602271840561
H           25.83800944351778       -2.37197990066880        1.23709949878168
H           26.17622755318262        2.15522632778486       -1.67373848302616
H           28.12686244090083        3.96937927786525       -2.16649649393691
H           31.83998060712678        4.68070346326917       -2.99347796958883
H           31.77269852942581        7.08490988428711       -3.50939094598810
H           29.24743680090167        7.74796021109917       -0.08896841929653
H           29.32010555202571        5.34456118553629        0.43089789472739
H           33.31371031942436        4.47707953038460       -0.61118464936590
H           35.02392439190789        2.58777473589679       -0.08778749423936
C           22.92063007925725        0.00339823141259        0.00214895606374
C           21.66030108398276       -0.02498563179319       -0.00545929137741
C           24.25694208676752        0.01695751537305        0.00334928070109
C           25.58069380102476        0.01538658609398       -0.01064033216631
120
 energy: -214.532058581108 gnorm: 0.294281696847 xtb: 6.5.1 (b24c23e)
Fe          16.75539491519767       -0.00563784197193        0.00491270877280
C           13.38923017941551        0.05210663815448        0.06648239106878
C           14.06496279259967        1.23752059973771        0.22576493873845
C           13.40576485599048        2.51517089656422        0.36324858215305
C           14.36940386764440        3.44185611448903        0.54076860217338
C           15.64367570613104        2.74864515856872        0.52624185780652
N           15.43742494694539        1.39157235986533        0.31589976684621
C           16.86913226356918        3.36494988816952        0.71960945114529
C           16.89647980310647        4.83535312550214        0.97505453060574
C           16.39996609831997        5.37366170774332        2.16631246230699
C           16.46038430309958        6.73609894644297        2.40862725635055
C           17.01069988245839        7.59878436331043        1.45454566666724
C           17.07631177547832        9.00339369562373        1.70137893424446
N           17.12892050338123       10.13637536950993        1.90036165938065
C           17.49711190843573        7.06665549792528        0.25570319044081
C           17.44028466986363        5.70271089351072        0.02330877840745
C           18.10049795307754        2.67783227763820        0.69196521363412
C           19.36456589826393        3.25630057106314        1.08332989729551
C           20.31552479736984        2.30657153509736        0.89680288372558
N           18.27659242766367        1.39341101540986        0.30628382865780
C           19.64211976812947        1.14511815560850        0.39008657360187
C           20.27147522553776       -0.02987210413348       -0.02368270219030
C           19.47580084955242       -1.14878983220110       -0.48547048318090
C           20.02592818019836       -2.20524391185628       -1.21935514479892
C           19.02984957656890       -3.14302267599995       -1.41497974186702
C           17.86629263952632       -2.65727649829060       -0.80112220465261
N           18.11346860229317       -1.38572699978409       -0.27703664756344
C           16.64627278455002       -3.40248354298505       -0.73809130618481
C           16.65647698836234       -4.88126661014481       -0.98364198785023
C           15.95220006125398       -5.46171590752451       -2.04885774085744
C           15.98736308243166       -6.83038355891647       -2.27104454167663
C           16.71633352154507       -7.66701371793076       -1.41882715072587
C           16.75953131093202       -9.07676127932177       -1.64553088004303
N           16.79473985872249      -10.21332991619779       -1.82790895004328
C           17.40385501513593       -7.09978109136950       -0.34068544646899
C           17.37141819557248       -5.73030533501005       -0.13075142508310
C           15.44770110018585       -2.79447255776053       -0.44979328747765
C           14.15833804144624       -3.43357775042398       -0.31725291486200
C           13.25667596038664       -2.44640483069762       -0.10218659051317
C           13.98419962899217       -1.20007468650154       -0.08906813453262
N           15.30108871078886       -1.41443640334927       -0.27078878056808
H           12.30475128984738        0.09949788849450        0.06482541430254
H           12.34099300709265        2.70165893739599        0.32642894947472
H           14.19520780333569        4.50174351073555        0.66468212276608
H           15.97907304732153        4.71547855224371        2.92033332708496
H           16.08415921877988        7.13712154436278        3.34437479111705
H           17.92607000793161        7.72569783355878       -0.49221804986943
H           17.81779292898137        5.30357063331194       -0.91323667217061
H           19.53866097105318        4.24403722022696        1.47437061068510
H           21.37355246612076        2.41652873808395        1.09730165570913
H           21.04807681530870       -2.25206057594537       -1.55656850020517
H           19.10644753078898       -4.07791045980046       -1.94650297549837
H           15.38844702135385       -4.83229717016259       -2.73068850611280
H           15.45371004474531       -7.25891854701965       -3.11455656089300
H           17.97302096729959       -7.73732880372802        0.32881452934389
H           17.90532554125018       -5.31032622171004        0.71562991515134
H           13.93648145296611       -4.49159307300440       -0.37115499833458
H           12.19800579449916       -2.57274152605604        0.05130804808243
Fe          30.46763486905253        0.00639534534086        0.00465538165889
C           33.83536298130336       -0.04799918390677        0.06917338032886
C           33.15947202638616       -1.22295032211186        0.29233936459314
C           33.81855043189700       -2.49129159143726        0.49888124348265
C           32.85462934346474       -3.40685387312671        0.72630469785835
C           31.58032937490347       -2.71511312006963        0.67399798426322
N           31.78672986228693       -1.37151172923406        0.39046045913895
C           30.35385923726649       -3.31894132438055        0.90017239375694
C           30.32750146002859       -4.77403838434354        1.23527988661912
C           30.82452564349931       -5.24758464308303        2.45377950021292
C           30.76431837244420       -6.59504038462681        2.76953939029089
C           30.21401080905802       -7.50825152646313        1.86370734659164
C           30.14840480932430       -8.89748828897920        2.18624687885585
N           30.09580117202331      -10.01804520742981        2.44627318647501
C           29.72766820313148       -7.04172414517217        0.63783283883569
C           29.78430630624204       -5.69225736627285        0.33196323224200
C           29.12156453551508       -2.63382100116470        0.83524120436048
C           27.85995505379957       -3.19195332339553        1.25800056338548
C           26.90684648137496       -2.25430977220780        1.02084770355761
N           28.94021370594497       -1.37071529750515        0.37970757545775
C           27.57342416219688       -1.12191577036985        0.45006064735261
C           26.92242460445447        0.02700343225654       -0.02464047912225
C           27.74002634515451        1.11957072137385       -0.54499175638286
C           27.19594824765659        2.13558848538112       -1.33689311057369
C           28.19422772665727        3.06100572901716       -1.58301373928596
C           29.35606030351773        2.60824277671553       -0.94247886488182
N           29.10458436472133        1.36607583217620       -0.34964960287764
C           30.57721763954685        3.35682215970380       -0.92074996604946
C           30.56760491941950        4.82058983599596       -1.24645764789868
C           31.27227368709315        5.34288522507207       -2.34137797221294
C           31.23729266349669        6.69762486300380       -2.63736362993050
C           30.50835883629227        7.57928812495578       -1.83179739643790
C           30.46518427961428        8.97473571897857       -2.13450333279259
N           30.42996905733665       10.09976980440140       -2.37814920028815
C           29.82087570170109        7.07122029250578       -0.72453315375574
C           29.85315345455218        5.71505235163253       -0.44078037336581
C           31.77645499955346        2.76622047872179       -0.60038821179116
C           33.06597602625508        3.41177641985765       -0.50281269104714
C           33.96779535681064        2.43780693688267       -0.23454575104770
C           33.24029197821655        1.19402199049299       -0.15395823441543
N           31.92347964192859        1.39783792932001       -0.34697016737124
H           34.91986124975647       -0.09540918539590        0.07007809430732
H           34.88337313810902       -2.67957653113760        0.47221651611016
H           33.02906219189584       -4.45850273928144        0.90739374449075
H           31.24556040443307       -4.54982036613345        3.17123367672572
H           31.14054113467522       -6.94488855741918        3.72565642859236
H           29.29870068413624       -7.74036911247977       -0.07327590220329
H           29.40681008293969       -5.34468597666119       -0.62488686619815
H           27.68628652413581       -4.15727455745540        1.70195550197832
H           25.84937707762764       -2.35439646443658        1.22736322382225
H           26.17469592479089        2.16579826157464       -1.67717292539309
H           28.11849720770977        3.96619061891939       -2.16431197735490
H           31.83616891697596        4.67768839375395       -2.98822726641436
H           31.77095971912091        7.07991936511178       -3.50285800491156
H           29.25172819635077        7.74414278089000       -0.09055205674233
H           29.31927484837952        5.34171251402917        0.42716394581323
H           33.28795243403138        4.46532487123438       -0.61385712374362
H           35.02650114606702        2.57228106632076       -0.08809276992702
C           22.94775142164209       -0.00551568876661       -0.00051270521547
C           21.70624183789471       -0.04367294918155       -0.01762561633625
C           24.33734981530649        0.02507644383094       -0.00653738578453
C           25.48418381009926        0.03717537562685       -0.01668932292120
120
 energy: -214.556962389851 gnorm: 0.064981230955 xtb: 6.5.1 (b24c23e)
Fe          16.76635247726081        0.00124927466555        0.00529361057496
C           13.39167621515498        0.04702885337559        0.06761423702274
C           14.07058782953558        1.23572989398958        0.22201181782464
C           13.41400103825091        2.50844535768746        0.36046518688015
C           14.38143494307516        3.43632371581768        0.53894334152442
C           15.64722920511434        2.74303488994367        0.52239054722943
N           15.43667288906165        1.39389133776359        0.31009980349933
C           16.87406678152992        3.36127898568107        0.72142254359280
C           16.90246163831709        4.83146342546347        0.97768233568727
C           16.40136693868827        5.37108336572934        2.16484616644427
C           16.45971336659140        6.73237257596151        2.40654609342837
C           17.01036955808924        7.59457237933669        1.45379928272745
C           17.07557161914153        8.99651255400831        1.70015983752203
N           17.12855207391053       10.12853229459797        1.89902764626870
C           17.49741950366873        7.06272837086791        0.25636126726709
C           17.44501513637288        5.69936135132729        0.02699829701615
C           18.09362487033497        2.67866879910443        0.69825029285591
C           19.35338378541225        3.25938357174983        1.07716666421945
C           20.30099308056669        2.30140422689832        0.89261080428781
N           18.26870612813787        1.38261982859230        0.32542968788208