195
 energy: -354.216819668441 gnorm: 4.164803387397 xtb: 6.5.1 (b24c23e)
Co          26.52734100000000       -0.02033400000000        0.00089900000000
C           23.16558900000000        0.11477300000000       -0.11812500000000
C           23.83164800000000        1.26846600000000       -0.01769300000000
C           23.18182200000000        2.57006400000000        0.07623800000000
C           24.12192700000000        3.48428400000000        0.22146200000000
C           25.42726200000000        2.80921700000000        0.22242300000000
N           25.24989000000000        1.40065100000000        0.06758900000000
C           26.61667600000000        3.42155400000000        0.39547500000000
C           26.65300700000000        4.88849600000000        0.58801400000000
C           26.90787000000000        5.42621100000000        1.85766200000000
C           26.94661300000000        6.81140400000000        2.04080800000000
C           26.72626899999999        7.67689300000000        0.95516500000000
C           26.75959400000000        9.14041800000000        1.12902600000000
O           26.99394300000000        9.65671900000000        2.25427700000000
C           26.47018200000000        7.13498700000000       -0.31403600000000
C           26.43616600000000        5.74974700000000       -0.49756800000000
C           27.91241800000000        2.69063700000000        0.41216200000000
C           29.20720100000000        3.33247600000000        0.67086400000000
C           30.14135600000000        2.40917500000000        0.57802800000000
N           28.05111500000000        1.42422800000000        0.16101300000000
C           29.45305200000000        1.16711800000000        0.24930400000000
C           30.04916400000000       -0.01157700000000        0.00198100000000
C           29.29427700000000       -1.23503100000000       -0.35646400000000
C           29.84789800000000       -2.32347300000000       -0.87646000000000
C           28.80393200000000       -3.31842200000000       -1.01018100000000
C           27.67922700000000       -2.77475300000000       -0.56120300000000
N           27.89774700000000       -1.43030100000000       -0.12703900000000
C           26.38252600000000       -3.49493800000000       -0.47492900000000
C           26.39201400000000       -4.97496500000000       -0.55042900000000
C           25.82968300000000       -5.63416500000000       -1.65489500000000
C           25.85918100000000       -7.02942900000000       -1.73199100000000
C           26.45604800000000       -7.78402800000000       -0.70968300000000
C           26.48377300000000       -9.25460900000000       -0.81104400000000
O           27.05981700000000       -9.95597200000000        0.06149400000000
C           27.02374800000000       -7.12150700000000        0.39328500000000
C           26.99436500000000       -5.72613600000000        0.46933600000000
C           25.21428400000000       -2.84158600000000       -0.33125100000000
C           23.89258200000000       -3.45524300000000       -0.21408300000000
C           23.03213600000000       -2.45964900000000       -0.12862400000000
C           23.79505100000000       -1.21364700000000       -0.17857400000000
N           25.06851400000000       -1.42341600000000       -0.29672900000000
H           22.08231800000000        0.14758800000000       -0.13496400000000
H           22.11798400000000        2.76783100000000        0.04896600000000
H           23.93341100000000        4.54422600000000        0.33174200000000
H           27.07730800000000        4.77153800000000        2.70390100000000
H           27.14723000000000        7.20399400000000        3.02978500000000
H           26.58210400000000        9.79031000000000        0.28177400000000
H           26.29726000000000        7.78432400000000       -1.16367600000000
H           26.23914200000000        5.34691300000000       -1.48377600000000
H           29.38975300000000        4.37584200000000        0.88988200000000
H           31.20231800000000        2.57657100000000        0.70801600000000
H           30.88801200000000       -2.46037400000000       -1.13964600000000
H           28.92789200000000       -4.32351900000000       -1.39140100000000
H           25.37330900000000       -5.06626900000000       -2.45723800000000
H           25.42131200000000       -7.52002000000000       -2.59357300000000
H           26.01223200000000       -9.74747800000000       -1.65126000000000
H           27.48999400000000       -7.68058200000000        1.19562800000000
H           27.43751200000000       -5.23036900000000        1.32475200000000
H           23.64147200000000       -4.50777100000000       -0.19507700000000
H           21.95912800000000       -2.56172100000000       -0.03048800000000
Co          64.44340699999999       -0.00275600000000        0.00215700000000
C           67.80516000000000       -0.11953600000000       -0.13489400000000
C           67.13910100000000       -1.27577300000000       -0.19977900000000
C           67.78892600000000       -2.57748200000000       -0.29216200000000
C           66.84882200000000       -3.50306500000000       -0.27861000000000
C           65.54348700000000       -2.83501500000000       -0.18152500000000
N           65.72085800000001       -1.41875500000000       -0.13419100000000
C           64.35407300000000       -3.46575500000000       -0.09743700000000
C           64.31774100000000       -4.94516500000000       -0.11576400000000
C           64.06287900000000       -5.65820600000000        1.06437000000000
C           64.02413600000000       -7.05536300000000        1.04838800000000
C           64.24448000000000       -7.75742800000000       -0.14944200000000
C           64.21115500000001       -9.23079600000000       -0.18576900000000
O           63.97680600000000       -9.90207900000000        0.85448800000000
C           64.50056600000001       -7.04030200000000       -1.32853600000000
C           64.53458200000000       -5.64304400000000       -1.31293000000000
C           63.05833000000000       -2.74466400000000        0.02316700000000
C           61.76354700000000       -3.41680200000000        0.18783000000000
C           60.82939300000000       -2.48969100000000        0.22742500000000
N           62.91963400000000       -1.45539600000000       -0.04507700000000
C           61.51769700000000       -1.21348000000000        0.07892900000000
C           60.92158500000000       -0.01157700000000        0.00198100000000
C           61.67647200000000        1.25045200000000       -0.17858200000000
C           61.12285099999999        2.40185300000000       -0.53827700000000
C           62.16681700000000        3.40570400000000       -0.52894700000000
C           63.29152199999999        2.80363800000000       -0.16196800000000
N           63.07300200000000        1.41106100000000        0.07631200000000
C           64.58822300000000        3.50419700000000        0.02598700000000
C           64.57873400000000        4.97989200000000        0.16202200000000
C           65.14106600000000        5.78965700000000       -0.83731200000000
C           65.11156800000001        7.18168000000000       -0.71492700000000
C           64.51470100000000        7.78300400000000        0.40442200000000
C           64.48697600000000        9.25303200000000        0.51351500000000
O           63.91093200000000        9.82299200000000        1.47703900000000
C           63.94700099999999        6.97016500000000        1.40180100000000
C           63.97638400000000        5.57818500000000        1.27836600000000
C           65.75646500000001        2.83704300000000        0.07515900000000
C           67.07816699999999        3.42776000000000        0.27852100000000
C           67.93861300000000        2.43014300000000        0.22133000000000
C           67.17569700000000        1.20395300000000       -0.00555000000000
N           65.90223500000000        1.42841100000000       -0.09262900000000
H           68.88843099999998       -0.14961800000000       -0.15623400000000
H           68.85276499999999       -2.76934900000000       -0.34732100000000
H           67.03733800000001       -4.56790900000000       -0.32039700000000
H           63.89344100000000       -5.13071600000000        1.99521500000000
H           63.82351900000000       -7.58478900000000        1.97137800000000
H           64.38864500000000       -9.75341000000000       -1.11693500000000
H           64.67348900000000       -7.56202600000000       -2.26198700000000
H           64.73160600000000       -5.10387200000000       -2.23172000000000
H           61.58099600000000       -4.48072300000000        0.25603300000000
H           59.76843100000000       -2.67389100000000        0.33225000000000
H           60.08273699999999        2.57483800000000       -0.77928500000000
H           62.04285700000000        4.45484500000000       -0.76315000000000
H           65.59743899999999        5.34180900000000       -1.71235100000000
H           65.54943700000000        7.78996600000000       -1.49786500000000
H           64.95851700000000        9.86053000000000       -0.24795000000000
H           63.48075500000000        7.40928300000000        2.27558200000000
H           63.53323600000000        4.96565400000000        2.05446300000000
H           67.32927700000000        4.46685500000000        0.44722000000000
H           69.01162099999999        2.51720000000000        0.33300100000000
C           32.17894000000000        0.00311300000000        0.01225700000000
C           33.63716600000000       -0.01872400000000       -0.00561700000000
C           34.77109400000000       -0.03947700000000       -0.00710800000000
C           36.13247600000000       -0.05206700000000       -0.00929900000000
C           37.40669500000000       -0.04176100000000       -0.01406400000000
C           38.59515700000000       -0.02296200000000       -0.02022000000000
C           39.94751800000000        0.00182200000000       -0.00435200000000
C           41.04778500000000        0.00311300000000        0.01225700000000
C           49.79892700000000        0.00311300000000        0.01225700000000
C           51.25715300000000       -0.01872400000000       -0.00561700000000
C           52.39108100000000       -0.03947700000000       -0.00710800000000
C           53.75246300000000       -0.05206700000000       -0.00929900000000
C           55.02668200000000       -0.04176100000000       -0.01406400000000
C           56.21514400000000       -0.02296200000000       -0.02022000000000
C           57.56750500000000        0.00182200000000       -0.00435200000000
C           58.66777200000000        0.00311300000000        0.01225700000000
Co          45.46958500000000       -0.02099900000000        0.01415600000000
C           42.02735200000000        0.02270300000000       -0.00735300000000
C           42.68360300000000        1.15773100000000        0.30206300000000
C           42.04265300000000        2.44867300000000        0.56464900000000
C           42.98285899999999        3.32383900000000        0.86702400000000
C           44.28083300000000        2.64428400000000        0.82160000000000
N           44.10095900000000        1.27289800000000        0.45660300000000
C           45.46585300000000        3.22552800000000        1.10349500000000
C           45.50043200000000        4.64307400000000        1.52630300000000
C           46.00174600000000        5.62337800000000        0.65723500000000
C           46.04599000000000        6.96153000000000        1.05662700000000
C           45.59087500000000        7.33578500000000        2.33331500000000
C           45.61502300000000        8.74122100000000        2.77479000000000
O           46.08009300000000        9.64253100000000        2.03112300000000
C           45.09867800000000        6.35184300000000        3.20130900000000
C           45.05506800000000        5.01369900000000        2.80056600000000
C           46.76201100000000        2.51003100000000        1.01307100000000
C           48.03004799999999        3.05278900000000        1.51543300000000
C           48.98196700000000        2.19137700000000        1.22049000000000
N           46.92964200000000        1.36063300000000        0.43601700000000
C           48.32762400000000        1.08864300000000        0.52817300000000
C           48.94327400000000        0.02270300000000       -0.00735300000000
C           48.19468000000000       -1.06119300000000       -0.67605500000000
C           48.72772900000000       -1.93287300000000       -1.52169000000000
C           47.69605700000000       -2.89806900000000       -1.85078700000000
C           46.60402200000000       -2.54856100000000       -1.18317500000000
N           46.82911599999999       -1.37109400000000       -0.41024600000000
C           45.34887000000000       -3.33544300000000       -1.15789500000000
C           45.41046500000000       -4.77251900000000       -1.51341700000000
C           46.17757200000000       -5.65349000000000       -0.73677100000000
C           46.24986600000000       -7.00842100000000       -1.07181900000000
C           45.56135399999999       -7.49988800000000       -2.19215600000000
C           45.64541100000000       -8.93302500000000       -2.52297800000000
O           45.02540299999999       -9.41107700000000       -3.51179400000000
C           44.80256500000000       -6.61442400000000       -2.97811900000000
C           44.73049400000000       -5.25889200000000       -2.64210500000000
C           44.17568000000000       -2.77918900000000       -0.79879800000000
C           42.89875500000000       -3.47500300000000       -0.67624600000000
C           42.00773600000000       -2.55531800000000       -0.36225100000000
C           42.70522700000000       -1.26704300000000       -0.27600400000000
N           43.97275200000000       -1.39216000000000       -0.52693800000000
H           40.98590200000000        2.68015100000000        0.52173800000000
H           42.79864899999999        4.36448500000000        1.10143000000000
H           46.35537400000000        5.34973400000000       -0.32935900000000
H           46.43351499999999        7.70228300000000        0.36802600000000
H           45.22166099999999        9.01365500000000        3.75422300000000
H           44.74759899999999        6.61861800000000        4.18909700000000
H           44.67539400000000        4.26589600000000        3.48221200000000
H           48.17962100000000        3.99024900000000        2.03479100000000
H           50.03181600000000        2.30891500000000        1.45659300000000
H           49.74813100000000       -1.94713600000000       -1.87845400000000
H           47.81037600000000       -3.76350900000000       -2.48966100000000
H           46.71410700000000       -5.29110500000000        0.13206800000000
H           46.84270100000000       -7.67428100000000       -0.45520800000000
H           46.24525600000000       -9.59524000000000       -1.90993800000000
H           44.26967600000000       -6.96800000000000       -3.85238800000000
H           44.14781100000000       -4.58724900000000       -3.26191800000000
H           42.69660500000000       -4.53093700000000       -0.80321000000000
H           40.95527300000000       -2.74490100000000       -0.19499400000000
195
 energy: -355.398730189082 gnorm: 0.872163331858 xtb: 6.5.1 (b24c23e)
Co          26.52930094467117       -0.01995466919481        0.00001947976733
C           23.16604278510160        0.10751711646218       -0.11847165256750
C           23.83581759527707        1.26982206871937       -0.01743225337649
C           23.18085571473310        2.56737450271621        0.07583441403110
C           24.12548290070683        3.48550528463054        0.22174552255464
C           25.42571209295631        2.80488406638359        0.22163310552602
N           25.24537014729929        1.40464943079483        0.06817866736600
C           26.62347304522800        3.41975563473828        0.39580823595567
C           26.65372449807120        4.88931765504779        0.58815859027260
C           26.90800244508445        5.42805892731809        1.85689419577356
C           26.94636833744216        6.81022160530059        2.03974604676094
C           26.72617088133759        7.67721625228446        0.95473060221522
C           26.76154777347319        9.14181021104732        1.13822380404230
O           26.99245921638766        9.65333858944814        2.24721512126694
C           26.47023793300734        7.13339084735486       -0.31352500389966
C           26.43613684400579        5.75096112784013       -0.49646580063987
C           27.90847539387228        2.69747654733124        0.41311398574161
C           29.20234960114034        3.33617957412377        0.67089352931618
C           30.14230010807479        2.40597479125012        0.57751530909917
N           28.05283950924371        1.41910252275977        0.16112398298408
C           29.45581868796564        1.16699325303350        0.24948339376437
C           30.05450783475321       -0.01648380636669        0.00012313240385
C           29.29340805295151       -1.22664502757252       -0.35192154759086
C           29.84835423206792       -2.33292705441319       -0.87964956051351
C           28.81333789428907       -3.31886115949631       -1.01182805696762
C           27.67168973083123       -2.76994937408588       -0.55705212990534
N           27.89803761466685       -1.43023018107636       -0.12920910441245
C           26.38765863918674       -3.49232895368033       -0.47505943774452
C           26.39321639866312       -4.97509561195324       -0.55101278119943
C           25.82990396260479       -5.63541200657826       -1.65402545872758
C           25.85945275042205       -7.02792244148189       -1.73120325535043
C           26.45575995873037       -7.78421668675595       -0.71005095801844
C           26.48871443864635       -9.25751232115478       -0.80357589677619
O           27.05616720879740       -9.95150244895072        0.05619403896135
C           27.02320112017027       -7.12011441119961        0.39253077441773
C           26.99411204024864       -5.72767098481425        0.46830054315549
C           25.21323329326940       -2.84014909265581       -0.33100921756897
C           23.89609666708004       -3.45631248431353       -0.21439948771082
C           23.02909959492050       -2.45523403349279       -0.12852778213694
C           23.78803889672067       -1.20878598911369       -0.17816954120109
N           25.07251993360414       -1.42553100374077       -0.29554193199731
H           22.08243696202418        0.14687568401143       -0.13493609325304
H           22.11803943169181        2.76646840246678        0.04877313055455
H           23.93504947190746        4.54428206112279        0.33178270070404
H           27.07722994105525        4.77157370669250        2.70360607309202
H           27.14714068072032        7.20451024976592        3.02950162352539
H           26.58182735301052        9.79013170139410        0.28045823988231
H           26.29731881275874        7.78439774090209       -1.16352390968701
H           26.23923583898271        5.34680237474679       -1.48351497954065
H           29.38840289090127        4.37632404907318        0.88988681679202
H           31.20222824324837        2.57484975427398        0.70769984530197
H           30.88797375020002       -2.46082985058116       -1.13976978848494
H           28.92848873296024       -4.32332315509558       -1.39152455663583
H           25.37348013911733       -5.06620902972110       -2.45695949990028
H           25.42142147690082       -7.52007820577185       -2.59338162134185
H           26.01150323453674       -9.74709112007661       -1.65238187576338
H           27.48980480620812       -7.68099197929699        1.19521553451075
H           27.43736517446072       -5.23033572903540        1.32445392202529
H           23.64301492867268       -4.50766821919861       -0.19522489634483
H           21.95889248374348       -2.56053527332514       -0.03048080784277
Co          64.44138142609989       -0.00298493151322        0.00127895366403
C           67.80472278074072       -0.11228769694146       -0.13420575420117
C           67.13494843931115       -1.27714222557375       -0.19970251737854
C           67.78987690829103       -2.57473397479927       -0.29217669283943
C           66.84523602625248       -3.50431411549980       -0.27850611240028
C           65.54495788644267       -2.83077367922291       -0.18168146716718
N           65.72534320030501       -1.42266703559484       -0.13417595607196
C           64.34746228311771       -3.46405903895987       -0.09686753935477
C           64.31702995822064       -4.94599410440966       -0.11574151409664
C           64.06274404507217       -5.65992935272851        1.06334709931435
C           64.02437925061831       -7.05403700734201        1.04750835385500
C           64.24457793360915       -7.75769616974117       -0.14991964169919
C           64.20920283725151       -9.23346501520169       -0.17686762454398
O           63.97828713306538       -9.89773950005240        0.84798725403756
C           64.50051118438027       -7.03879251905815       -1.32780637796727
C           64.53461103597742       -5.64440885623783       -1.31201279392246
C           63.06218620836347       -2.75139499022859        0.02314624357494
C           61.76834779715532       -3.42042905231416        0.18734257513816
C           60.82842580143042       -2.48641328584009        0.22736363160034
N           62.91818792662619       -1.45061183047855       -0.04430221938788
C           61.51482250174621       -1.21290395117460        0.07912208176168
C           60.91805238716293       -0.00636780574635        0.00090740594231
C           61.67754833916899        1.24129583310275       -0.17526040025410
C           61.12239544597988        2.41148080411418       -0.54004448040784
C           62.15754755644382        3.40640819571161       -0.53051204517556
C           63.29905115034160        2.79841104161379       -0.15857095045116
N           63.07286018814258        1.41130442777729        0.07413708923839
C           64.58312662301140        3.50166110493833        0.02549454682136
C           64.57753615838035        4.98010602405942        0.16146533685686
C           65.14084525439668        5.79077080341030       -0.83627360313413
C           65.11129729236198        7.18007552377387       -0.71436319772794
C           64.51498918793872        7.78324811532017        0.40408475768656
C           64.48203430617338        9.25483384055910        0.52131897892508
O           63.91458216580978        9.81932772092542        1.47115926363633
C           63.94754620350275        6.96889247394753        1.40085721399662
C           63.97663655480863        5.57985456092428        1.27756025582657
C           65.75749244232202        2.83561803943824        0.07519978569585
C           67.07464933420978        3.42886001261867        0.27835581591361
C           67.94164343660424        2.42575607138581        0.22080090845462
C           67.18272751712061        1.19905566562355       -0.00583379825252
N           65.89823349137431        1.43033904849047       -0.09120436364713
H           68.88831298371586       -0.14891575038588       -0.15610528595908
H           68.85270743219886       -2.76797056631589       -0.34731924396798
H           67.03569951891845       -4.56797028112963       -0.32036541993701
H           63.89351881881569       -5.13071031308865        1.99491785989723
H           63.82360882211363       -7.58525953790748        1.97102441115249
H           64.38892197148868       -9.75304593862933       -1.11821323936856
H           64.67343031902020       -7.56212195500427       -2.26184793341284
H           64.73151241300494       -5.10379998663998       -2.23144551504478
H           61.58235469502636       -4.48120294577865        0.25596868437250
H           59.76855965286826       -2.67220504738204        0.33218731581781
H           60.08280444891674        2.57531655177151       -0.77934034579849
H           62.04226910204605        4.45467793769696       -0.76329624600616
H           65.59726816327324        5.34170997084229       -1.71208385279072
H           65.54932770779180        7.78999719129818       -1.49766784352395
H           64.95924614609882        9.86030677340789       -0.24911632526461
H           63.48094407184221        7.40974769496520        2.27523224117263
H           63.53338264051970        4.96566383386024        2.05416273033071
H           67.32773363728552        4.46677412880599        0.44705979920457
H           69.01185604649179        2.51602465624411        0.33283894284247
C           32.18448630812581        0.00250382771438        0.01183738618497
C           33.58544354633990       -0.01832552306383       -0.00534949489097
C           34.80495944595513       -0.03988283634125       -0.00710470964178
C           36.11884079630070       -0.05198041542928       -0.00931095647874
C           37.39315400686758       -0.04195500398270       -0.01408326605848
C           38.60025207874206       -0.02271038780330       -0.02025167868270
C           39.87563495887304        0.00093195644246       -0.00511865701001
C           40.97756264203954       -0.00153927785005        0.01346287894714
C           50.00762443779898       -0.00766306642588        0.01400162731414
C           51.24504322255964       -0.01907799113470       -0.00506186742961
C           52.42800648997279       -0.03991790055170       -0.00717668126310
C           53.74343218000394       -0.05208037722834       -0.00942381303050
C           55.01583778477480       -0.04189281897030       -0.01401376683048
C           56.22353534641201       -0.02284353286384       -0.02023807099644
C           57.54415121837801        0.00175831363939       -0.00480613975224
C           58.71787069360612        0.00345075705967        0.01255590963038
Co          45.46871824314924       -0.02135201721455        0.01410434053921
C           42.14430467280192        0.01803053496340       -0.00964212816308
C           42.70929599890950        1.17040006204699        0.30533756049160
C           42.04180883772223        2.44388033855052        0.56339125569154
C           42.98724705802078        3.32535770494681        0.86781923830396
C           44.27869792202033        2.64172201824358        0.82075693955805
N           44.09890890552368        1.27883704226933        0.45670031746163
C           45.47233403495166        3.22398365994756        1.10396129142295
C           45.50124822001410        4.64373048121914        1.52657114788609
C           46.00164709876287        5.62467182201451        0.65859664027607
C           46.04554580019254        6.96010505148037        1.05707957545391
C           45.59061805117270        7.33584102927251        2.33381569054719
C           45.61871977774330        8.74622496202248        2.76804588420846
O           46.07721296460329        9.63701805907880        2.03571175593773
C           45.09880669870133        6.35048421785599        3.20021975254354
C           45.05517708565087        5.01524362433029        2.80019708594814
C           46.75857095442451        2.52001404450874        1.01684752134824
C           48.02279134528930        3.05751019348005        1.51613927878630
C           48.98248609703657        2.18517597302663        1.21727017310171
N           46.93010644505249        1.35765236045873        0.43640718982310
C           48.29630602303946        1.10656216983627        0.53683002195477
C           48.76672428920853        0.02171491260759       -0.01380384609473
C           48.16844757960967       -1.06614954320318       -0.67712755566389
C           48.72818531736271       -1.93941313137847       -1.52599261538573
C           47.70440775838347       -2.89822600874484       -1.85292683871652
C           46.59734524427925       -2.54634680838492       -1.17782769999063
N           46.82695069295764       -1.37197669955592       -0.41358718075882
C           45.35307172550492       -3.33313552905729       -1.15768403989397
C           45.41145023154085       -4.77247485478444       -1.51404408208390
C           46.17736242042285       -5.65455773028965       -0.73783129084196
C           46.24925435514837       -7.00680062368469       -1.07199079521968
C           45.56164910989799       -7.50009324295080       -2.19183073978981
C           45.63994133200223       -8.93446474298941       -2.53085413986069
O           45.02942977106371       -9.40779014888363       -3.50535280435468
C           44.80310263089051       -6.61319320112955       -2.97694819279479
C           44.73094127065272       -5.26055663909222       -2.64141844735410
C           44.17468653476248       -2.77891088893963       -0.79873342772649
C           42.90224198586383       -3.47597390210344       -0.67705234993946
C           42.00456445658812       -2.55022489385870       -0.36110708386512
C           42.71373560462547       -1.27065028822062       -0.27647609371387
N           43.97900106566620       -1.39631424183123       -0.52660220302042
H           40.98594432906685        2.67817288026079        0.52125393629333
H           42.80016142019707        4.36442393982052        1.10158601952808
H           46.35525782195494        5.34962799698865       -0.32910255414219
H           46.43336674269375        7.70261288909331        0.36849069776997
H           45.22142221175389        9.01278998792786        3.75462062178476
H           44.74761293899154        6.61874340129323        4.18915466788285
H           44.67539997924268        4.26569400061817        3.48218370232933
H           48.17831685689242        3.99067710510243        2.03480911418023
H           50.03157045520914        2.30689181983112        1.45556471563150
H           49.74812685668434       -1.94708318343210       -1.87862016183133