169
 energy: -303.995581181824 gnorm: 1.012471825932 xtb: 6.5.1 (b24c23e)
Cu          23.68644000000000        0.01222100000000       -0.00953700000000
C           20.32040500000000       -0.10193100000000       -0.04147400000000
C           20.98334400000000       -1.26035700000000        0.01608000000000
C           20.33170800000000       -2.56328700000000        0.07489100000000
C           21.27156600000000       -3.48365900000000        0.18181700000000
C           22.57772800000000       -2.81088400000000        0.19577000000000
N           22.40156900000000       -1.39797000000000        0.08583400000000
C           23.76662300000000       -3.42881600000000        0.34931100000000
C           23.80239900000000       -4.90000900000000        0.49965500000000
C           24.00767200000000       -5.47646800000000        1.76019400000000
C           24.03634100000000       -6.86777100000000        1.88119200000000
N           23.86368000000000       -7.65159900000000        0.78346700000000
C           23.66173900000000       -7.11664800000000       -0.45028900000000
C           23.62840000000000       -5.72997800000000       -0.61605600000000
C           25.06086500000000       -2.69806600000000        0.38920100000000
C           26.35088200000000       -3.33575800000000        0.67866500000000
C           27.28551000000000       -2.41151700000000        0.59488600000000
N           25.20272200000000       -1.43390400000000        0.13005200000000
C           26.60188500000000       -1.17378700000000        0.24191000000000
C           27.19827100000000        0.00338200000000       -0.01035600000000
C           26.44040700000000        1.21924800000000       -0.38365600000000
C           26.98370100000000        2.29270100000000       -0.94351800000000
C           25.94102900000000        3.29227400000000       -1.06161400000000
C           24.82937400000000        2.76550200000000       -0.56258500000000
N           25.05412400000000        1.42844700000000       -0.11211900000000
C           23.54426700000000        3.49875600000000       -0.42567600000000
C           23.56711500000000        4.98139700000000       -0.47287100000000
C           22.90540200000000        5.67533000000000       -1.49641700000000
C           22.94961300000000        7.07123700000000       -1.51920500000000
N           23.63624700000000        7.74842200000000       -0.56045400000000
C           24.29544900000000        7.10053900000000        0.43608100000000
C           24.27654800000000        5.70520500000000        0.49653700000000
C           22.37737700000000        2.84997700000000       -0.24835500000000
C           21.06517000000000        3.46627300000000       -0.05849200000000
C           20.20292900000000        2.47274200000000        0.03531500000000
C           20.95532100000000        1.22479600000000       -0.08006200000000
N           22.22368400000000        1.43196400000000       -0.24554700000000
H           19.23725500000000       -0.12991300000000       -0.04166900000000
H           19.26732300000000       -2.75782300000000        0.04974200000000
H           21.08303000000000       -4.54664000000000        0.25941200000000
H           24.14407300000000       -4.85505700000000        2.63663700000000
H           24.19515600000000       -7.32491500000000        2.84865200000000
H           23.52656700000000       -7.76820900000000       -1.30321600000000
H           23.46696500000000       -5.30698700000000       -1.59978800000000
H           26.52897600000000       -4.37648000000000        0.91340300000000
H           28.34326799999999       -2.57464200000000        0.74892400000000
H           28.01688000000000        2.41780600000000       -1.23717600000000
H           26.05901400000000        4.29138700000000       -1.45938900000000
H           22.36475900000000        5.14065700000000       -2.26668800000000
H           22.43895300000000        7.61670200000000       -2.30152900000000
H           24.83370600000000        7.66879000000000        1.18322100000000
H           24.80204200000000        5.19410400000000        1.29377300000000
H           20.82064500000000        4.51861300000000        0.00233500000000
H           19.13581000000000        2.57725200000000        0.18156000000000
Cu          52.68289200000000       -0.00483600000000       -0.00700300000000
C           56.04892600000000        0.09509900000000       -0.07074800000000
C           55.38598799999999        1.22021800000000       -0.35247600000000
C           56.03762300000000        2.48396500000000       -0.67501300000000
C           55.09776500000000        3.39566700000000       -0.84029000000000
C           53.79160300000000        2.75601100000000       -0.63134100000000
N           53.96776299999999        1.37216800000000       -0.32574300000000
C           52.60270799999999        3.39189000000000       -0.66408600000000
C           52.56693299999999        4.84324200000000       -0.94796400000000
C           52.36166000000000        5.76128400000000        0.09052700000000
C           52.33299000000000        7.12766600000000       -0.19820200000000
N           52.50565200000000        7.55848800000000       -1.47639600000000
C           52.70759199999999        6.68794800000000       -2.50132900000000
C           52.74093100000000        5.31298300000000       -2.25678200000000
C           51.30846600000000        2.70430300000000       -0.41346500000000
C           50.01845000000000        3.39860700000000       -0.32190400000000
C           49.08382200000000        2.48993200000000       -0.13335400000000
N           51.16660999999999        1.41940500000000       -0.29388300000000
C           49.76744700000000        1.20304500000000       -0.11123100000000
C           49.17106100000000        0.00338200000000       -0.01035600000000
C           49.92892500000000       -1.26849400000000       -0.01403500000000
C           49.38562999999999       -2.45834900000000       -0.23762400000000
C           50.42830200000000       -3.44907800000000       -0.06000700000000
C           51.53995800000000       -2.79997600000000        0.26431500000000
N           51.31520700000000       -1.38971000000000        0.30659300000000
C           52.82506399999999       -3.46175200000000        0.60849300000000
C           52.80221699999999       -4.89406900000000        0.99439200000000
C           53.46392899999999       -5.85560700000000        0.21681100000000
C           53.41971900000000       -7.19784200000000        0.60084600000000
N           52.73308500000000       -7.56703200000000        1.71506500000000
C           52.07388200000000       -6.65740700000000        2.48019000000000
C           52.09278299999999       -5.30477000000000        2.13236100000000
C           53.99195499999999       -2.78944400000000        0.58953100000000
C           55.30416200000000       -3.32391800000000        0.95037200000000
C           56.16640300000000       -2.34603200000000        0.75127200000000
C           55.41401100000000       -1.18553600000000        0.27805700000000
N           54.14564799999999       -1.43186800000000        0.17995100000000
H           57.13207600000000        0.12181600000000       -0.07907000000000
H           57.10200900000000        2.66278700000000       -0.75563400000000
H           55.28630099999999        4.43529100000000       -1.07509300000000
H           52.22525800000000        5.42152900000000        1.10977700000000
H           52.17417600000000        7.84633800000000        0.59455900000000
H           52.84276500000000        7.06338900000000       -3.50684400000000
H           52.90236700000000        4.62225900000000       -3.07504100000000
H           49.84035500000000        4.46262000000000       -0.39988100000000
H           48.02606400000000        2.69079500000000       -0.03339700000000
H           48.35245100000000       -2.66342600000000       -0.48222400000000
H           50.31031800000000       -4.52068000000000       -0.15012200000000
H           54.00457300000000       -5.56797500000000       -0.67563600000000
H           53.93037800000000       -7.94719300000000        0.01090200000000
H           51.53562500000000       -6.98389200000000        3.36026600000000
H           51.56729000000000       -4.58396300000000        2.74656500000000
H           55.54868600000000       -4.31311700000000        1.31452300000000
H           57.23352200000000       -2.40350900000000        0.92158500000000
C           30.78518200000000        0.01644200000000       -0.00773800000000
C           29.53291200000000       -0.00273900000000       -0.01208700000000
C           32.09885000000000        0.01567600000000       -0.00580600000000
C           33.60198400000000       -0.00273900000000       -0.01208700000000
C           44.10131400000000        0.01644200000000       -0.00773800000000
C           42.84904399999999       -0.00273900000000       -0.01208700000000
C           45.41498299999999        0.01567600000000       -0.00580600000000
C           46.91811600000000       -0.00273900000000       -0.01208700000000
Cu          38.10930600000000        0.02808200000000       -0.04692600000000
C           34.74166400000000       -0.00647900000000        0.02292700000000
C           35.39698500000000       -0.80477200000000        0.88564300000000
C           34.75610800000000       -1.62638500000000        1.91439900000000
C           35.69242100000000       -2.31073800000000        2.54099600000000
C           36.98967099999999       -1.97113600000000        1.94744900000000
N           36.81189500000000       -1.00982600000000        0.90401900000000
C           38.17406300000000       -2.49885100000000        2.32411900000000
C           38.21012800000000       -3.53525300000000        3.38218800000000
C           37.68254800000000       -4.81296300000000        3.14550300000000
C           37.74210600000000       -5.77753100000000        4.15407400000000
N           38.31265600000000       -5.47819100000000        5.35147700000000
C           38.83679700000000       -4.24927200000000        5.60433600000000
C           38.79717599999999       -3.25510700000000        4.62385600000000
C           39.47069999999999       -2.08478000000000        1.72976800000000
C           40.73882300000000       -2.78795200000000        1.96243000000000
C           41.69085700000000       -2.11897700000000        1.34404200000000
N           39.63854800000000       -1.03076100000000        0.99332700000000
C           41.03627000000000       -0.98419400000000        0.70613300000000
C           41.65123300000000       -0.00647900000000        0.02292700000000
C           40.90017200000000        1.09378400000000       -0.61671600000000
C           41.43266700000000        2.25120800000000       -0.98719000000000
C           40.40055800000000        2.99424600000000       -1.68549000000000
C           39.30954499999999        2.23695000000000       -1.69723500000000
N           39.53500199999999        1.00139900000000       -1.02088700000000
C           38.05683200000000        2.57787600000000       -2.41363300000000
C           38.11979800000000        3.56696500000000       -3.51793200000000
C           38.92678400000000        3.32179700000000       -4.63819100000000
C           38.99124700000000        4.27165500000000       -5.66037500000000
N           38.28099200000000        5.42701700000000       -5.56398700000000
C           37.49718499999999        5.69413000000000       -4.48563500000000
C           37.40477400000000        4.77179600000000       -3.44072100000000
C           36.88552100000000        1.99443600000000       -2.09343900000000
C           35.61060300000000        2.19522100000000       -2.77477000000000
C           34.72287800000000        1.48677200000000       -2.10711000000000
C           35.41976400000000        0.82321600000000       -0.99975200000000
N           36.68384500000000        1.11295600000000       -0.98837000000000
H           33.70143300000000       -1.68206100000000        2.14841400000000
H           35.50581900000000       -2.99497400000000        3.35834700000000
H           37.23272000000000       -5.05736500000000        2.19108600000000
H           37.33628000000000       -6.76574800000000        3.98383500000000
H           39.28546999999999       -4.04381500000000        6.56686900000000
H           39.21734400000000       -2.27805800000000        4.82885900000000
H           40.88824399999999       -3.69264000000000        2.53698600000000
H           42.73971400000000       -2.38401400000000        1.33219900000000
H           42.45443800000000        2.57192400000000       -0.83373800000000
H           40.51494000000000        3.96669800000000       -2.14668000000000
H           39.49598300000000        2.40386700000000       -4.71957600000000
H           39.60758700000000        4.09043000000000       -6.53073000000000
H           36.94766500000000        6.62473900000000       -4.43756000000000
H           36.78713400000000        4.99465600000000       -2.57934300000000
H           35.40694600000000        2.79008300000000       -3.65537800000000
H           33.67314600000000        1.41548300000000       -2.35805000000000
169
 energy: -304.316293318394 gnorm: 0.482250339127 xtb: 6.5.1 (b24c23e)
Cu          23.69048251639187        0.01064833628167       -0.01126800010009
C           20.32115684753523       -0.08599722412056       -0.04202935138226
C           20.98875029745457       -1.26181108773522        0.01634706473907
C           20.33099881871544       -2.55735899327933        0.07460514032292
C           21.28055663835603       -3.48599138336558        0.18230281378736
C           22.57620381246209       -2.80487713686514        0.19465824282491
N           22.38290917377869       -1.41631589450421        0.08684593828670
C           23.78179314747639       -3.42324607293586        0.35003727658331
C           23.80641482739088       -4.89961701886339        0.49991999242380
C           24.00839468300244       -5.47890806558197        1.75568440501173
C           24.03376782830424       -6.86564683905239        1.86588840579550
N           23.86370905907955       -7.65080179520014        0.78335767328166
C           23.66373733443611       -7.11102421334669       -0.43560207907193
C           23.62854106535014       -5.73082644975531       -0.61060189925050
C           25.05602539783960       -2.71294843462652        0.39085798303046
C           26.33927588877015       -3.34573451121720        0.67873042502791
C           27.28622240724333       -2.40591106451292        0.59364694355809
N           25.21798149955897       -1.43061787770048        0.13225646097482
C           26.61699289490418       -1.16912697441593        0.24187179758481
C           27.21095068208711        0.01691425079123       -0.01633354442487
C           26.44378254749985        1.20746071442525       -0.37247343855600
C           26.98757561944360        2.31445118863414       -0.95065620343923
C           25.96298400951859        3.29389866377572       -1.06450753267109
C           24.82122782471250        2.75452985783354       -0.55167413305614
N           25.06439587999727        1.43124591447464       -0.11476391961756
C           23.55814681336753        3.48915114119229       -0.42491702231423
C           23.57396420893163        4.97678423838949       -0.47575482089478
C           22.90778206271174        5.67540941954820       -1.49100893397686
C           22.95809449666434        7.06666168093123       -1.50617761442872
N           23.63617283124422        7.74735722129826       -0.56064617309930
C           24.28620055865759        7.09573155852703        0.42384243111985
C           24.27497508829412        5.70562870141166        0.49184574692771
C           22.37631120659910        2.84844789114995       -0.24725258244486
C           21.07217647350594        3.46567468983710       -0.06007206164319
C           20.19382662201573        2.46191685932633        0.03612151209876
C           20.93711763765100        1.21686846350365       -0.07981538029840
N           22.22257894512492        1.44275063156735       -0.24277317920527
H           19.23774631499584       -0.12480093815902       -0.04133027695982
H           19.26740789913391       -2.75062663631075        0.04897855025371
H           21.09212326804584       -4.54748060744491        0.25963457480586
H           24.14374598401700       -4.85608704701327        2.63451559139619
H           24.19352248178863       -7.32746424144745        2.83938577475232
H           23.52821705373060       -7.76855305491859       -1.29357658149000
H           23.46762225573056       -5.30730843685459       -1.59728633750068
H           26.52142631253785       -4.38111694404085        0.91347504753787
H           28.34318077645372       -2.56644022557462        0.74733031230523
H           28.01855828335255        2.42335038472087       -1.24016341720168
H           26.06407054723880        4.29134830863352       -1.46152956371999
H           22.36615491928131        5.14099352084477       -2.26488920364854
H           22.44459699878389        7.61785701231461       -2.29349854981411
H           24.82812344582066        7.66973508256401        1.17504982368891
H           24.80101077882176        5.19452800657277        1.29188818361762
H           20.82919367747956        4.51779336851660        0.00124756128405
H           19.13200500016516        2.57097874002528        0.18174049720596
Cu          52.67888641938135       -0.00372268465222       -0.00902160603376
C           56.04814218300070        0.07975622344211       -0.06667548263464
C           55.38064958305917        1.22176038818048       -0.35260943269965
C           56.03839724447442        2.47829214371459       -0.67354473693235
C           55.08884280309131        3.39808309847073       -0.84049737313210
C           53.79321591673001        2.74986772354743       -0.63059188008906
N           53.98655953822741        1.39023209147678       -0.33052319991962
C           52.58735489576797        3.38666027381031       -0.66172832425179
C           52.56286080777278        4.84291968251227       -0.94758999780993
C           52.36093248928118        5.76229895942667        0.08550632772771
C           52.33556690847117        7.12118754420958       -0.21222939001428
N           52.50562974828219        7.55767747418978       -1.47626343603900
C           52.70559676545160        6.68683662739759       -2.48563803857712
C           52.74079114985716        5.31536598255986       -2.25180312089579
C           51.31319100598198        2.71894217390309       -0.41620162037607
C           50.02996460716503        3.40824244047178       -0.32471453573121
C           49.08287680068405        2.48453123806213       -0.13290037128559
N           51.15054376347463        1.41663111783605       -0.29078545087611
C           49.75116033432464        1.19874838124578       -0.11001399686037
C           49.15510276340927       -0.01104832922532       -0.01249047579582
C           49.92445272441066       -1.25411412915018       -0.00663904010278
C           49.38144539039570       -2.48155432740202       -0.23825962763059
C           50.40618256616197       -3.45145821981309       -0.06235473990718
C           51.54787205156596       -2.78605105960120        0.27156039891604
N           51.30408492789300       -1.39300828352814        0.30524205374026
C           52.81114827480835       -3.45223077876845        0.60641884886196
C           52.79533267772189       -4.89046493485801        0.99027288129858
C           53.46154558140415       -5.85409357653868        0.22200674400837
C           53.41123653324285       -7.18967096387212        0.61198301788758
N           52.73316036720406       -7.56605449036828        1.71456812755152
C           52.08313377415559       -6.65636816480507        2.46708415661625
C           52.09435024874168       -5.30653102012887        2.12799122691275
C           53.99308558920347       -2.78769507985922        0.59015045469351
C           55.29723928976971       -3.32389487222042        0.94866562371019
C           56.17555302950456       -2.33551030018438        0.74900256263398
C           55.43221097353327       -1.17801314863814        0.27601571458910
N           54.14701786241766       -1.44162200991524        0.18569731591735
H           57.13157482504485        0.11703191603042       -0.07727682314424
H           57.10195792466850        2.65571151178251       -0.75427507570698
H           55.27722049568973        4.43618610304316       -1.07512101428229
H           52.22558354465784        5.42189656682935        1.10745174066107
H           52.17580902479337        7.84608067249727        0.58495028989195
H           52.84111281819530        7.06651676046678       -3.49771691694406
H           52.90170666155228        4.62329108188928       -3.07274106577930
H           49.84787451760643        4.46709961867524       -0.40117686066335
H           48.02597874216179        2.68254082105049       -0.03255646540282
H           48.35057709459227       -2.66974822641884       -0.48354322299980
H           50.30524521023926       -4.52125386494098       -0.15220658375371
H           54.00317543519991       -5.56777069709616       -0.67381834041329
H           53.92473258412683       -7.94595824702923        0.01892221849881
H           51.54120829781601       -6.98717105333530        3.35272035667232
H           51.56832075081455       -4.58491596863667        2.74488976576984
H           55.54016178119689       -4.31268720709561        1.31326451934988
H           57.23735976036572       -2.39748156647440        0.91994498208050
C           30.77336527675073        0.01690336682644       -0.00759070139517
C           29.51169529277066       -0.00188009844089       -0.01341450426354
C           32.12042087673105        0.01552564595714       -0.00474463481975
C           33.45131162798125        0.00228417817229       -0.01739505204035
C           44.16530094153293        0.01798365495686       -0.00967991140393
C           42.92247689214415        0.00816387028461       -0.02030177574711
C           45.50598590366305        0.01358640398845       -0.00589232963928
C           46.86990072777019       -0.00297151684473       -0.01200245115726
Cu          38.11636958196406        0.02636417487095       -0.04382063102079
C           34.75910677014804        0.00029220779014        0.00977059144254
C           35.42073842564113       -0.81572743218852        0.89999467252334
C           34.75777370720095       -1.61908940392249        1.90800671472816
C           35.70459620998542       -2.31464500649696        2.54302206744732
C           36.98766367190968       -1.96939380103693        1.94684210980046
N           36.79667629345659       -1.02495210804070        0.91792253108639
C           38.18858360033608       -2.49928795561628        2.32173322797119
C           38.21445723554206       -3.53655100832225        3.38060498176461
C           37.68371295838271       -4.81042487315989        3.15005636793886
C           37.74872070690871       -5.76476427794831        4.16058067539328
N           38.31263636792655       -5.47766648330884        5.35091210209552
C           38.82940323758528       -4.25619886861137        5.59223438160031
C           38.79634494727942       -3.25983631761343        4.62166306777664
C           39.46220145590084       -2.10076848819748        1.74596039763855
C           40.72324681601411       -2.79644469549948        1.97256783947017
C           41.68521467750352       -2.11251903848789        1.34043103546919
N           39.64270935215126       -1.03481559103999        0.99261135615572
C           41.01338598454170       -0.99762156880059        0.71303397419441
C           41.61268705162783        0.00474483476357        0.01675701656883
C           40.87663243962184        1.08872514267061       -0.62111149901888
C           41.43153505708025        2.26994874861794       -0.99892386341469
C           40.42035314776487        2.99927694677111       -1.68614238796437
C           39.29982681403789        2.22541626032383       -1.70084983923367
N           39.53401545547770        1.01030345684520       -1.02253190253155
C           38.07028110134507        2.57321814738262       -2.40856773525542
C           38.12584868788580        3.56711338036335       -3.51268659159313
C           38.92508290611888        3.32583707054815       -4.63570562148557
C           38.98096121068530        4.27758501930864       -5.64960387576045
N           38.28091029458572        5.42629520102964       -5.56313928660690
C           37.50647482880620        5.68154662755123       -4.48984780761928
C           37.40733879447171        4.76800742724027       -3.44403728236018
C           36.88532185863632        1.99512489491660       -2.09553746538432
C           35.61888754315776        2.19712875515989       -2.77350360855525
C           34.71523656086417        1.47791485807899       -2.09885982321341
C           35.41608357499072        0.82543927118290       -1.00471762576709
N           36.68896688036673        1.12219370345140       -0.99903047537727
H           33.70188005471199       -1.67462837335907        2.13988913187739
H           35.51490451438455       -2.99654369457688        3.35868373436957
H           37.23394909688698       -5.05623939841498        2.19296156796555
H           37.34085342736660       -6.76052076412044        3.99069105627068
H           39.28096528668024       -4.05096892931232        6.56203748185531
H           39.21632596215987       -2.28008214608761        4.82786055611821
H           40.88077456203300       -3.69649422721892        2.54100585161923
H           42.73645529638681       -2.37536993798252        1.32644147928382
H           42.45345759148459        2.57611486021995       -0.83468417420253
H           40.52002995628089        3.96918377954004       -2.14496577925389
H           39.49473278626269        2.40559967318902       -4.71880688883796
H           39.60142238369268        4.09702135333257       -6.52678139627676
H           36.95394313398988        6.61955054393117       -4.44314373369198
H           36.78880502637507        4.99344522106893       -2.58075752426418
H           35.41513194570150        2.79064134086577       -3.65371385550575
H           33.66939852615702        1.40979889303591       -2.35113338708550
169
 energy: -304.435189154983 gnorm: 0.265071538894 xtb: 6.5.1 (b24c23e)
Cu          23.69910398429985        0.00955715156272       -0.01335295318219
C           20.32427469516626       -0.06794865505979       -0.04254730676185
C           20.99447276648008       -1.26469528943473        0.01639369289680
C           20.33219991985301       -2.55098938853359        0.07448268676131
C           21.29156106472680       -3.48702611013098        0.18266168514601
C           22.57385558548819       -2.79759734728366        0.19290396930638
N           22.35976798201433       -1.43832631580070        0.08837631939911
C           23.80180658110126       -3.41194649440871        0.35031818518415
C           23.81232991393035       -4.89480080007529        0.49989733682948
C           24.00997116550326       -5.47990917123925        1.75050237708413
C           24.03080192103931       -6.86368703591189        1.84908297535826
N           23.86389643149073       -7.65162766866893        0.78342948353610
C           23.66559537887666       -7.10464483218131       -0.41908906832833
C           23.62907238587615       -5.72952739067596       -0.60429813629718
C           25.05394281484730       -2.72628739781526        0.39244215511057
C           26.32834072905879       -3.35332008555331        0.67742508798114
C           27.28521184200133       -2.40233100888800        0.59182381516850
N           25.24233493877641       -1.42256390255570        0.13538861736706
C           26.63810210428571       -1.16581091074931        0.24216744359835
C           27.23751408841161        0.03498381887516       -0.02600806253529
C           26.45915937228744        1.19735214678555       -0.35989273426261
C           26.99241140547312        2.34246892026371       -0.95592936334306
C           25.99162153672267        3.29276169119626       -1.06280697093323
C           24.81980912458221        2.74065545541119       -0.53730824447059
N           25.08596614495066        1.43418366707788       -0.12108344242664
C           23.58068937881380        3.47166688330156       -0.42395034629667
C           23.58623143531212        4.96561195308914       -0.48144599413996
C           22.91185899575836        5.67196753924212       -1.48472771545239
C           22.96705953593975        7.06013664015773       -1.49092845339335
N           23.63632810091120        7.74698978198963       -0.56099947419255
C           24.27570120504887        7.08981303371245        0.41036534230332
C           24.27471358539651        5.70348175322174        0.48551330541212
C           22.37472870159271        2.84156825948394       -0.24409682071946
C           21.07994017914752        3.46012100330078       -0.06213680572711
C           20.18606334588603        2.45120511539957        0.03500261858838
C           20.91614820188761        1.20865079485423       -0.07933855467879
N           22.22195481535285        1.45541573761346       -0.23682996878460
H           19.23996078052996       -0.11866037615543       -0.03970315992296
H           19.26869046150793       -2.73993745362445        0.04785339406796
H           21.10662277907822       -4.54801121609598        0.25982502680635
H           24.14369033048494       -4.85797712239974        2.63120345812207
H           24.19076585829087       -7.33093987860585        2.82469524564119
H           23.53064044583068       -7.76806594636052       -1.27823332008964