122
 energy: -234.511805539832 gnorm: 0.649421397647 xtb: 6.5.1 (b24c23e)
Zn          17.27699700000000        0.02886500000000        0.00191000000000
C           13.94025100000000       -0.09613300000000       -0.07578600000000
C           14.60344800000000       -1.24746600000000       -0.21850500000000
C           13.95274100000000       -2.54599700000000       -0.34453900000000
C           14.89323000000000       -3.45910500000000       -0.49896900000000
C           16.19864800000000       -2.78447200000000       -0.49014000000000
N           16.02164200000000       -1.37970600000000       -0.30278300000000
C           17.39111600000000       -3.39453100000000       -0.65275400000000
C           17.43850000000000       -4.85642500000000       -0.88200800000000
C           17.95380000000000       -5.70586400000000        0.10609200000000
C           18.01256100000000       -7.08494700000000       -0.11135100000000
C           17.55977300000000       -7.63710800000000       -1.32409100000000
N           17.61563800000000       -9.05729800000000       -1.55073200000000
O           17.17118800000000       -9.59458300000000       -2.73762900000000
O           18.05527400000000       -9.82553800000000       -0.66961900000000
C           17.05053000000000       -6.77856200000000       -2.31442600000000
C           16.99249500000000       -5.39936800000000       -2.09569500000000
C           18.68412900000000       -2.66134100000000       -0.62364100000000
C           19.97071000000000       -3.26043300000000       -1.00020000000000
C           20.90505300000000       -2.34591700000000       -0.83597900000000
N           18.82487900000000       -1.42739800000000       -0.24603300000000
C           20.22207000000000       -1.15202300000000       -0.35234700000000
C           20.81548900000000        0.00000000000000        0.00000000000000
C           20.05219500000000        1.17493800000000        0.47769100000000
C           20.58462500000000        2.18781200000000        1.14969500000000
C           19.54103500000000        3.17682700000000        1.33782500000000
C           18.44055100000000        2.70437000000000        0.76367300000000
N           18.67345500000000        1.41545300000000        0.19277200000000
C           17.15861200000000        3.44954000000000        0.66962200000000
C           17.17610699999999        4.91723700000000        0.88146800000000
C           16.51396400000000        5.48573900000000        1.97972700000000
C           16.55105600000000        6.86709300000000        2.18822300000000
C           17.25541600000000        7.70369200000000        1.30478300000000
N           17.29018600000000        9.12618100000000        1.52145500000000
O           16.68508200000000        9.67989200000000        2.62693700000000
O           17.87390900000000        9.87934600000000        0.71424300000000
C           17.92597800000000        7.12721100000000        0.20999400000000
C           17.88902300000000        5.74532200000000        0.00313100000000
C           15.99649100000000        2.82342000000000        0.40242500000000
C           14.68632800000000        3.45633600000000        0.25938100000000
C           13.82487400000000        2.47679200000000        0.06621200000000
C           14.57628600000000        1.22265800000000        0.07085800000000
N           15.84280100000000        1.41241000000000        0.26518400000000
H           12.85676900000000       -0.12431200000000       -0.06994000000000
H           12.88859700000000       -2.74387400000000       -0.31539500000000
H           14.70535900000000       -4.51909200000000       -0.61070200000000
H           18.30775700000000       -5.29906300000000        1.04559600000000
H           18.41312700000000       -7.71890700000000        0.66874200000000
H           16.69808500000000       -7.17223900000000       -3.25917300000000
H           16.60119700000000       -4.75347300000000       -2.87203100000000
H           20.14357500000000       -4.26851500000000       -1.35412700000000
H           21.96064600000000       -2.48518200000000       -1.02895700000000
H           21.61122700000000        2.27906400000000        1.47711600000000
H           19.65119000000000        4.13333400000000        1.83298000000000
H           15.97293300000000        4.85722800000000        2.67683400000000
H           16.02911400000000        7.28012800000000        3.04189800000000
H           18.48424700000000        7.74348300000000       -0.48231600000000
H           18.41591000000000        5.31953500000000       -0.84234200000000
H           14.44295800000000        4.50990100000000        0.29971600000000
H           12.75834800000000        2.59506400000000       -0.07397200000000
Zn          28.05110500000000       -0.02747500000000       -0.00905300000000
C           31.38785100000000        0.11753600000000       -0.03421100000000
C           30.72465400000000        1.23838300000000        0.26518500000000
C           31.37536100000000        2.48943300000000        0.63524300000000
C           30.43487100000000        3.39382600000000        0.83445700000000
C           29.12945400000000        2.76510400000000        0.58968200000000
N           29.30646000000000        1.39257600000000        0.23664100000000
C           27.93698600000000        3.39162700000000        0.66768000000000
C           27.88960200000000        4.83282400000000        1.00330200000000
C           27.37430100000000        5.24979200000000        2.23781600000000
C           27.31554100000000        6.60979100000000        2.55333600000000
C           27.76832800000000        7.57639600000000        1.63611400000000
N           27.71246400000000        8.97795200000000        1.95852100000000
O           28.15691400000000        9.92107500000000        1.05967800000000
O           27.27282800000000        9.35976000000000        3.06340800000000
C           28.27757099999999        7.15182200000000        0.39611200000000
C           28.33560700000000        5.79123700000000        0.08174500000000
C           26.64397300000000        2.70101300000000        0.41975300000000
C           25.35739200000000        3.39759000000000        0.29530100000000
C           24.42304900000000        2.48822000000000        0.10463500000000
N           26.50322200000000        1.41551000000000        0.30713200000000
C           25.10603100000000        1.20008900000000        0.10532100000000
C           24.51261300000000        0.00000000000000        0.00000000000000
C           25.27590700000000       -1.26833100000000        0.00228600000000
C           24.74347700000000       -2.45928100000000        0.24547600000000
C           25.78706600000000       -3.44668000000000        0.04903900000000
C           26.88755100000000       -2.79340900000000       -0.30607100000000
N           26.65464700000000       -1.38446500000000       -0.35202900000000
C           28.16949000000000       -3.44894800000000       -0.67266800000000
C           28.15199400000000       -4.88899700000000       -1.02660400000000
C           28.81413800000000       -5.82782400000000       -0.22163800000000
C           28.77704600000000       -7.18657300000000       -0.54630400000000
C           28.07268500000000       -7.63088200000000       -1.67897900000000
N           28.03791600000000       -9.03083100000000       -2.01149000000000
O           28.64301900000000       -9.95865400000000       -1.19428100000000
O           27.45419300000000       -9.42637500000000       -3.04221500000000
C           27.40212400000000       -6.68595900000000       -2.47773700000000
C           27.43907900000000       -5.32732600000000       -2.15135700000000
C           29.33161000000000       -2.76832000000000       -0.68560100000000
C           30.64177400000000       -3.30142400000000       -1.05552700000000
C           31.50322700000000       -2.32091600000000       -0.86731400000000
C           30.75181500000000       -1.16002300000000       -0.39275800000000
N           29.48530100000000       -1.40879600000000       -0.28375900000000
H           32.47133200000000        0.14146700000000       -0.01822500000000
H           32.43950400000000        2.66194500000000        0.73645500000000
H           30.62274300000000        4.41837400000000        1.12832700000000
H           27.02034500000000        4.52039600000000        2.95624200000000
H           26.91497400000000        6.90499600000000        3.51422400000000
H           28.63001700000000        7.87101800000000       -0.33209400000000
H           28.72690500000000        5.48356100000000       -0.88013500000000
H           25.18452700000000        4.46483200000000        0.34518500000000
H           23.36745600000000        2.68968300000000       -0.02204400000000
H           23.71687500000000       -2.66664500000000        0.51479300000000
H           25.67691200000000       -4.51906400000000        0.14941800000000
H           29.35516900000000       -5.50655400000000        0.66027500000000
H           29.29898700000000       -7.88956700000000        0.09021700000000
H           26.84385500000000       -6.99768100000000       -3.35061400000000
H           26.91219200000000       -4.61558600000000       -2.77549300000000
H           30.88514400000000       -4.29324600000000       -1.41317800000000
H           32.56975400000000       -2.37799600000000       -1.04161800000000
C           22.05309200000000        0.00000000000000        0.00000000000000
C           23.27501000000000        0.00000000000000        0.00000000000000
122
 energy: -234.703427650695 gnorm: 0.354629459140 xtb: 6.5.1 (b24c23e)
Zn          17.27831716806677        0.02493369330827        0.00063206348937
C           13.94007264557358       -0.07763158528511       -0.07399763084072
C           14.60741823810337       -1.24886951131979       -0.21827090408914
C           13.95194485778394       -2.53928107907731       -0.34368956014061
C           14.90332562979037       -3.46194362903927       -0.50028382363788
C           16.19592209540960       -2.78080041318373       -0.49085107742209
N           15.99796826528804       -1.40456489855751       -0.30265054271696
C           17.40587850256152       -3.39541542197450       -0.65511252256047
C           17.44489596230076       -4.86008658595750       -0.88521136101877
C           17.95514189514238       -5.71511965611721        0.09872334138326
C           18.01096227057768       -7.08928562728799       -0.11668393746508
C           17.55799062819420       -7.64164971030157       -1.33005835264562
N           17.61040951186764       -9.06692924095676       -1.56058834722483
O           17.18994778781484       -9.55148812393058       -2.68381346098734
O           18.04516789576462       -9.80253646662189       -0.69046160034186
C           17.05000749289615       -6.78039986521030       -2.31425408710186
C           16.99245629946495       -5.40807415572707       -2.09228757295649
C           18.67343913085568       -2.69068413222033       -0.62736283002909
C           19.95378622659336       -3.27920208940788       -1.00159040547087
C           20.89387401719502       -2.33990080849824       -0.83281290923957
N           18.82262517488837       -1.43737968448768       -0.25655813613143
C           20.18625929357946       -1.16681098053726       -0.35865360912993
C           20.74958964285078        0.01688734726100        0.00565337981141
C           20.02061670000974        1.18122845293332        0.47002337660701
C           20.58296895500889        2.21451937267255        1.15801355234022
C           19.56435368332669        3.18446614232763        1.34163155709003
C           18.43090300045117        2.70158023521315        0.75199294648282
N           18.66965584831057        1.42669153312927        0.20400546555876
C           17.17298013237868        3.44200429775946        0.66847699094569
C           17.18598391397305        4.91472358020298        0.88617687497149
C           16.51594454650079        5.49164447123185        1.97541332464997
C           16.55084040958286        6.86741229147907        2.18731282563850
C           17.25260714136974        7.70755231506967        1.31012287172719
N           17.28650586807980        9.13534285361864        1.53219913242640
O           16.70963767529721        9.63597390872344        2.57593678863104
O           17.85942297018660        9.85635417626466        0.73309188730582
C           17.92269094296886        7.13018219723877        0.21470483862972
C           17.88917149692071        5.75258992120290        0.01046262066364
C           15.99391040945662        2.82347375684831        0.40252481457152
C           14.69229551676677        3.45474370039282        0.26101566935205
C           13.81164766046941        2.46530669390577        0.06454980659071
C           14.55305445456264        1.21551125673894        0.07029439906328
N           15.83729574548761        1.42739954677921        0.26079165731118
H           12.85698983763041       -0.11579823335948       -0.07030444024468
H           12.88874006531488       -2.73284326330915       -0.31400723674518
H           14.71937470843456       -4.52075409784355       -0.61181014893371
H           18.30652011868928       -5.30329399083191        1.04056642818956
H           18.41157048092317       -7.72415906480239        0.66491052567418
H           16.69901074938829       -7.17695980400617       -3.25892649058540
H           16.60296056696311       -4.75704246820884       -2.86875180470472
H           20.13332049983883       -4.27904171641951       -1.35549444415571
H           21.95315897419071       -2.46945667853858       -1.02405792588462
H           21.60981508871035        2.28498407513324        1.48219221539331
H           19.66052142642846        4.13551776237206        1.83767766699230
H           15.97539388493443        4.86007784019955        2.67361782276000
H           16.03022866539528        7.28386677873519        3.04131659154136
H           18.48157814154585        7.74796679034591       -0.47890323645845
H           18.41385417453030        5.32348525753928       -0.83813851294635
H           14.45557256074736        4.50870019186571        0.30118770707483
H           12.75096436875194        2.58581627953416       -0.07555513347921
Zn          28.04978474686600       -0.02335138835880       -0.00876357660553
C           31.38802914859119        0.09971384935551       -0.03949030509000
C           30.72068357039588        1.23959643015050        0.26592846599589
C           31.37615695309657        2.48288848482138        0.63351199392242
C           30.42477565373503        3.39695088690670        0.83430248845430
C           29.13217979889025        2.76196666258749        0.58764626021398
N           29.33013361524917        1.41557149201844        0.24608465524146
C           27.92222337542734        3.39333114383258        0.66582505869385
C           27.88320589745057        4.83741949216616        1.00170518757289
C           27.37295935391505        5.26113546117361        2.23445542057833
C           27.31713945777585        6.61581309206501        2.55001911652022
C           27.77011053759551        7.58284365180857        1.63228481416680
N           27.71769233785377        8.99057603979942        1.95299504762085
O           28.13815416771468        9.86094553088463        1.09340858105264
O           27.28293415671116        9.34625195622956        3.03546136782259
C           28.27809367143996        7.15346148052547        0.39696092362352
C           28.33564555939797        5.79803043676763        0.08816820762622
C           26.65466276960048        2.72961085830768        0.42730488913459
C           25.37431571280942        3.41551129669064        0.30104981765130
C           24.43422784367984        2.48145564919130        0.10531434205271
N           26.50547613418634        1.42870961539967        0.30111774480475
C           25.14184195957290        1.21616266279398        0.10501932723510
C           24.57851231402654       -0.01777514386115       -0.00109110068399
C           25.30748522771975       -1.27128735182058       -0.00718079000392
C           24.74513297417378       -2.48715885250211        0.24317331181588
C           25.76374767849106       -3.45518892133897        0.04970361194932
C           26.89719882542771       -2.78644331256955       -0.31585289892387
N           26.65844605906944       -1.39909584797228       -0.34582905450932
C           28.15512171967444       -3.44153255458583       -0.67090392588918
C           28.14211740122206       -4.88843248425935       -1.02129634622803
C           28.81215740082036       -5.83168096299571       -0.22785102718309
C           28.77726145845393       -7.18652794154861       -0.54726738518227
C           28.07549408199194       -7.63646286804436       -1.67547631531709
N           28.04159580704279       -9.04335308299202       -2.00496498163269
O           28.61846349008993       -9.89881725199302       -1.22509281154839
O           27.46867906577480       -9.41212819298841       -3.01612040394809
C           27.40541091188565       -6.69047994586495       -2.47448418831288
C           27.43893035354518       -5.33681253890793       -2.14728536155297
C           29.33419085900502       -2.76840736475056       -0.68552876004354
C           30.63580632840638       -3.30056082787046       -1.05341446287527
C           31.51645373440528       -2.30964521224786       -0.86454836325010
C           30.77504682040849       -1.15318651850967       -0.39060083010390
N           29.49080606289243       -1.42104491093669       -0.29345127759606
H           32.47111150586730        0.13371099204555       -0.02175521829675
H           32.43936133697135        2.65119875163497        0.73360557146352
H           30.60872728447775        4.42033020961309        1.12792291414123
H           27.02158177990831        4.52620407888202        2.95316582273288
H           26.91653067808953        6.91130153652712        3.51264117320054
H           28.62909116298556        7.87530209693297       -0.33009545142998
H           28.72514146227709        5.48564027868555       -0.87575663798404
H           25.19478147035487        4.47510354450956        0.34786444927844
H           23.37494287414331        2.67326812258022       -0.02339880954377
H           23.71828688530097       -2.67403645121248        0.51727905477427
H           25.66758059614056       -4.52284995112305        0.15295407257485
H           29.35270813083983       -5.50798997804869        0.65622488495118
H           29.29787251843272       -7.89281509706013        0.08827620726553
H           26.84652381001039       -7.00311737633547       -3.34913155000243
H           26.91424783359215       -4.62082416997548       -2.77307736510592
H           30.87252935109926       -4.29268484377767       -1.41136347698578
H           32.57713736335646       -2.36882923612416       -1.03961803992908
C           22.06544502500778        0.00646383454527        0.00397785752902
C           23.26265691857455       -0.00748377586417        0.00126397651904
122
 energy: -234.791686258305 gnorm: 0.107979119977 xtb: 6.5.1 (b24c23e)
Zn          17.28466603989574        0.02099398061612       -0.00288972276412
C           13.94375034639835       -0.05715125616147       -0.07205803924830
C           14.61240989433131       -1.25442135698534       -0.21730184113514
C           13.95153040026137       -2.53281756546720       -0.34274754975573
C           14.91300111438037       -3.46411570963543       -0.50191208545084
C           16.18873887687072       -2.77694886589074       -0.48912017604237
N           15.96899884191352       -1.43437662538877       -0.30401191409458
C           17.42184036126452       -3.39415882935973       -0.65678833315795
C           17.44848489800869       -4.86320543283553       -0.88855909800049
C           17.95574094360033       -5.72438704867059        0.09059159450316
C           18.00861721354656       -7.09435464166193       -0.12375127059654
C           17.55526457360738       -7.64200195752617       -1.33638619879606
N           17.60415287159794       -9.08259059079043       -1.57983127486994
O           17.21020204407970       -9.49867466094500       -2.62051294655936
O           18.03733561941659       -9.77840058292007       -0.70346989540007
C           17.04892673757629       -6.78155784246854       -2.31446073128712
C           16.99277004500028       -5.41496576789002       -2.09005021851487
C           18.66118960153551       -2.72420748289319       -0.63325310663947
C           19.93722236958245       -3.29616423079523       -0.99939248595006
C           20.87898887162745       -2.33562963233850       -0.82983663053944
N           18.82749955983984       -1.44222628424447       -0.27211439427319
C           20.15707907416497       -1.18065068005895       -0.36544592172992
C           20.69262207823264        0.03164290905170        0.01729498029845
C           19.99475248311111        1.18119370278116        0.45969224405597
C           20.57998097115727        2.24636114225526        1.16184005845572
C           19.59448959646003        3.18982008699091        1.33939770448621
C           18.42128482338971        2.70007703688239        0.73934191843417
N           18.67403843641974        1.44210216970485        0.22545433666853
C           17.19416230335511        3.43067281908365        0.66763686191511
C           17.19795436574642        4.90944778956991        0.89270820374740
C           16.51923925436429        5.49448160256084        1.97181465105264
C           16.55029622361544        6.86555123721783        2.18596996060151
C           17.24936387348652        7.70659836606168        1.31576557556587
N           17.27707972449524        9.15061532973657        1.54976991051165
O           16.73934261727822        9.58167967568142        2.51728210158091
O           17.84998622762663        9.83168215271056        0.74516437686939
C           17.91922489259229        7.13299136616470        0.22131560778946
C           17.89049905422622        5.75897591837908        0.01951964348250
C           15.98849933092623        2.81904651828709        0.39959548690178
C           14.69841095777222        3.44905496922988        0.26318534191975
C           13.80091904727096        2.45465229356177        0.06581883828474
C           14.52669729863586        1.20775854432423        0.06928643393751
N           15.83471691024268        1.44676005669185        0.25475693581895
H           12.85963302197481       -0.10867858739995       -0.07331907876250
H           12.88892962013362       -2.71999762195596       -0.31231836614608
H           14.73550684315321       -4.52230624397629       -0.61341625264675
H           18.30535552158622       -5.30847328769452        1.03350456289940
H           18.40861089152746       -7.73171094235798        0.65802194559839
H           16.69944015106590       -7.18292371951139       -3.25837837679382
H           16.60417978634867       -4.75999097727007       -2.86519414515466
H           20.12252621063763       -4.29114275313033       -1.35578742961210
H           21.93983464799062       -2.45352063121353       -1.01931769780182
H           21.60698758686240        2.28990408502607        1.48649330899908
H           19.66903116977793        4.13803760118362        1.84120563367529
H           15.97790254366965        4.86184973203113        2.66999549535940
H           16.03127210658121        7.28750882977825        3.03961250605618
H           18.47656579869453        7.75413409931205       -0.47312535444540
H           18.41224838168404        5.32834168109511       -0.83231107963642
H           14.47025573440977        4.50470133145447        0.30271286752289
H           12.74315503216094        2.57756008575375       -0.07638676583134
Zn          28.04343582157378       -0.01837869818530       -0.01055076039526
C           31.38435125296293        0.08000041801414       -0.04537146885968
C           30.71569179124398        1.24437993044434        0.26890863887837
C           31.37657123885495        2.47654315355289        0.63196143365898
C           30.41510052273251        3.39957533094838        0.83360752930085
C           29.13936288578839        2.75774682205039        0.58780677229590
N           29.35910294878436        1.44371857960957        0.25600068889167
C           27.90626140371858        3.39279449849468        0.66380015043614
C           27.87961685761741        4.84156601388212        0.99977101155015
C           27.37236052948716        5.27277595587013        2.23039178304901
C           27.31948429026874        6.62316256986497        2.54536827249109
C           27.77283675630033        7.58554262290144        1.62655055001739
N           27.72394898601047        9.01230983172389        1.94102850042636
O           28.11789975624345        9.78825001541076        1.13228800267946
O           27.29076643416759        9.32875481991977        3.01435211483796
C           28.27917455109599        7.15461266940535        0.39720390939671
C           28.33533171645210        5.80358045153268        0.09282630859681
C           26.66691217659312        2.76289704860113        0.43441395830431
C           25.39087949862994        3.43041194203177        0.30944756680765
C           24.44911287713506        2.47638014709942        0.10647202367499
N           26.50060209376328        1.43903531215373        0.28851396156372
C           25.17102249284268        1.23153935568802        0.10391185970182
C           24.63547982223330       -0.03581930813156        0.00416853031128
C           25.33334937622530       -1.26738126308170       -0.01674508228812
C           24.74812085361259       -2.51811218243347        0.23478116706947
C           25.73361205755103       -3.45931457460046        0.04562541059395
C           26.90681692052373       -2.78030621078370       -0.32701734959738
N           26.65406342040716       -1.42142470144298       -0.33172342385746
C           28.13393944095136       -3.43071251538372       -0.66743398223209
C           28.13014722462150       -4.88599051608960       -1.01326340485133
C           28.80886266343335       -5.83296154021032       -0.23225077081154
C           28.77780552240184       -7.18429934809264       -0.54781438919517
C           28.07873753103862       -7.63769419876885       -1.66988769950710
N           28.05102195555571       -9.06409959487313       -1.99440288891900
O           28.58875854121753       -9.82649139947902       -1.25910985772938
O           27.47811571347889       -9.39378291154577       -2.99567773193411
C           27.40887679934195       -6.69556303491305       -2.46940927476347
C           27.43760271059408       -5.34612847918398       -2.14128354272547
C           29.33960228298699       -2.76320490525832       -0.68658451061641
C           30.62969069627201       -3.29610061566597       -1.04926996062664
C           31.52718259173594       -2.30024382188327       -0.85937692240943
C           30.80140425619512       -1.14562172534970       -0.38862838562737
N           29.49338475773255       -1.43673002080881       -0.30630506484219
H           32.46846856385874        0.12824111376876       -0.02721956412319
H           32.43917206728970        2.63865709963516        0.73035474611287
H           30.59259511176043        4.42237129307125        1.12701600595966
H           27.02274631526511        4.53365334651615        2.94856112582367
H           26.91949036792537        6.92088537582141        3.50908672879178
H           28.62866169781278        7.88062548930378       -0.32735119551263
H           28.72392223537137        5.48703941909457       -0.87135295262349
H           25.20557572465856        4.48643166529492        0.35213028594467
H           23.38826707098021        2.65671745381508       -0.02497989071164
H           23.72111433501570       -2.68021015343172        0.51942154349105
H           25.65907076527550       -4.52650887366207        0.15527976944665
H           29.35019950043180       -5.50827440013979        0.65220248524357
H           29.29682925871145       -7.89555250898914        0.08533092666014
H           26.85153607089393       -7.01100124699764       -3.34608781630689
H           26.91585360038282       -4.62751132376455       -2.76949604847550
H           30.85784611738703       -4.28954970412681       -1.40845022872885
H           32.58494647063596       -2.36086345662981       -1.03729320068671
C           22.06203927848375        0.01982837482816        0.01135970288164
C           23.26606261031972       -0.02264119018320        0.00309619871257
122
 energy: -234.809039407665 gnorm: 0.052473827412 xtb: 6.5.1 (b24c23e)
Zn          17.27926391523854        0.01801146393088       -0.00977111813715
C           13.93787695638611       -0.05334090971609       -0.07431010185393
C           14.60216339029954       -1.26097532202209       -0.21573959182618
C           13.94315640941509       -2.53522077137450       -0.34169247839728
C           14.90668590242379       -3.47107379737123       -0.50281078093640
C           16.17500005194480       -2.78803166646918       -0.48890007341308
N           15.95300191499846       -1.45009689874918       -0.30205774772788
C           17.41091978971024       -3.40746511593965       -0.66134194878372
C           17.44441439798321       -4.87366016311439       -0.89357499262368
C           17.95867892687680       -5.73012561754277        0.08476643389053
C           18.00989923547987       -7.09714083546026       -0.12492494729748
C           17.55408116643115       -7.62984851870214       -1.33199541566286
N           17.60215421313741       -9.06992187658720       -1.57016848197499
O           17.20437192167535       -9.46577323649783       -2.63192412699987