195
 energy: -357.211897894264 gnorm: 4.176939172999 xtb: 6.5.1 (b24c23e)
Cu          26.52734100000000       -0.02033400000000        0.00089900000000
C           23.16558900000000        0.11477300000000       -0.11812500000000
C           23.83164800000000        1.26846600000000       -0.01769300000000
C           23.18182200000000        2.57006400000000        0.07623800000000
C           24.12192700000000        3.48428400000000        0.22146200000000
C           25.42726200000000        2.80921700000000        0.22242300000000
N           25.24989000000000        1.40065100000000        0.06758900000000
C           26.61667600000000        3.42155400000000        0.39547500000000
C           26.65300700000000        4.88849600000000        0.58801400000000
C           26.90787000000000        5.42621100000000        1.85766200000000
C           26.94661300000000        6.81140400000000        2.04080800000000
C           26.72626899999999        7.67689300000000        0.95516500000000
C           26.75959400000000        9.14041800000000        1.12902600000000
O           26.99394300000000        9.65671900000000        2.25427700000000
C           26.47018200000000        7.13498700000000       -0.31403600000000
C           26.43616600000000        5.74974700000000       -0.49756800000000
C           27.91241800000000        2.69063700000000        0.41216200000000
C           29.20720100000000        3.33247600000000        0.67086400000000
C           30.14135600000000        2.40917500000000        0.57802800000000
N           28.05111500000000        1.42422800000000        0.16101300000000
C           29.45305200000000        1.16711800000000        0.24930400000000
C           30.04916400000000       -0.01157700000000        0.00198100000000
C           29.29427700000000       -1.23503100000000       -0.35646400000000
C           29.84789800000000       -2.32347300000000       -0.87646000000000
C           28.80393200000000       -3.31842200000000       -1.01018100000000
C           27.67922700000000       -2.77475300000000       -0.56120300000000
N           27.89774700000000       -1.43030100000000       -0.12703900000000
C           26.38252600000000       -3.49493800000000       -0.47492900000000
C           26.39201400000000       -4.97496500000000       -0.55042900000000
C           25.82968300000000       -5.63416500000000       -1.65489500000000
C           25.85918100000000       -7.02942900000000       -1.73199100000000
C           26.45604800000000       -7.78402800000000       -0.70968300000000
C           26.48377300000000       -9.25460900000000       -0.81104400000000
O           27.05981700000000       -9.95597200000000        0.06149400000000
C           27.02374800000000       -7.12150700000000        0.39328500000000
C           26.99436500000000       -5.72613600000000        0.46933600000000
C           25.21428400000000       -2.84158600000000       -0.33125100000000
C           23.89258200000000       -3.45524300000000       -0.21408300000000
C           23.03213600000000       -2.45964900000000       -0.12862400000000
C           23.79505100000000       -1.21364700000000       -0.17857400000000
N           25.06851400000000       -1.42341600000000       -0.29672900000000
H           22.08231800000000        0.14758800000000       -0.13496400000000
H           22.11798400000000        2.76783100000000        0.04896600000000
H           23.93341100000000        4.54422600000000        0.33174200000000
H           27.07730800000000        4.77153800000000        2.70390100000000
H           27.14723000000000        7.20399400000000        3.02978500000000
H           26.58210400000000        9.79031000000000        0.28177400000000
H           26.29726000000000        7.78432400000000       -1.16367600000000
H           26.23914200000000        5.34691300000000       -1.48377600000000
H           29.38975300000000        4.37584200000000        0.88988200000000
H           31.20231800000000        2.57657100000000        0.70801600000000
H           30.88801200000000       -2.46037400000000       -1.13964600000000
H           28.92789200000000       -4.32351900000000       -1.39140100000000
H           25.37330900000000       -5.06626900000000       -2.45723800000000
H           25.42131200000000       -7.52002000000000       -2.59357300000000
H           26.01223200000000       -9.74747800000000       -1.65126000000000
H           27.48999400000000       -7.68058200000000        1.19562800000000
H           27.43751200000000       -5.23036900000000        1.32475200000000
H           23.64147200000000       -4.50777100000000       -0.19507700000000
H           21.95912800000000       -2.56172100000000       -0.03048800000000
Cu          64.44340699999999       -0.00275600000000        0.00215700000000
C           67.80516000000000       -0.11953600000000       -0.13489400000000
C           67.13910100000000       -1.27577300000000       -0.19977900000000
C           67.78892600000000       -2.57748200000000       -0.29216200000000
C           66.84882200000000       -3.50306500000000       -0.27861000000000
C           65.54348700000000       -2.83501500000000       -0.18152500000000
N           65.72085800000001       -1.41875500000000       -0.13419100000000
C           64.35407300000000       -3.46575500000000       -0.09743700000000
C           64.31774100000000       -4.94516500000000       -0.11576400000000
C           64.06287900000000       -5.65820600000000        1.06437000000000
C           64.02413600000000       -7.05536300000000        1.04838800000000
C           64.24448000000000       -7.75742800000000       -0.14944200000000
C           64.21115500000001       -9.23079600000000       -0.18576900000000
O           63.97680600000000       -9.90207900000000        0.85448800000000
C           64.50056600000001       -7.04030200000000       -1.32853600000000
C           64.53458200000000       -5.64304400000000       -1.31293000000000
C           63.05833000000000       -2.74466400000000        0.02316700000000
C           61.76354700000000       -3.41680200000000        0.18783000000000
C           60.82939300000000       -2.48969100000000        0.22742500000000
N           62.91963400000000       -1.45539600000000       -0.04507700000000
C           61.51769700000000       -1.21348000000000        0.07892900000000
C           60.92158500000000       -0.01157700000000        0.00198100000000
C           61.67647200000000        1.25045200000000       -0.17858200000000
C           61.12285099999999        2.40185300000000       -0.53827700000000
C           62.16681700000000        3.40570400000000       -0.52894700000000
C           63.29152199999999        2.80363800000000       -0.16196800000000
N           63.07300200000000        1.41106100000000        0.07631200000000
C           64.58822300000000        3.50419700000000        0.02598700000000
C           64.57873400000000        4.97989200000000        0.16202200000000
C           65.14106600000000        5.78965700000000       -0.83731200000000
C           65.11156800000001        7.18168000000000       -0.71492700000000
C           64.51470100000000        7.78300400000000        0.40442200000000
C           64.48697600000000        9.25303200000000        0.51351500000000
O           63.91093200000000        9.82299200000000        1.47703900000000
C           63.94700099999999        6.97016500000000        1.40180100000000
C           63.97638400000000        5.57818500000000        1.27836600000000
C           65.75646500000001        2.83704300000000        0.07515900000000
C           67.07816699999999        3.42776000000000        0.27852100000000
C           67.93861300000000        2.43014300000000        0.22133000000000
C           67.17569700000000        1.20395300000000       -0.00555000000000
N           65.90223500000000        1.42841100000000       -0.09262900000000
H           68.88843099999998       -0.14961800000000       -0.15623400000000
H           68.85276499999999       -2.76934900000000       -0.34732100000000
H           67.03733800000001       -4.56790900000000       -0.32039700000000
H           63.89344100000000       -5.13071600000000        1.99521500000000
H           63.82351900000000       -7.58478900000000        1.97137800000000
H           64.38864500000000       -9.75341000000000       -1.11693500000000
H           64.67348900000000       -7.56202600000000       -2.26198700000000
H           64.73160600000000       -5.10387200000000       -2.23172000000000
H           61.58099600000000       -4.48072300000000        0.25603300000000
H           59.76843100000000       -2.67389100000000        0.33225000000000
H           60.08273699999999        2.57483800000000       -0.77928500000000
H           62.04285700000000        4.45484500000000       -0.76315000000000
H           65.59743899999999        5.34180900000000       -1.71235100000000
H           65.54943700000000        7.78996600000000       -1.49786500000000
H           64.95851700000000        9.86053000000000       -0.24795000000000
H           63.48075500000000        7.40928300000000        2.27558200000000
H           63.53323600000000        4.96565400000000        2.05446300000000
H           67.32927700000000        4.46685500000000        0.44722000000000
H           69.01162099999999        2.51720000000000        0.33300100000000
C           32.17894000000000        0.00311300000000        0.01225700000000
C           33.63716600000000       -0.01872400000000       -0.00561700000000
C           34.77109400000000       -0.03947700000000       -0.00710800000000
C           36.13247600000000       -0.05206700000000       -0.00929900000000
C           37.40669500000000       -0.04176100000000       -0.01406400000000
C           38.59515700000000       -0.02296200000000       -0.02022000000000
C           39.94751800000000        0.00182200000000       -0.00435200000000
C           41.04778500000000        0.00311300000000        0.01225700000000
C           49.79892700000000        0.00311300000000        0.01225700000000
C           51.25715300000000       -0.01872400000000       -0.00561700000000
C           52.39108100000000       -0.03947700000000       -0.00710800000000
C           53.75246300000000       -0.05206700000000       -0.00929900000000
C           55.02668200000000       -0.04176100000000       -0.01406400000000
C           56.21514400000000       -0.02296200000000       -0.02022000000000
C           57.56750500000000        0.00182200000000       -0.00435200000000
C           58.66777200000000        0.00311300000000        0.01225700000000
Cu          45.46958500000000       -0.02099900000000        0.01415600000000
C           42.02735200000000        0.02270300000000       -0.00735300000000
C           42.68360300000000        1.15773100000000        0.30206300000000
C           42.04265300000000        2.44867300000000        0.56464900000000
C           42.98285899999999        3.32383900000000        0.86702400000000
C           44.28083300000000        2.64428400000000        0.82160000000000
N           44.10095900000000        1.27289800000000        0.45660300000000
C           45.46585300000000        3.22552800000000        1.10349500000000
C           45.50043200000000        4.64307400000000        1.52630300000000
C           46.00174600000000        5.62337800000000        0.65723500000000
C           46.04599000000000        6.96153000000000        1.05662700000000
C           45.59087500000000        7.33578500000000        2.33331500000000
C           45.61502300000000        8.74122100000000        2.77479000000000
O           46.08009300000000        9.64253100000000        2.03112300000000
C           45.09867800000000        6.35184300000000        3.20130900000000
C           45.05506800000000        5.01369900000000        2.80056600000000
C           46.76201100000000        2.51003100000000        1.01307100000000
C           48.03004799999999        3.05278900000000        1.51543300000000
C           48.98196700000000        2.19137700000000        1.22049000000000
N           46.92964200000000        1.36063300000000        0.43601700000000
C           48.32762400000000        1.08864300000000        0.52817300000000
C           48.94327400000000        0.02270300000000       -0.00735300000000
C           48.19468000000000       -1.06119300000000       -0.67605500000000
C           48.72772900000000       -1.93287300000000       -1.52169000000000
C           47.69605700000000       -2.89806900000000       -1.85078700000000
C           46.60402200000000       -2.54856100000000       -1.18317500000000
N           46.82911599999999       -1.37109400000000       -0.41024600000000
C           45.34887000000000       -3.33544300000000       -1.15789500000000
C           45.41046500000000       -4.77251900000000       -1.51341700000000
C           46.17757200000000       -5.65349000000000       -0.73677100000000
C           46.24986600000000       -7.00842100000000       -1.07181900000000
C           45.56135399999999       -7.49988800000000       -2.19215600000000
C           45.64541100000000       -8.93302500000000       -2.52297800000000
O           45.02540299999999       -9.41107700000000       -3.51179400000000
C           44.80256500000000       -6.61442400000000       -2.97811900000000
C           44.73049400000000       -5.25889200000000       -2.64210500000000
C           44.17568000000000       -2.77918900000000       -0.79879800000000
C           42.89875500000000       -3.47500300000000       -0.67624600000000
C           42.00773600000000       -2.55531800000000       -0.36225100000000
C           42.70522700000000       -1.26704300000000       -0.27600400000000
N           43.97275200000000       -1.39216000000000       -0.52693800000000
H           40.98590200000000        2.68015100000000        0.52173800000000
H           42.79864899999999        4.36448500000000        1.10143000000000
H           46.35537400000000        5.34973400000000       -0.32935900000000
H           46.43351499999999        7.70228300000000        0.36802600000000
H           45.22166099999999        9.01365500000000        3.75422300000000
H           44.74759899999999        6.61861800000000        4.18909700000000
H           44.67539400000000        4.26589600000000        3.48221200000000
H           48.17962100000000        3.99024900000000        2.03479100000000
H           50.03181600000000        2.30891500000000        1.45659300000000
H           49.74813100000000       -1.94713600000000       -1.87845400000000
H           47.81037600000000       -3.76350900000000       -2.48966100000000
H           46.71410700000000       -5.29110500000000        0.13206800000000
H           46.84270100000000       -7.67428100000000       -0.45520800000000
H           46.24525600000000       -9.59524000000000       -1.90993800000000
H           44.26967600000000       -6.96800000000000       -3.85238800000000
H           44.14781100000000       -4.58724900000000       -3.26191800000000
H           42.69660500000000       -4.53093700000000       -0.80321000000000
H           40.95527300000000       -2.74490100000000       -0.19499400000000
195
 energy: -358.403459278087 gnorm: 0.886926279025 xtb: 6.5.1 (b24c23e)
Cu          26.52907965810103       -0.02062790825427        0.00037319473660
C           23.16606318307048        0.10749262886722       -0.11855805756469
C           23.83562816482953        1.27034648331828       -0.01737949168716
C           23.18069012660000        2.56747444533875        0.07593068377771
C           24.12537809188818        3.48571315774677        0.22177202189953
C           25.42524454433664        2.80544320484465        0.22171784013033
N           25.24270838115997        1.40789879071119        0.06822872596062
C           26.62322615847065        3.41972882069643        0.39574383848380
C           26.65370997794256        4.88931744664407        0.58815193936600
C           26.90800548418887        5.42806801746166        1.85689036221614
C           26.94637483444880        6.81022449307894        2.03975324717225
C           26.72617061887336        7.67721945712710        0.95472983608955
C           26.76155009087459        9.14181118732409        1.13819856792647
O           26.99245344690886        9.65334438513792        2.24723621438651
C           26.47023348906064        7.13340001206247       -0.31352836640291
C           26.43613283683684        5.75097366895159       -0.49646054992413
C           27.90896017878561        2.69784278378460        0.41315468277350
C           29.20236168615233        3.33629006075495        0.67107978078626
C           30.14240239230267        2.40595095855677        0.57738659312691
N           28.05544885172019        1.42148844790186        0.16125298782606
C           29.45606417706058        1.16726673259736        0.24955273609116
C           30.05579641036123       -0.01648952840419        0.00008340044075
C           29.29335302529953       -1.22711888200217       -0.35194664660165
C           29.84839880335939       -2.33316599026696       -0.87979681516210
C           28.81363234762868       -3.31894368962201       -1.01198965652635
C           27.67203669140142       -2.77028077275849       -0.55711089490908
N           27.90100051507814       -1.43284782271758       -0.12872291718749
C           26.38780045075001       -3.49223978902416       -0.47499876704946
C           26.39320163543500       -4.97508926910655       -0.55101956751874
C           25.82990553466643       -5.63540918835378       -1.65402623112594
C           25.85945466549454       -7.02793311489866       -1.73120343550115
C           26.45576007754662       -7.78420453117454       -0.71004896977581
C           26.48871295683593       -9.25753200404865       -0.80359284497928
O           27.05616035800845       -9.95149821917681        0.05620199796325
C           27.02320210221233       -7.12012024235499        0.39252973935284
C           26.99410620517396       -5.72766085793121        0.46830013774223
C           25.21277815168244       -2.84056942937021       -0.33098107164236
C           23.89607241637230       -3.45643433776603       -0.21449487084366
C           23.02894209342608       -2.45524253035596       -0.12830959413924
C           23.78745685476121       -1.20917203249748       -0.17819665558372
N           25.07020939447020       -1.42804903214004       -0.29655910622328
H           22.08245601936810        0.14687120833447       -0.13492499576911
H           22.11800618294675        2.76649749981737        0.04877552220386
H           23.93500101190096        4.54431955422768        0.33179979046030
H           27.07723318138974        4.77157326956960        2.70360851320998
H           27.14714141829934        7.20451081580852        3.02950423835682
H           26.58182838771481        9.79013311801033        0.28046078183061
H           26.29732013780713        7.78440097024725       -1.16352590846465
H           26.23923432130750        5.34680191402778       -1.48351739456013
H           29.38841380191690        4.37634481485262        0.88988537890489
H           31.20223505915112        2.57484874960175        0.70771350176782
H           30.88797865261677       -2.46082577971794       -1.13983306661397
H           28.92849725922871       -4.32333695807803       -1.39158890201144
H           25.37347849153956       -5.06620860892266       -2.45696320382919
H           25.42142124548877       -7.52007835725314       -2.59338281461471
H           26.01150578423192       -9.74709358751384       -1.65237894309931
H           27.48980785905339       -7.68099044640332        1.19521607821489
H           27.43737025979284       -5.23033490018286        1.32445385553418
H           23.64299752026631       -4.50768512499167       -0.19519861968069
H           21.95886543534689       -2.56055896618966       -0.03048745661668
Cu          64.44164104969121       -0.00239287931928        0.00167412773364
C           67.80468302625988       -0.11228220925137       -0.13428558761167
C           67.13512814387337       -1.27766058768034       -0.19973440464521
C           67.79005288638521       -2.57488381262160       -0.29209920854007
C           66.84538487909543       -3.50452047667911       -0.27850559301158
C           65.54547883354813       -2.83117615544480       -0.18168317234332
N           65.72801823113059       -1.42600897791987       -0.13459012011587
C           64.34756810879360       -3.46399851334632       -0.09691166214488
C           64.31703798755711       -4.94599710959008       -0.11574469079250
C           64.06274187296920       -5.65993624637132        1.06334223313449
C           64.02437361229526       -7.05404445104293        1.04751299391134
C           64.24457821828734       -7.75769161017898       -0.14991959021846
C           64.20920047672888       -9.23347730975752       -0.17688962031670
O           63.97829324074191       -9.89773858185928        0.84800135677159
C           64.50051525701778       -7.03880288914210       -1.32780866497278
C           64.53461518981470       -5.64441783709794       -1.31200905676900
C           63.06177872310800       -2.75183712210568        0.02312435222237
C           61.76832551061863       -3.42057619923775        0.18750515863948
C           60.82831704426886       -2.48640657601309        0.22726059297214
N           62.91554070854572       -1.45291062950039       -0.04451424696718
C           61.51460450768111       -1.21327091905148        0.07915753491712
C           60.91733615436719       -0.00626970641990        0.00091306233395
C           61.67759373445064        1.24177019217087       -0.17523020318134
C           61.12236635165813        2.41192318476858       -0.54019406142331
C           62.15707619873150        3.40646978795220       -0.53067343085694
C           63.29875180952293        2.79861905439013       -0.15854956823718
N           63.06988732713708        1.41391674585299        0.07502567156983
C           64.58293242834256        3.50153939886816        0.02553289312716
C           64.57754662694796        4.98010159077320        0.16145459708055
C           65.14084287359536        5.79076468101932       -0.83627524908228
C           65.11129388375936        7.18008779623943       -0.71435994739305
C           64.51498875254245        7.78322873826385        0.40408520926576
C           64.48203423545310        9.25486788563387        0.52130903841553
O           63.91459152601991        9.81931488707144        1.47116072222138
C           63.94754717100557        6.96890085062550        1.40085563723523
C           63.97664337199746        5.57984107024330        1.27755770085312
C           65.75797658928359        2.83599219569109        0.07528314982262
C           67.07466833154955        3.42899669050657        0.27828144110259
C           67.94180635308082        2.42572790787057        0.22101137294194
C           67.18329509901719        1.19947345367157       -0.00581396083820
N           65.90052847260937        1.43296759141022       -0.09179263773702
H           68.88829264677391       -0.14891482792072       -0.15609384952740
H           68.85274235485939       -2.76800269019411       -0.34731926664638
H           67.03574861939866       -4.56800976319750       -0.32035337022248
H           63.89351601130605       -5.13070954561813        1.99492060425989
H           63.82360805335204       -7.58526069024483        1.97102675929414
H           64.38892076080612       -9.75304782752093       -1.11820985408016
H           64.67342890850328       -7.56212385763988       -2.26184957339204
H           64.73151383860109       -5.10379894959822       -2.23144810006346
H           61.58233527643935       -4.48122350335077        0.25596288705840
H           59.76855148913414       -2.67221661215725        0.33220114965994
H           60.08279858850260        2.57533973022244       -0.77940931657520
H           62.04225068507127        4.45469425945915       -0.76336069645539
H           65.59726960325521        5.34170997128919       -1.71208777397291
H           65.54932786239699        7.78999671554468       -1.49766838848605
H           64.95924320011395        9.86030888192519       -0.24911223946227
H           63.48094094782614        7.40974610286006        2.27523231617341
H           63.53337783738898        4.96566265863176        2.05416294065112
H           67.32775066492385        4.46678666907250        0.44708707017864
H           69.01188326497308        2.51604893348799        0.33283581833869
C           32.18436055249420        0.00252875319443        0.01195373735342
C           33.58478959303149       -0.01836016870940       -0.00541762811140
C           34.80530501308728       -0.03987505554090       -0.00710784756234
C           36.11819212263886       -0.05196911674804       -0.00929671604570
C           37.39369525310683       -0.04195216430166       -0.01408848230388
C           38.59964433206250       -0.02271952384397       -0.02026251669132
C           39.87641717823767        0.00093695423588       -0.00507207020312
C           40.97696239467928       -0.00152048991848        0.01354315680287
C           50.00788652447053       -0.00773713799584        0.01397100076310
C           51.24472107958930       -0.01906501323588       -0.00509703847668
C           52.42815457857133       -0.03991797060377       -0.00717715561684
C           53.74318834481611       -0.05208725406702       -0.00940088664640
C           55.01607677573404       -0.04189637535044       -0.01400822294571
C           56.22338143644486       -0.02283392393450       -0.02026185117051
C           57.54462226443240        0.00177418004098       -0.00481876351142
C           58.71781335906852        0.00341369582722        0.01259548840365
Cu          45.46956415178444       -0.02172092983717        0.01348129828332
C           42.14442087221961        0.01780406336320       -0.00984839512791
C           42.70864461186656        1.17074996750436        0.30517366688508
C           42.04163860186738        2.44374871181891        0.56321832397969
C           42.98739518368219        3.32547990595304        0.86781505649561
C           44.27820863248331        2.64229724090314        0.82073355791851
N           44.09559435821045        1.28118746639748        0.45944800551454
C           45.47225104761280        3.22401010661599        1.10396559450076
C           45.50124357862565        4.64367309658000        1.52658339860968
C           46.00165485358151        5.62470555258089        0.65862154319570
C           46.04556745590689        6.96009327952484        1.05705066391040
C           45.59061703262023        7.33591585817112        2.33384735952647
C           45.61869251206955        8.74607462147320        2.76805886876718
O           46.07724827727479        9.63712821936902        2.03566404734395
C           45.09878156008777        6.35046252067606        3.20024157834396
C           45.05516885794179        5.01529672942960        2.80020522824862
C           46.75905125121085        2.52075667733662        1.01716489268104
C           48.02253632311176        3.05767538341292        1.51611394135825
C           48.98248023003327        2.18486116063586        1.21729694336313
N           46.93255821505263        1.35990799563074        0.43611841492520
C           48.29687195405374        1.10674063471421        0.53695985307384
C           48.76698351043946        0.02169690564555       -0.01372635541000
C           48.16860310208665       -1.06625374959307       -0.67712088138118
C           48.72805410931280       -1.93955487550933       -1.52627440101748
C           47.70461043859476       -2.89829430249886       -1.85306859655007
C           46.59767761559003       -2.54707114804493       -1.17814196776022
N           46.82965745594964       -1.37487851552431       -0.41302752862874
C           45.35334381810100       -3.33309171063055       -1.15765024216188
C           45.41144904101285       -4.77241045946322       -1.51406239222485
C           46.17735669669758       -5.65459048308615       -0.73784373211765
C           46.24927700756588       -7.00677812465570       -1.07196633256634
C           45.56165727864886       -7.50017811097771       -2.19184500948868
C           45.63997454354329       -8.93433483034692       -2.53077139734997
O           45.02938104605365       -9.40786954152222       -3.50544357224507
C           44.80307533034224       -6.61317272189666       -2.97696002829932
C           44.73094208336889       -5.26059637609652       -2.64142747496381
C           44.17437391354611       -2.77925064468714       -0.79858332712199
C           42.90229923328063       -3.47600125163438       -0.67719450763229
C           42.00453449416207       -2.55012947334115       -0.36071155581212
C           42.71266709021183       -1.27046304412310       -0.27622377856502
N           43.97724414090228       -1.39810646813570       -0.52891271345771
H           40.98591698355089        2.67819626505556        0.52123569635887
H           42.80014560431979        4.36446112398788        1.10155923671272
H           46.35526378984825        5.34962871617905       -0.32910037660701
H           46.43336514502163        7.70261759086374        0.36848576970009
H           45.22141864177446        9.01278903001040        3.75462900068608
H           44.74761294384032        6.61875325766154        4.18916688319817
H           44.67539612966667        4.26569751129717        3.48218236995356
H           48.17830481631166        3.99067039845554        2.03487184663346
H           50.03156779859681        2.30688524034348        1.45556585684823
H           49.74812368762108       -1.94706957028696       -1.87863681059401