456
 energy: -684.312350445854 gnorm: 0.000984835889 xtb: 6.5.1 (b24c23e)
C           86.07217273715844       -0.15745718845508       -0.02390857564548
C           86.68696074906191       -1.40206017316123        0.02203678437002
C           86.05221567925412       -2.67563387343859        0.06514362593652
C           87.02849881237584       -3.63134733965019        0.10019544535179
C           88.29083715467782       -2.97171490548711        0.08143109711690
N           88.03402332600290       -1.63078427496022        0.03402958497619
C           89.55428212213140       -3.56624324865750        0.10875651377206
C           89.58073727389903       -5.05824666710176        0.15051775680352
C           89.59943117882453       -5.78717039765698       -1.04217446015931
C           89.60106155922891       -5.06645607151011       -2.36398461669085
C           89.61818510176568       -7.17606608386599       -0.99410590452207
C           89.61941562229248       -7.84920648088133        0.22330886723752
C           89.61749513581390       -9.35364404874853        0.26100223651713
C           89.60151891757924       -7.11382108547670        1.40383567804005
C           89.58266427916422       -5.72407413364900        1.37935784367297
C           89.56626280076154       -4.93525399583882        2.66161219985426
C           90.77346246565723       -2.88999344177508        0.09492449488382
C           92.05967356570149       -3.56218765301794        0.12721233085472
C           92.99752010488544       -2.59245368648069        0.09399999783004
N           90.95096640028825       -1.54094729201019        0.04464631706528
C           92.28313316754740       -1.33127662781165        0.04159554615139
C           92.93231406684242       -0.08216776695115       -0.02874473398576
C           92.29253939246308        1.16877073470588       -0.10528670312807
C           92.91968700453508        2.44213980735429       -0.16007517208500
C           91.93911815381314        3.39458370618622       -0.20036268155936
C           90.68158603697599        2.73013643231236       -0.16908516869801
N           90.94691235826873        1.38730680318662       -0.11472545288066
C           89.41897309075982        3.32611771773574       -0.18175124016296
C           89.38761525162830        4.81734500707581       -0.23328858994149
C           89.36623836868982        5.47383963993503       -1.46702239425495
C           89.37609320032399        4.67541618639137       -2.74333370216591
C           89.33523827633738        6.86310679254720       -1.50162145301515
C           89.32591382391196        7.60723560776110       -0.32648201190505
C           89.27056089685199        9.11030592413498       -0.37552513855769
C           89.34609272664879        6.94337124812573        0.89585096646988
C           89.37716564689870        5.55508551588006        0.95406867596964
C           89.39915478280916        4.84419373015851        2.28102156582545
C           88.19918925485226        2.64865340701338       -0.14476561301418
C           86.90609815471218        3.31481355667683       -0.16011337757781
C           85.97452018487034        2.34085772661475       -0.11658923045717
C           86.69821064748859        1.08186044617846       -0.07363340895142
N           88.03484366701184        1.30526556642541       -0.09162402462827
H           84.98711268104921       -0.16302568576057       -0.02152520387197
H           84.98442640530752       -2.82653234018296        0.06765666221618
H           86.89834626172249       -4.70105627194989        0.13670697420414
H           88.74453450626979       -0.90729595950339        0.00979140806234
H           88.70329356006735       -4.45309856530867       -2.46252072569895
H           89.63360198913912       -5.77313298252560       -3.19267955576038
H           90.46634288549457       -4.40469222746383       -2.43353256050037
H           89.63354553036537       -7.74161005298800       -1.92009575334163
H           88.58999383195057       -9.72438929785934        0.23807681054004
H           90.14468137774148       -9.76428128662214       -0.60052602792676
H           90.09017590147447       -9.72066041456423        1.17228990551356
H           89.60373126429700       -7.63032781004646        2.35816684072432
H           88.66754621522648       -4.31773646987998        2.71535498739913
H           89.58686450907258       -5.59757299134394        3.52654482901476
H           90.43087558306459       -4.27059329316259        2.70841734926011
H           92.19733927414489       -4.63085301382427        0.16797389679652
H           94.07086846772128       -2.69549864611903        0.09622590796675
H           93.98598075247331        2.60023478765954       -0.16235020915071
H           92.06560360665645        4.46426558737322       -0.24489817285165
H           90.23937167843992        0.66111344848813       -0.07809066645153
H           89.33178867038735        5.33050588123704       -3.61285419810014
H           90.28382747970564        4.07209532625476       -2.80601602658511
H           88.52181691272686        3.99653701143763       -2.77193827958428
H           89.31897148377006        7.37238801644786       -2.45968236146741
H           89.77927899442658        9.54596241730330        0.48481321199602
H           88.23042461817947        9.44430089049991       -0.35939061210158
H           89.73353256650084        9.48707267957781       -1.28783057706518
H           89.33839811334892        7.51582049705159        1.81767823370453
H           89.36743511788274        5.55647783917750        3.10493399125516
H           88.54276052458569        4.17262459600127        2.36519924513620
H           90.30531498049690        4.24238562442982        2.37374723156962
H           86.76342814648051        4.38304972999502       -0.19972749425921
H           84.89960804628249        2.43291085428661       -0.11213644191208
C          147.87126903286460        0.10398377259837       -0.04768069837823
C          147.25471624265373        1.33222195291253       -0.24883471723144
C          147.88785471121494        2.59183465366564       -0.44722392062081
C          146.91039824566542        3.53391935301852       -0.60455761420280
C          145.64890941313774        2.87943445583232       -0.50808734564593
N          145.90740058228835        1.55521956210502       -0.29363767928067
C          144.38484198213314        3.46438680745728       -0.61023192959113
C          144.35677411184696        4.93863376205548       -0.84310320015437
C          144.35855140990498        5.44000140436311       -2.14766888925087
C          144.38196787434958        4.49216783454442       -3.31716450606459
C          144.33724759617508        6.81491959886307       -2.35168448646606
C          144.31363933962550        7.69658745978785       -1.27624520145051
C          144.31221364656102        9.18362540100631       -1.50742370034078
C          144.31204762651095        7.18645359351684        0.01807960439798
C          144.33289994505779        5.81552758724255        0.24535795901709
C          144.32808429938518        5.27136859115099        1.64908038717288
C          143.16640003853340        2.79417891814316       -0.50942706284468
C          141.87918285588307        3.45593934438681       -0.62046035305151
C          140.94276604356142        2.49661117828618       -0.46572813638922
N          142.99091037390832        1.46134203297902       -0.29326889948990
C          141.65909051256278        1.25209213685482       -0.26155161238898
C          141.01164353087162        0.01947927951144       -0.04215175881259
C          141.65298320312723       -1.21285179675403        0.18089760076046
C          141.02761336016675       -2.47233732623849        0.38169100877090
C          142.00943893830308       -3.41253729117288        0.53084645357111
C          143.26605533071532       -2.75423542466062        0.42397164072539
N          142.99894468017777       -1.42691080235634        0.21594480782173
C          144.52927147576929       -3.34315486493130        0.50745168708256
C          144.56142332794659       -4.81885151019134        0.72813562137255
C          144.57842563510539       -5.68640395237324       -0.36794766572376
C          144.56326830014876       -5.13081665827080       -1.76716617355984
C          144.60907149271290       -7.05910295507069       -0.15263917503749
C          144.62244604404785       -7.58027302178771        1.13715511860673
C          144.67734936558801       -9.06819097345355        1.35573772078110
C          144.60635617354302       -6.70783721008553        2.22029607335069
C          144.57541721979817       -5.33141196010791        2.02833892788104
C          144.55693450213207       -4.39361691022162        3.20595401492069
C          145.74833437744329       -2.67234086597220        0.39754756436554
C          147.04237416194195       -3.32886831809835        0.49957325339782
C          147.97256973682616       -2.36462998905127        0.34676540279621
C          147.24707525188126       -1.12151665422716        0.14934657516470
N          145.91071827754064       -1.34433416769124        0.18654649259112
H          148.95631982009184        0.11165035570146       -0.04611597573662
H          148.95545143311907        2.74313889102227       -0.46429882006163
H          147.03896875967706        4.59113845004998       -0.77285442920016
H          145.19771266287927        0.83904594645907       -0.18274343086362
H          145.28580801236600        3.88032078407681       -3.29093002566104
H          144.35674388504000        5.03689490200952       -4.26047129305670
H          143.52292773984891        3.81990766986415       -3.27735372938235
H          144.33756505276429        7.20361248282357       -3.36481888687074
H          145.33750317197428        9.56109420317249       -1.50417619075735
H          143.86381958227236        9.42737112563712       -2.47076869203404
H          143.76004093793745        9.69805961149889       -0.72045679125832
H          144.29276690817724        7.86705137951622        0.86302826292539
H          145.22329364276595        4.67221901715000        1.82656848619235
H          144.29807648038448        6.07909714120797        2.37972927649769
H          143.46008192391989        4.62754594401473        1.80262395203295
H          141.73981795803834        4.51139201234485       -0.79152228688473
H          139.86923452191263        2.59735589671955       -0.47727078193263
H          139.96158791818488       -2.63080395295722        0.40208603673373
H          141.88436267290876       -4.47024058302341        0.69752706778228
H          143.70580068372803       -0.70925020419403        0.09508896121348
H          144.59556696361810       -5.93228785475034       -2.50460331958147
H          143.65936621844477       -4.54095562253306       -1.93118610362947
H          145.42211160835043       -4.47560627951889       -1.92398643050548
H          144.62159336291180       -7.73231232322483       -1.00362675862600
H          144.22702189537108       -9.33811358655103        2.31118437855450
H          145.71687196871613       -9.40438106313899        1.36267622950660
H          144.15613993866117       -9.59727550953269        0.55744611146228
H          144.61697262036543       -7.10519804815292        3.22999928215725
H          144.60030299711786       -4.94582348020674        4.14423006119432
H          145.40803241120403       -3.71168620343800        3.16067907082081
H          143.64623864172299       -3.79153483385130        3.19650617706791
H          147.18670388010008       -4.38437759559569        0.66728861472925
H          149.04765412645887       -2.45377632406630        0.36032005659402
C           94.34135097798237       -0.07062270363288       -0.02286309580707
C           95.55843818209659       -0.05762830971291       -0.02140265612267
C          105.32937637537505       -0.03952667584391       -0.01459459714467
C          106.54832314208637       -0.04030439464956       -0.02144120155245
C          116.34926475685626       -0.04222936155331       -0.05273953682714
C          117.56896273110040       -0.04458383831598       -0.05664946106862
C          127.38351716168020       -0.08954728503469       -0.10191811263275
C          128.60314048681931       -0.09653706363729       -0.10367245803821
C          138.38564432244820       -0.01761849840980       -0.05163667221187
C          139.60257035279434        0.00494161262073       -0.04659743307562
C           96.96657209713598       -0.05344098100992       -0.01500961544004
C           97.60251042983674       -1.10368778706292        0.67311396924771
C           96.97767146636582       -2.15508299023359        1.39262810274191
C           97.96147992645759       -2.94836270164258        1.91750266191319
C           99.21644403811017       -2.40244432474232        1.53237299148707
N           98.94877532679216       -1.28800978433548        0.78384086124757
C          100.47955952579792       -2.91229513487304        1.84649872319738
C          100.49336855927866       -4.15219330820175        2.67875373548703
C          100.43722676727333       -5.40817700324635        2.06835588983321
C          100.36650305204644       -5.51221468282731        0.56811871228189
C          100.44746972775580       -6.55245189416475        2.85762523245862
C          100.51121354036844       -6.46370629546412        4.24429661175566
C          100.54212172572453       -7.70932966139143        5.08816561301500
C          100.56778220310973       -5.20832796139776        4.84094699514467
C          100.55915529418358       -4.05101429907755        4.07153440277821
C          100.61954141207573       -2.69603197557549        4.72485092954767
C          101.70785479494170       -2.37676733956546        1.46604420860620
C          102.97926002290622       -2.99048181858714        1.80330253388227
C          103.93631235320112       -2.19615792848814        1.28007671436824
N          101.91429402488158       -1.23547272663082        0.75103493635515
C          103.25028342168893       -1.09654840574932        0.63222709271064
C          103.92246204595533       -0.03893616898181       -0.01657045604308
C          103.28224346194943        1.03136729207076       -0.67315037572456
C          103.90250652121097        2.12855505722536       -1.32380578051015
C          102.91765633094286        2.92328598848028       -1.84414656480484
C          101.66458682298645        2.33630295519599       -1.51931982772128
N          101.93558463790428        1.19839466767097       -0.80673891870618
C          100.40266368997052        2.82645088982896       -1.86765496243732
C          100.39119599459069        4.06975029811780       -2.69478543949272
C          100.45028297028429        3.97663383109432       -4.08844184616636
C          100.52356940145765        2.62605869415437       -4.74965243177564
C          100.43802534926263        5.13785598666484       -4.85191519190600
C          100.36755345249553        6.38932240623419       -4.24845004663647
C          100.37574344980148        7.63921947291082       -5.08648672416937
C          100.30974888676732        6.46998655233781       -2.86109233737949
C          100.31994844125607        5.32169762058609       -2.07767943703118
C          100.25304610906257        5.41712498407095       -0.57674868444744
C           99.17287076313565        2.26856935502890       -1.52529404051318
C           97.89960191583990        2.83672864713270       -1.93074338929877
C           96.94300630915963        2.03931475132477       -1.41090856223984
C           97.63314402405435        0.98764020057772       -0.69080233744550
N           98.96943410416355        1.14874994291858       -0.77858742326863
H           95.91194554227833       -2.27871620884701        1.49633858480931
H           97.83676765571073       -3.83317609442983        2.52049554617705
H           99.65046254805559       -0.68086723581185        0.37366920455670
H           99.44961938519087       -5.04806808948814        0.19938343479008
H          101.21059148538772       -4.99208473579496        0.11179566444787
H          100.38235872519122       -6.55378618915580        0.24880517149449
H          100.40362825299619       -7.52754710710809        2.38355005087139
H          100.08892620637400       -7.52906892474414        6.06328505016581
H          100.01116119877183       -8.52518603477803        4.59717128989161
H          101.57608544858961       -8.02427595461363        5.24758531124724
H          100.61765446651077       -5.12969421544662        5.92206493073205
H           99.74259911903984       -2.10484743687270        4.45425248358397
H          100.65776613466413       -2.78820199854094        5.80983173024862
H          101.50465243984044       -2.15295430032239        4.38830089532882
H          103.09544471140462       -3.90695827932199        2.35924524077697
H          105.00573658617559       -2.32546112102413        1.31061050867597
H          104.96645023332493        2.28785404573290       -1.37934175011388
H          103.04097899895389        3.83821946451082       -2.40064873542096
H          101.23570457947947        0.56653927705814       -0.43229072109359
H          100.51605198125171        2.72301868896933       -5.83486964319200
H           99.67601716252419        2.00872036215793       -4.44652931050617
H          101.43725323393002        2.10782882497372       -4.45188311798780
H          100.48183539071897        5.06533389278921       -5.93372565000288
H           99.88887689071680        7.46588060026567       -6.04656592470928
H          101.40515381809486        7.95009337367705       -5.27978224316220
H           99.86547217096030        8.45487960780893       -4.57382281280739
H          100.25379755474944        7.44187301498567       -2.38173976279210
H          101.12680813447680        4.94177329278532       -0.12700821473551
H          100.21574862414892        6.45711339726332       -0.25399618350886
H           99.36494405365667        4.90310363822943       -0.20428075757670
H           97.78219115636053        3.72332197592221       -2.53300256958475
H           95.87192298281308        2.12885958222700       -1.49778263560450
C          107.95484654594880       -0.04569004783280       -0.02507075557049
C          108.59957856478162       -0.91899574391533        0.87385749851202
C          107.98870676476987       -1.78419445401853        1.81678026555090
C          108.97947627048696       -2.47909124124421        2.45590553074132
C          110.22637459588472       -2.05315138775553        1.92303279735190
N          109.94673664301220       -1.10233528280738        0.97845022177163
C          111.48980500789675       -2.53592124145937        2.27777679187110
C          111.50571779475649       -3.62825045969115        3.29639199626992
C          111.35444074568937       -4.95881973041596        2.89522143032141
C          111.17762467671479       -5.29006380858223        1.43720709677841
C          111.36972612983782       -5.96700960763650        3.85186783180202
C          111.53122920413136       -5.66981868435365        5.20122133307998
C          111.56581834929429       -6.77254551202696        6.22469925770324
C          111.68166721600811       -4.34251734331603        5.58893131413091
C          111.67057019413079       -3.31811127629335        4.64943335082178
C          111.83411276853504       -1.88432127529773        5.07833003094044
C          112.71689693754755       -2.10331285196638        1.78080005143451
C          113.98352133204322       -2.68759127422321        2.18149086497822
C          114.94375505392870       -1.99565468210151        1.53351119285812
N          112.92947621471050       -1.08653464155751        0.89867103272915
C          114.26545192578035       -0.98991570884023        0.74254581990558
C          114.94255664705167       -0.03898306062468       -0.05201609543898
C          114.29611009242826        0.92145729695458       -0.85696454033432
C          114.90527834463363        1.91573627029355       -1.66343483715740
C          113.91386302487821        2.60181233008572       -2.31063940344331
C          112.66715728588912        2.04716961182407       -1.91331395510401
N          112.94820934263788        1.04240144597249       -1.02634739767439
C          111.40407130935762        2.43815670961087       -2.36826992546448
C          111.39021767273998        3.52539145961152       -3.39240780779839
C          111.51986474033673        3.20877232574996       -4.74775803159756
C          111.67241620230307        1.77299603123196       -5.17440295553445
C          111.50411383959920        4.22836982326652       -5.69238317219108
C          111.36150677571423        5.55737350488771       -5.30746413077175
C          111.36674327165240        6.65430543370737       -6.33769751174942
C          111.23442963534652        5.86094092923982       -3.95589590357826
C          111.24630632450550        4.85759547635329       -2.99407722499390
C          111.10421239136966        5.19524858165325       -1.53385496937808
C          110.17575643030506        1.91941727453843       -1.96584052604527
C          108.90794163031615        2.36248015171872       -2.51653940142075
C          107.94791241740003        1.67165628973213       -1.86675515668426
C          108.62877367078408        0.81279395346690       -0.91955812770326
N          109.96476123967544        0.97146945977383       -1.01041658159303
H          106.92720332261494       -1.85790423016180        1.98479391433282
H          108.86420964367865       -3.21940768821632        3.23090401073211
H          110.63898430249196       -0.60454106598338        0.42852837451615
H          110.24179719848377       -4.86872813825690        1.06443678528631
H          111.99277180030680       -4.86462403969751        0.84926695671742
H          111.15898977245708       -6.36847411670037        1.28271475692120
H          111.25282396128446       -6.99979222841231        3.54008612407449
H          111.22047866247989       -6.41403066743723        7.19464643787576
H          110.94035324890542       -7.61001280613600        5.91444984313627
H          112.58857103524592       -7.13843932047831        6.34208699606182
H          111.80803341655904       -4.10112041905097        6.63929511229102
H          110.98540677764863       -1.28706738910267        4.73999321709127
H          111.90583203507887       -1.80830341464628        6.16288483323543
H          112.73801882558405       -1.45911241690375        4.63794735638875
H          114.09534085860277       -3.51675582151407        2.86148773548595
H          116.01083639070620       -2.13916023273492        1.56715454282933
H          115.96667094879474        2.08337332840905       -1.73405538515218
H          114.02872165558192        3.42154508207193       -3.00113747013538
H          112.25649288844467        0.46328933921914       -0.56196875262474
H          111.69020657498825        1.68981008027391       -6.26065548883530
H          110.84648865403751        1.17229011636728       -4.78944076579431
H          112.60087079649426        1.35717985388589       -4.77786805522057
H          111.60232131388645        3.98174882450088       -6.74453834902691
H          110.97776542271821        6.29453224603250       -7.29054393920368
H          112.38804822620260        7.00718212025001       -6.49931607847107
H          110.76429014059001        7.50076305646015       -6.00713315194099
H          111.12237233965614        6.89491716204769       -3.64630172500411
H          111.95996390603023        4.81721450901114       -0.97143655583540
H          111.03816823269693        6.27305849446091       -1.38838194225279
H          110.20468048849330        4.73163333836616       -1.12440321604894
H          108.79521465821333        3.09804458269154       -3.29674590021130
H          106.88000157022955        1.71569679523039       -2.00464337972894
C          118.97552886039499       -0.05444698052639       -0.06152421317284
C          119.62118687416964       -0.93437648402377        0.83158620704427
C          119.01238312525641       -1.80620183942741        1.76907601817927
C          120.00330302787744       -2.50896459124900        2.39905457929164
C          121.24924734165761       -2.08205796601160        1.86520720556448
N          120.96840966838882       -1.12256971016898        0.92950888311226
C          122.51116835429885       -2.57453388473952        2.21192038946599
C          122.52268525303889       -3.67439247670299        3.22270055668100
C          122.38681805477326       -5.00298937406344        2.80989571530604
C          122.23052861202675       -5.32472525745731        1.34743989645330
C          122.39766995829230       -6.01804845264653        3.75934505923435
C          122.53924429948133       -5.72955666945098        5.11280605268514
C          122.56813661313501       -6.83968711798619        6.12842030881811
C          122.67440736596589       -4.40403607205975        5.51208168706082
C          122.66764462620948       -3.37290752106099        4.57994618885890
C          122.81409490006051       -1.94095501731791        5.02094568697338
C          123.74033804432095       -2.14679619476411        1.71608400513467
C          125.00352924727419       -2.74197197556681        2.11199551881972
C          125.96773652979684       -2.05273917103390        1.46714501350880
N          123.95876019107963       -1.12615072301936        0.84030040117980
C          125.29536076807224       -1.03720106315683        0.68372308175027
C          125.97667772708824       -0.08230029890723       -0.10192126736941
C          125.33218540677154        0.88980796692065       -0.89455401546981
C          125.94213237741280        1.89301516744954       -1.68898059088137
C          124.95103710905043        2.59057392756426       -2.32447153317501
C          123.70378957030411        2.03385161716418       -1.93204008786806
N          123.98417776857409        1.01663811655365       -1.05928386945275
C          122.44081697800152        2.43427036830724       -2.37936437420129
C          122.42982433547581        3.53659027459538       -3.38757610088296
C          122.55916631337597        3.24031999158492       -4.74748845263758
C          122.70857909935584        1.81091949683012       -5.19609696131871
C          122.54650335148490        4.27423328455065       -5.67656017679992
C          122.40675003325387        5.59755036150830       -5.27167306960052
C          122.41440013551927        6.71005363570144       -6.28506952205494
C          122.27987012149548        5.88087176655008       -3.91566667799776
C          122.28921082547679        4.86307720454618       -2.96918179052623
C          122.14675664111954        5.17898860348076       -1.50414367973445
C          121.21058522702279        1.91542523003576       -1.98319741830764
C          119.94585314898950        2.37389625558457       -2.52816823685934
C          118.98151094756965        1.68138534640262       -1.88694395599555
C          119.65550416995015        0.80586681695713       -0.95080816760170
N          120.99268206056985        0.95656395120366       -1.03987047838282
H          117.95181725179333       -1.88069018332951        1.93991772958523
H          119.88811730254972       -3.25586910819111        3.16767637742230
H          121.65916838466575       -0.62146435172918        0.38060737939904
H          121.30601934394124       -4.89075001649010        0.96129201039779
H          123.06027120710836       -4.90570055120839        0.77545536994305
H          122.20263861291545       -6.40206054322309        1.18698868501114
H          122.29265946600128       -7.04932647410834        3.43848653077084
H          122.21800944813957       -6.48810238318923        7.09916747231280
H          121.94367858820496       -7.67439513952691        5.80876781300954
H          123.58998404915678       -7.20729058054314        6.24821720188340
H          122.78518474248470       -4.16940000539148        6.56572761011511
H          121.95627648653380       -1.35214834994779        4.69072640145729
H          122.88806186924151       -1.87347284129953        6.10591203481278
H          123.71066172572783       -1.49985551771090        4.58129329986865
H          125.11032236810388       -3.57484936597918        2.78825256942147
H          127.03393357426232       -2.20322138904056        1.49836103773016
H          127.00358436480046        2.05970218872290       -1.75982108809730
H          125.06713527985306        3.41963522982965       -3.00352410159121
H          123.29264652804959        0.43187402485320       -0.60171107237172
H          122.71375882161196        1.74314035842031       -6.28357021251494
H          121.88827024812996        1.20338989717983       -4.80991018316679
H          123.64242071806680        1.39117000517123       -4.81659499152464
H          122.64469565615386        4.04330238248749       -6.73227802070826
H          122.02506431561260        6.36560595149064       -7.24342106469984
H          123.43635876235213        7.06359332937271       -6.44098578197321
H          121.81331883214443        7.55241206766677       -5.94176602605882
H          122.16998606409560        6.91028840320682       -3.59049765913851
H          122.99605766286346        4.78180533041734       -0.94521127040181
H          122.09285486639619        6.25503453438631       -1.34160817056922
H          121.24039181867707        4.71963252528112       -1.10500641964561
H          119.83811654436415        3.12045104722513       -3.29854607325820
H          117.91419924959060        1.73665753604262       -2.02225087625015
C          130.01032666466418       -0.09970214777709       -0.10318651766052