600
 energy: -1044.435064025125 gnorm: 0.000375970996 xtb: 6.5.1 (b24c23e)
C          145.98279313050574       -0.12759667344471       -0.18835082049440
C          146.55364376895142        1.09891814738860       -0.50240387411764
C          145.86577945454479        2.28709154803628       -0.87673871609643
C          146.79803442341967        3.26151755638553       -1.09766452317020
C          148.08537646587470        2.70331614938165       -0.85369907346323
N          147.88719300599698        1.39671151138809       -0.50699190851168
C          149.32798162913582        3.33806517959020       -0.96111387800063
C          149.31126808145501        4.77335574252794       -1.33665844219126
C          149.93468029136011        5.20624121063748       -2.50752900720871
C          149.91495996788615        6.54461733365392       -2.86783940947859
C          149.27194714229486        7.47117368515694       -2.05033553134578
O          149.23009466247194        8.79179641054076       -2.36414285718452
C          148.64838434347388        7.05290876531467       -0.87626937621231
C          148.66738301091652        5.71370831792370       -0.52866203559675
C          150.56386582029873        2.72312778276986       -0.74419280168153
C          151.83524102596294        3.42103239707797       -0.80625486860214
C          152.78849759062024        2.50255150326331       -0.54605478421274
N          150.76565984516134        1.41335229751066       -0.43175092029502
C          152.09962868561618        1.24849246425894       -0.31327307748909
C          152.77828665246923        0.04700675949463       -0.02855818962559
C          152.18229432944605       -1.20306552479945        0.22439139555617
C          152.86376733211421       -2.41837598329804        0.49701657397197
C          151.92687516356997       -3.39254173536180        0.70440123130543
C          150.64119780960721       -2.79793772556075        0.57917330064320
N          150.84764684755211       -1.47699873513171        0.27919695793407
C          149.39927406048892       -3.42821002705815        0.71598539817097
C          149.41596747499980       -4.86777328037986        1.07204150492260
C          150.00327950630788       -5.30008518969590        2.26388872012680
C          150.01823916242321       -6.64177434582360        2.60137405757793
C          149.44767960044086       -7.57752884625271        1.74045134286324
O          149.48360062774287       -8.88643656977738        2.10024985210504
C          148.86127455385426       -7.16209665443759        0.54718929508645
C          148.84470974906907       -5.81485607110987        0.22122961859363
C          148.16091608518272       -2.80036711436498        0.54647562843113
C          146.87761140334294       -3.45389560558766        0.75161230382238
C          145.93149491109838       -2.52796739997899        0.49546185926701
C          146.63550574255305       -1.30705848250408        0.14576115258788
N          147.97545792084483       -1.50582932798774        0.19463535927083
H          144.89808846649186       -0.15903405551039       -0.20970055583271
H          144.79456904568715        2.37010060173786       -0.96910311993691
H          146.61582287669731        4.27671210076076       -1.41095030961895
H          148.63196860995177        0.74276393077435       -0.29063448907659
H          150.42429600637362        4.48422541165128       -3.15146673795673
H          150.39543576291743        6.87392818120441       -3.78291924113322
H          149.69699262352424        8.97213825448322       -3.19110548227118
H          148.15642441738183        7.78481188244175       -0.24760896816148
H          148.19425754493332        5.39156625271247        0.39233070584239
H          151.96014853224020        4.47251750887109       -1.00822626935153
H          153.85713437492981        2.63825939009318       -0.50836670216944
H          153.93548222393557       -2.52720341287610        0.52935191278488
H          152.10865955016422       -4.43318752522122        0.91780308447178
H          150.10468169151201       -0.80454450014970        0.11970372640836
H          150.43414880922961       -4.57145509200242        2.94156933791245
H          150.46606704373363       -6.97820295291057        3.52828413785303
H          149.05796366218357       -9.44605642532771        1.43692278031589
H          148.42203150862863       -7.89423221966033       -0.12195050504286
H          148.39973145419296       -5.49460781441256       -0.71427912516021
H          146.74340328007108       -4.47711187449555        1.06389850554795
H          144.85826270353806       -2.62844262916462        0.54014417263094
C          251.01961415245648        0.10027750835283        0.16921758789855
C          250.43525076819057       -1.12924970520486        0.44452630090583
C          251.11175062839632       -2.35465036675059        0.70092211033745
C          250.16863979257798       -3.31485407390275        0.93784749360743
C          248.88525661611442       -2.70461911277016        0.84433666640734
N          249.09713607379092       -1.39107962783262        0.53364127237407
C          247.63470312583232       -3.30817108758524        1.02002751532358
C          247.63400710016805       -4.74322684148247        1.39470800119364
C          247.01539700253562       -5.68886585666488        0.57594619221406
C          247.01791644123799       -7.03228416609466        0.91745080315036
C          247.63823566939701       -7.44525590877646        2.09432226394149
O          247.66280500896627       -8.75058988215365        2.46802638036826
C          248.25627231159172       -6.51091507786974        2.92335989409047
C          248.25468234057251       -5.17308171508450        2.57036767638610
C          246.40532998991605       -2.66041514651400        0.87155698847113
C          245.12336426595022       -3.28778720560468        1.13670609370224
C          244.18145178857182       -2.35707759424752        0.87779608707686
N          246.22080878930672       -1.36891461672305        0.48216070058424
C          244.88792630224174       -1.16120804279733        0.46272401992916
C          244.22542729526859        0.02936034069783        0.10358585882097
C          244.83721730706293        1.25072911343395       -0.23649762702649
C          244.17316297700353        2.43660302461241       -0.64687845914565
C          245.12122759227123        3.39484311691001       -0.87758161287698
C          246.39574555928715        2.82383223572415       -0.60998762608032
N          246.17284367028194        1.52480690939060       -0.23579694501225
C          247.64436983993576        3.44518682127366       -0.72647422367148
C          247.64414409157826        4.87851578771582       -1.10550835012462
C          247.00191639558196        5.82658917177175       -0.30470448459876
C          247.00154910792938        7.16568737862073       -0.65251921458309
C          247.64195284435164        7.57674531870010       -1.82014347659711
O          247.61863541149765        8.89765562635130       -2.13414154413910
C          248.28276272072813        6.64277344259504       -2.63096076931715
C          248.28433502397959        5.30442667746846       -2.27008393322216
C          248.87402306017731        2.81217763214136       -0.51681116918413
C          250.16278906812289        3.48306306232615       -0.58692817262173
C          251.09742448654072        2.54267872156229       -0.34125205081744
C          250.38043049646546        1.30153433658163       -0.10879739577524
N          249.04406951131992        1.50364634203830       -0.21198116080387
H          252.10487783974042        0.11516098829939        0.17586690561531
H          252.18349742401534       -2.47405117950420        0.69566994835604
H          250.34141027694182       -4.35754587774485        1.14977488978899
H          248.35818522748923       -0.71155426380459        0.38748620533081
H          246.54355501221252       -5.37057610894813       -0.34696965113820
H          246.54147320608038       -7.76345148906990        0.27316425264742
H          247.20027077483789       -9.30878818304031        1.82863925102637
H          248.72995854499760       -6.84526618013497        3.83809513390733
H          248.72259638628901       -4.44525783250940        3.22395395907940
H          244.98436109119663       -4.29619236350846        1.49146027630607
H          243.11075510162732       -2.44323740491789        0.96901361928252
H          243.10593172174902        2.53365273253558       -0.76228215624287
H          244.95526633727954        4.40410438940692       -1.21735604927673
H          246.90679305813146        0.86293250173676       -0.00604951900651
H          246.51577835330832        5.50986594923935        0.61137729342141
H          246.51146806143251        7.90324436525219       -0.02904373419601
H          248.09381644121959        9.07249196602648       -2.95754119489477
H          248.77568605232858        6.96642813415571       -3.54144346459659
H          248.77153316980616        4.57691807941345       -2.90968264272915
H          250.30773258452876        4.53330145257550       -0.78316927437469
H          252.17030783155789        2.64990467503315       -0.30459398431733
C          154.18772216623941        0.07962253003271        0.00912794453996
C          155.40414532582835        0.09772789907155        0.04971960267285
C          165.09818590353461        0.16726530487521        0.21471285219798
C          166.31562418907515        0.16539290287261        0.19532391301419
C          176.01470382977288       -0.04282722051178       -0.05502866222389
C          177.23292729721132       -0.06077202827058       -0.07064310643967
C          186.95488216785094       -0.13683717713638       -0.14514739131889
C          188.17390361511281       -0.14643671708223       -0.13647439938814
C          197.91450990848969       -0.19207304939505       -0.15288770505214
C          199.13349388131502       -0.17110243620990       -0.18052959591531
C          208.85854523659606       -0.08926611691370        0.05458432907760
C          210.07611622106580       -0.07421705510196        0.09560576778066
C          219.78008271008551        0.15718412372514        0.14510916109097
C          220.99750949777604        0.17664227217087        0.12294018612912
C          230.69058533091439        0.06397696237055       -0.08850383353065
C          231.90802125195771        0.04986141299617       -0.08944444521375
C          241.59914783328497        0.01001462719513        0.04865981476011
C          242.81596379494127        0.01503096663582        0.07825490508039
C          156.81273028372735        0.10464048014240        0.10112062572256
C          157.45522965473540       -1.10495635627620       -0.22576999976338
C          156.82851763686622       -2.30345534290248       -0.65296501538979
C          157.80606085370482       -3.23376385454115       -0.87941146304500
C          159.06019687499844       -2.62977414250668       -0.59400179351918
N          158.79819596203993       -1.34141513232142       -0.21120669870969
C          160.32586316266847       -3.21990937624735       -0.70651757715418
C          160.35125947950567       -4.65540194201780       -1.08042462693125
C          160.99477846211835       -5.07515377272903       -2.24529616876502
C          161.01734662162175       -6.41524805077502       -2.59894518742936
C          160.39744904679364       -7.35686604581825       -1.78069103564930
O          160.39794650829754       -8.67955258350222       -2.08740176898691
C          159.75332471746606       -6.95167855874605       -0.61302948760481
C          159.72971828992138       -5.61099189704700       -0.27230536497099
C          161.54465002527394       -2.57153305684582       -0.50053544908098
C          162.83322039076228       -3.23702325084620       -0.56280897922190
C          163.76421749213785       -2.29103234097818       -0.32026519716944
N          161.71424314976554       -1.25332212772903       -0.20244745646558
C          163.04384655232633       -1.05325799312133       -0.09889065788092
C          163.68978369089834        0.16001976936619        0.21413020732421
C          163.04893048065162        1.36865759313876        0.54478149557028
C          163.67960054774758        2.58408649106067        0.91548846958348
C          162.70162403186566        3.50148237358709        1.18617165592542
C          161.44276972285283        2.87680107582314        0.97223839508889
N          161.70387375078380        1.58798053257920        0.58924094137741
C          160.17606713154484        3.44730390459347        1.14604375942707
C          160.14624167055993        4.86839079057961        1.57513064628918
C          160.69226735655161        5.86907945417196        0.76788029810221
C          160.66432753737217        7.19419214301632        1.16545914890594
C          160.09196827959687        7.53688823041034        2.38905925393327
O          160.08547193564243        8.84583215515570        2.75064600231182
C          159.54662286494900        6.54929490856893        3.20608723880946
C          159.57267541306504        5.22544994080736        2.79581260888601
C          158.95654186377743        2.79666011060889        0.94878131937566
C          157.66602360666670        3.44844885868445        1.08195615987426
C          156.73516723153546        2.51691422060693        0.78951200486533
C          157.45650002307377        1.30184233316285        0.46909864108408
N          158.78764954732131        1.49921997735054        0.57289460639889
H          155.76610607902697       -2.42830090038792       -0.78383833047886
H          157.67173510493325       -4.24393989429747       -1.23012402196550
H          159.50635717653068       -0.65846317815484        0.03642854117031
H          161.46636377198033       -4.34194954661789       -2.89005344223968
H          161.51336002414808       -6.73441378475272       -3.50930990707601
H          160.87698466741332       -8.85070118987070       -2.90935969734340
H          159.27934581972849       -7.69490842562499        0.01613493894615
H          159.24051406982406       -5.29849194785202        0.64359370811902
H          162.98437145656479       -4.28834604904942       -0.74676637206895
H          164.83528915713728       -2.40243252979696       -0.26856207882576
H          164.74587103090920        2.72980679821093        0.97249603728340
H          162.83907839579911        4.51896279606752        1.51372844432589
H          160.99368744403571        0.89582391682163        0.37516767413969
H          161.12551142897459        5.60500619766055       -0.19041362668130
H          161.08013011476879        7.97295293196083        0.53814365960722
H          159.66069361590587        8.97166015057988        3.60978201861136
H          159.10547093457129        6.81998697502163        4.15938307399593
H          159.15810299523903        4.45608850658309        3.43761669501770
H          157.51388035973622        4.48191485409810        1.34788446228981
H          155.66222668322177        2.61976475004092        0.78349219099198
C          167.72336688819414        0.13771365424654        0.16377951253552
C          168.30809872002789       -0.80297009423558       -0.70594253462800
C          167.62033997968240       -1.67381684835797       -1.58962673735603
C          168.55425865245064       -2.37906991005450       -2.29829499849761
C          169.84149239637267       -1.96330407740530       -1.86244061366164
N          169.64182607174644       -1.00999281504801       -0.89978767865368
C          171.07863335974156       -2.39913616279008       -2.35344320275088
C          171.03436531786792       -3.44986158112070       -3.40163386901880
C          171.53600605281284       -3.19894173787441       -4.67900958195672
C          171.49065369971717       -4.17519916557295       -5.66218914877645
C          170.94483547139279       -5.42346903725376       -5.37222194847696
O          170.88251648351832       -6.40898917454369       -6.30456041562607
C          170.44291647027035       -5.68810025520638       -4.09933851906571
C          170.48588676843542       -4.70484719847894       -3.12673255108095
C          172.32822128123567       -1.92987288699055       -1.94611083907335
C          173.58616120763176       -2.44281253071716       -2.45727506644310
C          174.56253428445547       -1.76910922782248       -1.81475679100309
N          172.56256174622422       -0.97201029624519       -1.00606634155661
C          173.90249512245413       -0.85673642058760       -0.90369306525984
C          174.60780816245179       -0.00220020974156       -0.03178395382881
C          174.02052816316100        0.89482674383635        0.88262890998017
C          174.70296094750927        1.70584502193810        1.82463034398207
C          173.76824004986031        2.42275818673531        2.52059615703073
C          172.48530032441050        2.07193471028004        2.02047380487938
N          172.68798320918350        1.13794549307470        1.03928418184054
C          171.24823594075650        2.56127120532480        2.45923211195220
C          171.29286584436377        3.61970142057540        3.49823287174858
C          171.93239646779239        4.83618968867478        3.24636269782618
C          171.97641692323737        5.82730007311063        4.21072585763376
C          171.38364703663524        5.60950071012516        5.45312009211541
O          171.44986697622545        6.60095531872964        6.37872414204380
C          170.74628527486843        4.40009142334349        5.72043935007282
C          170.70069360588334        3.41609887587763        4.74521824141713
C          169.99798155102272        2.13319031197543        2.00933966255440
C          168.74042204714004        2.70703279507655        2.45286582518124
C          167.76423117136957        2.02479916872622        1.81862772929279
C          168.42563409301019        1.04704601012673        0.97895259088231
N          169.76530385747603        1.14061506432333        1.10669993324500
H          166.54830136737431       -1.73581345002199       -1.68062619113490
H          168.36858548587807       -3.11119359603271       -3.06707140811264
H          170.38370424567131       -0.51608068512894       -0.41505275815164
H          171.94970638181726       -2.22357750825019       -4.90960500163962
H          171.87603980832972       -3.97203867791020       -6.65560105635056
H          171.26315750174518       -6.12251212856687       -7.14563088313691
H          170.02527042890750       -6.66439523627783       -3.88650532099361
H          170.10660903424494       -4.91544010840080       -2.13297105141113
H          173.68898645284881       -3.22164625500015       -3.19533865144615
H          175.62981673067375       -1.86515429106687       -1.92927015950742
H          175.77149713543065        1.72265406032385        1.96114629380828
H          173.95010028821233        3.12043184113948        3.32162326484464
H          171.94841376970160        0.68517710598951        0.51276884535521
H          172.38249784629011        5.01142263968226        2.27552832989031
H          172.46463233316084        6.77397210446057        4.01488913144721
H          171.00231595846407        6.34863945666138        7.19751655349439
H          170.29044951224878        4.23306896052561        6.69048042876042
H          170.21599182858375        2.47015806063683        4.95946345324824
H          168.63839572343213        3.52888826147984        3.14288476971968
H          166.69672075587462        2.15607912500928        1.89268109592724
C          178.64006972222421       -0.08094035206642       -0.07845172486706
C          179.25959317312356       -1.20333934423400       -0.66182987863925
C          178.61133108948820       -2.32319360786127       -1.24166608459160
C          179.57382131544571       -3.15126823980771       -1.75132103687581
C          180.84115121702837       -2.56555060351513       -1.48593288436355
N          180.60067892853593       -1.39414900634788       -0.81864402084861
C          182.09213722275419       -3.04844215703190       -1.88913282737828
C          182.08642080076220       -4.32800767645685       -2.64479019076528
C          182.51008750004502       -4.37124502968939       -3.97285324234122
C          182.50280914894654       -5.56407976275245       -4.67959644145468
C          182.07434821903422       -6.73397673185315       -4.05682743898432
O          182.05406829378697       -7.92414261209319       -4.71062165435955
C          181.65024874478490       -6.70433015737225       -2.72966518929762
C          181.65439196843960       -5.50776159247322       -2.03471399922746
C          183.32277088719943       -2.43959170187459       -1.64133721746570
C          184.59314757664089       -2.98975971614592       -2.07694098489787
C          185.54900245250141       -2.16508911841764       -1.60169863893810
N          183.53012591922945       -1.30367534574640       -0.91763163496425
C          184.86589127303631       -1.12358333320260       -0.86310153296364
C          185.54764405359657       -0.11505145436149       -0.15021938169902
C          184.92609767572773        0.91541572877209        0.58424132534813
C          185.56938044833385        1.89178552958396        1.38545379785487
C          184.60676534332111        2.71650151445681        1.90146367864610
C          183.34533111016373        2.26905682183557        1.42514859154466
N          183.58749149163060        1.16746875001218        0.64806179264793
C          182.09318456298249        2.84124906102268        1.68634933167345
C          182.09391259505000        4.09948227884860        2.47101149860550
C          182.78775709005220        5.22446679986384        2.01725426911007
C          182.78605120232416        6.40048764303549        2.74590591379999
C          182.09121407978077        6.46542793675332        3.95238531457600
O          182.11437924563521        7.63329269291463        4.64448614831877
C          181.39799401788352        5.35116715633294        4.41980181835327
C          181.39900325393103        4.17992607257116        3.67887502071752
C          180.86166007579996        2.32798671389409        1.27481014472696
C          179.59755588336708        3.01410808046397        1.46930630818324
C          178.64076164059901        2.19864626476138        0.97852045020780
C          179.32027897413172        1.01947709795796        0.48353810535378
N          180.65357220297150        1.13504393728007        0.65155595328440
H          177.54443927455264       -2.47056370654769       -1.26634983689176
H          179.41994831419009       -4.08089621473344       -2.27436411109055
H          181.31954142061107       -0.75438407869593       -0.49725738662629
H          182.83326033890631       -3.45909724993219       -4.46195579131724
H          182.82765741641438       -5.59104105237077       -5.71420999452662
H          182.37361041005667       -7.83299419398000       -5.61830032263930
H          181.32315198645767       -7.62213696677255       -2.25691923957204
H          181.33553742584854       -5.48696511874480       -0.99855735410998
H          184.71801268321965       -3.88972991865543       -2.65683898293540
H          186.61666119521112       -2.23637045535336       -1.72607976300333
H          186.63170673616270        1.94419405235872        1.55573507274315
H          184.75647934052947        3.55132470301635        2.56637232282390
H          182.87075825073231        0.61384356826621        0.19105227964375
H          183.31587977937738        5.18023069657960        1.07124464362882
H          183.31597561636070        7.27606597541272        2.39175405781499
H          181.59401614525137        7.57180828058597        5.45681077947217
H          180.86204454316444        5.40470685706831        5.36137523579579
H          180.86955124333974        3.30953676841538        4.05010020649751
H          179.47994783220201        3.99530841689113        1.89992736535843
H          177.57759384246810        2.36805385459714        0.92719715370943
C          189.58088610707708       -0.16690777565308       -0.11899852095591
C          190.20962952147977       -1.32960814302712       -0.60784399465005
C          189.57094999619443       -2.48901950778827       -1.11487120850367
C          190.54052582455267       -3.35077129487450       -1.54919435621631
C          191.80363124306928       -2.74669028766939       -1.30695269690919
N          191.55312578227421       -1.53024558542853       -0.72966743607953
C          193.05956083327075       -3.26100880673406       -1.65192617325240
C          193.06074868978800       -4.59052657282372       -2.31564888879594
C          193.51520468448794       -4.72661227188490       -3.62734313710932
C          193.51361545169283       -5.96408835987495       -4.25244792244703
C          193.05952341583426       -7.08600212609614       -3.56308718445063
O          193.04309926836115       -8.31713797567734       -4.13608135053875
C          192.60499310814410       -6.96378785668612       -2.25135591663628
C          192.60411775070614       -5.72329903745155       -1.63815850657285
C          194.28941678443510       -2.64026575131279       -1.43179000721342
C          195.56254264777363       -3.23507727585152       -1.79459767259358
C          196.51615050136834       -2.37405913147645       -1.38420383557960
N          194.49341728305592       -1.44520091048787       -0.80961934635249
C          195.82936852316740       -1.26451528449538       -0.75731472655427
C          196.50718028722093       -0.19463364886367       -0.13571332874341
C          195.87636540381462        0.87738800199446        0.52915424806949
C          196.50883916436084        1.90529843754290        1.27179272100942
C          195.53787120136499        2.75138394462197        1.73499603276466
C          194.28182796237556        2.26728198458283        1.28088603526497
N          194.53543225347022        1.12179520857111        0.57391098720213
C          193.02602641838749        2.85056305854978        1.49649137975972
C          193.01883688626256        4.15264938489922        2.20674852044811
C          193.71175361907791        5.25220157203482        1.69326598531603
C          193.70443560972222        6.46719356928213        2.35495308912699
C          193.00487965081425        6.59771813423832        3.55336711877543
O          193.02356884384230        7.80222460771986        4.17972742126451
C          192.31151657991407        5.50990806078208        4.07923071890553
C          192.31792552340229        4.29911916452547        3.40486246797835
C          191.79779252557731        2.31544278332963        1.10352542687178
C          190.53501657562367        3.01806697628089        1.23877300991472
C          189.58045751476746        2.17881269060296        0.78516985657225
C          190.25906331636926        0.96757644168826        0.37468260495419
N          191.59086554442746        1.08708750205242        0.55264606742169
H          188.50518943208644       -2.64006640689158       -1.14440106745789
H          190.39355977462967       -4.31531035909462       -2.00679606010159
H          192.26622942047462       -0.86712562777403       -0.44480223864821
H          193.85820735809378       -3.85191226764627       -4.16859874410096
H          193.86252111799698       -6.06304953732512       -5.27477567119501
H          193.38505070723627       -8.28958582664333       -5.03976208497058
H          192.25834369340609       -7.84518319956443       -1.72615766033870
H          192.26191978414079       -5.63063648996446       -0.61344710536011
H          195.69067049867300       -4.18733681681541       -2.28300120091553
H          197.58511309259814       -2.46629115708678       -1.47720547517215
H          197.56957743951497        1.97495893978634        1.44472861435272
H          195.67897379783830        3.62507951040178        2.34995057963247
H          193.82562560534416        0.53604578209168        0.14712543872316
H          194.24403215816261        5.15631585141847        0.75342745482096
H          194.23398220827661        7.32283537773128        1.95451663951760
H          192.50094689788003        7.78477642802092        4.99274421146017
H          191.77146659465450        5.61483987966801        5.01412255124046
H          191.78810355585384        3.44979189993936        3.82157807580508
H          190.41739027191434        4.02433281924372        1.60706170968048
H          188.51917849563395        2.34961710084236        0.70917380660869
C          200.54082513613272       -0.15216557364221       -0.18158782424342
C          201.19951060962734       -1.29040718374168       -0.68878331216072
C          200.59022694442285       -2.43904462057551       -1.25307858098809
C          201.58133752191583       -3.26878367743898       -1.70035036804339
C          202.82979857949920       -2.65764758137156       -1.40594678357854
N          202.54838304946500       -1.46596165035692       -0.79155170474839
C          204.10098346298659       -3.14862524386401       -1.72885133167947
C          204.13881350121099       -4.45114853281653       -2.44248566001351
C          204.64867581040838       -4.53081269503345       -3.73852617041564
C          204.68054106321659       -5.74103147425984       -4.41399387379972
C          204.20499227318345       -6.89263938963371       -3.79124282165764
O          204.21884145282428       -8.09871874662392       -4.41542973870307
C          203.69693695298352       -6.82734501405470       -2.49516751331774
C          203.66290683625104       -5.61348480616789       -1.83156499419828
C          205.31656127550318       -2.52745116358360       -1.44009687024370