324
 energy: -564.996664534316 gnorm: 9.730792093776 xtb: 6.5.1 (b24c23e)
C           51.27862700000000       -0.02970200000000        0.09207800000000
C           52.00684700000000        1.34626200000000        0.17083000000000
C           51.39953899999999        2.56792200000000        0.34919800000000
C           52.42215800000000        3.55075600000000        0.30212700000000
C           53.61962799999999        2.89499900000000        0.08705100000000
N           53.35888400000000        1.54773300000000        0.05568500000000
C           55.04246900000000        3.56380200000000       -0.11590000000000
C           55.08186700000000        5.02977700000000       -0.31962900000000
C           55.38621600000000        5.88108600000000        0.74963200000000
C           55.41514899999999        7.26479000000000        0.56260600000000
C           55.13864800000000        7.80461400000000       -0.69804900000000
C           55.16944200000000        9.22436900000000       -0.89393800000000
N           55.19316700000000       10.37385300000000       -1.05822500000000
C           54.83195199999999        6.95720600000000       -1.76852200000000
C           54.80372799999999        5.57323500000000       -1.57783500000000
C           56.17274300000000        2.80731700000000       -0.13938300000000
C           57.47583499999999        3.38821100000000       -0.39147000000000
C           58.37926200000000        2.41559300000000       -0.37531000000000
N           56.37086000000000        1.46182100000000        0.02839700000000
C           57.70282199999999        1.16287100000000       -0.10081800000000
C           58.37418799999999       -0.01678200000000       -0.01549700000000
C           57.60104200000000       -1.36477800000000        0.31142700000000
C           58.15474100000000       -2.51620400000000        0.83863100000000
C           57.12742700000000       -3.48936000000000        0.91124200000000
C           55.97373400000000       -2.90327000000000        0.43568000000000
N           56.25917600000000       -1.59468600000000        0.12920700000000
C           54.56065299999999       -3.60611800000000        0.28116200000000
C           54.52827299999999       -5.08189600000000        0.19442000000000
C           54.18591299999999       -5.85250700000000        1.31270400000000
C           54.16451400000000       -7.24568200000000        1.22734900000000
C           54.48978800000000       -7.87705000000000        0.02170700000000
C           54.46612400000000       -9.30735100000000       -0.06851100000000
N           54.44793000000000      -10.46634100000000       -0.14223100000000
C           54.83644300000000       -7.11047000000000       -1.09692600000000
C           54.85479100000000       -5.71743400000000       -1.00873500000000
C           53.43330800000000       -2.85361700000000        0.19680500000000
C           52.10990999999999       -3.43225300000000        0.04131600000000
C           51.22258200000000       -2.44207200000000        0.00390400000000
C           51.94488100000000       -1.19931400000000        0.11711100000000
N           53.26727800000000       -1.49703300000000        0.22657800000000
H           50.19978099999999       -0.02825700000000       -0.00894100000000
H           50.34157800000000        2.73385000000000        0.48225000000000
H           52.29388400000000        4.61887400000000        0.39098100000000
H           54.05828400000000        0.81512200000000       -0.03473700000000
H           55.60473399999999        5.44725800000000        1.72420900000000
H           55.65496700000000        7.90680700000000        1.40572800000000
H           54.61622300000000        7.35733900000000       -2.75486100000000
H           54.56833700000000        4.90406900000000       -2.40226000000000
H           57.68876599999999        4.42577900000000       -0.57716000000000
H           59.43178699999999        2.55816800000000       -0.53917000000000
H           59.18785300000000       -2.65028400000000        1.12143100000000
H           57.22569300000000       -4.50691200000000        1.25346400000000
H           55.57127200000000       -0.89908300000000       -0.15034300000000
H           53.93144100000000       -5.34877000000000        2.24301600000000
H           53.89312800000000       -7.82454600000000        2.10588000000000
H           55.09465600000000       -7.58168700000000       -2.04172800000000
H           55.11840899999999       -5.10906100000000       -1.87307400000000
H           51.87837499999999       -4.47910900000000       -0.03155800000000
H           50.15729400000000       -2.54197000000000       -0.10331700000000
C          131.99985000000001        0.02550300000000        0.08425900000000
C          131.27163100000001       -1.27447600000000        0.54200600000000
C          131.87893900000000       -2.39855900000000        1.05260100000000
C          130.85631900000001       -3.35581000000000        1.28030400000000
C          129.65884900000000       -2.78556800000000        0.89159000000000
N          129.91959399999999       -1.49999800000000        0.48733600000000
C          128.23600800000000       -3.48442400000000        0.88234100000000
C          128.19660999999999       -4.94931700000000        1.09371000000000
C          127.89226100000000       -5.47022200000000        2.35731800000000
C          127.86332899999999       -6.85144100000000        2.56188800000000
C          128.13982899999999       -7.72010600000000        1.50071800000000
C          128.10903500000001       -9.13842000000000        1.70678500000000
N          128.08530999999999      -10.28831600000000        1.86815900000000
C          128.44652500000001       -7.20328500000000        0.23702900000000
C          128.47474900000000       -5.82079200000000        0.03590100000000
C          127.10573499999998       -2.76421300000000        0.64971300000000
C          125.80264200000001       -3.39226300000000        0.56884900000000
C          124.89921499999998       -2.45340900000000        0.31428700000000
N          126.90761700000000       -1.42504300000000        0.43726400000000
C          125.57565500000000       -1.17373200000000        0.23011500000000
C          124.90429000000000       -0.01678200000000       -0.01549700000000
C          125.67743600000000        1.36898200000000       -0.07575600000000
C          125.12373599999998        2.62152300000000        0.11097500000000
C          126.15105000000000        3.57656900000000       -0.08950600000000
C          127.30474399999999        2.88147100000000       -0.38361300000000
N          127.01930099999998        1.53924800000000       -0.31465200000000
C          128.71782400000001        3.51376800000000       -0.72722700000000
C          128.75020400000000        4.90741700000000       -1.22036600000000
C          129.09256400000001        5.95825700000000       -0.36005500000000
C          129.11396400000001        7.27293700000000       -0.82892400000000
C          128.78868900000001        7.54467900000000       -2.16247300000000
C          128.81235300000000        8.89367600000000       -2.64632300000000
N          128.83054700000000        9.98661200000000       -3.03898300000000
C          128.44203500000000        6.49761500000000       -3.02424000000000
C          128.42368700000000        5.18385600000000       -2.55268500000000
C          129.84516900000000        2.76743700000000       -0.59930500000000
C          131.16856700000000        3.28013800000000       -0.90936000000000
C          132.05589499999999        2.31851100000000       -0.67033700000000
C          131.33359600000000        1.15606700000000       -0.21648100000000
N          130.01119900000000        1.47247400000000       -0.19399300000000
H          133.07869600000001       -0.00393700000000       -0.01238600000000
H          132.93689900000001       -2.52101400000000        1.22649600000000
H          130.98459399999999       -4.35724600000000        1.66226900000000
H          129.22019399999999       -0.82131000000000        0.19703100000000
H          127.67374400000000       -4.78282600000000        3.17309600000000
H          127.62351099999999       -7.23408200000000        3.55013200000000
H          128.66225499999999       -7.86157800000000       -0.59940600000000
H          128.71014000000000       -5.40687900000000       -0.94192000000000
H          125.58971099999998       -4.44058800000000        0.67858300000000
H          123.84669000000000       -2.63588000000000        0.19646400000000
H          124.09062399999999        2.82886000000000        0.34542000000000
H          126.05278500000000        4.64913300000000       -0.04330700000000
H          127.70720499999999        0.79337400000000       -0.39004600000000
H          129.34703600000000        5.73267000000000        0.67355200000000
H          129.38534899999999        8.07299400000000       -0.14568900000000
H          128.18382199999999        6.68793800000000       -4.06273600000000
H          128.16006899999999        4.35939200000000       -3.21409100000000
H          131.40010200000000        4.26558600000000       -1.27006900000000
H          133.12118300000000        2.38470600000000       -0.80108200000000
C           60.51739900000000       -0.00209200000000       -0.00522100000000
C           61.97562599999999       -0.02392800000000       -0.02309400000000
C           63.10955400000000       -0.04468200000000       -0.02458500000000
C           64.47093500000000       -0.05727200000000       -0.02677600000000
C           65.74515400000000       -0.04696500000000       -0.03154100000000
C           66.93361700000000       -0.02816700000000       -0.03769700000000
C           68.28597700000000       -0.00338300000000       -0.02183000000000
C           69.38624500000000       -0.00209200000000       -0.00522100000000
C           78.26766499999998       -0.00209200000000       -0.00522100000000
C           79.72589099999999       -0.02392800000000       -0.02309400000000
C           80.85981900000000       -0.04468200000000       -0.02458500000000
C           82.22120099999998       -0.05727200000000       -0.02677600000000
C           83.49542000000000       -0.04696500000000       -0.03154100000000
C           84.68388200000000       -0.02816700000000       -0.03769700000000
C           86.03624300000000       -0.00338300000000       -0.02183000000000
C           87.13651000000000       -0.00209200000000       -0.00522100000000
C           96.01793000000001       -0.00209200000000       -0.00522100000000
C           97.47615699999999       -0.02392800000000       -0.02309400000000
C           98.61008500000000       -0.04468200000000       -0.02458500000000
C           99.97146600000001       -0.05727200000000       -0.02677600000000
C          101.24568499999999       -0.04696500000000       -0.03154100000000
C          102.43414799999999       -0.02816700000000       -0.03769700000000
C          103.78650800000000       -0.00338300000000       -0.02183000000000
C          104.88677600000000       -0.00209200000000       -0.00522100000000
C          113.76819600000000       -0.00209200000000       -0.00522100000000
C          115.22642200000000       -0.02392800000000       -0.02309400000000
C          116.36034999999998       -0.04468200000000       -0.02458500000000
C          117.72173200000000       -0.05727200000000       -0.02677600000000
C          118.99595099999999       -0.04696500000000       -0.03154100000000
C          120.18441299999999       -0.02816700000000       -0.03769700000000
C          121.53677399999999       -0.00338300000000       -0.02183000000000
C          122.63704100000000       -0.00209200000000       -0.00522100000000
C           70.30992500000001        0.01176500000000        0.01147000000000
C           71.10515900000000        1.16349600000000       -0.73026700000000
C           70.60399400000000        2.38386400000000       -1.13502800000000
C           71.64255500000000        3.05958900000000       -1.82574600000000
C           72.74633399999999        2.23273300000000       -1.81572100000000
N           72.43192999999999        1.11730300000000       -1.08096400000000
C           74.13316300000000        2.50646400000000       -2.52696800000000
C           74.12103100000000        3.35184800000000       -3.74133200000000
C           73.64436899999998        2.83301300000000       -4.95076800000000
C           73.61774899999999        3.62969700000000       -6.09760800000000
C           74.06697300000000        4.95385200000000       -6.03912700000000
C           74.04089500000001        5.77293800000000       -7.21510100000000
N           74.01960699999999        6.43891900000000       -8.16713200000000
C           74.54107900000000        5.47836200000000       -4.83128800000000
C           74.56544399999999        4.67896900000000       -3.68654700000000
C           75.26954000000001        1.93420500000000       -2.05062700000000
C           76.55495999999998        2.10538400000000       -2.69625100000000
C           77.46404200000001        1.42532300000000       -2.00599800000000
N           75.47937899999998        1.12318200000000       -0.97067100000000
C           76.80355500000000        0.78562700000000       -0.88629900000000
C           77.46787999999998        0.01176500000000        0.01147000000000
C           76.67266299999999       -0.66166700000000        1.20443800000000
C           77.17391499999998       -0.99489000000000        2.44620600000000
C           76.13536000000001       -1.64509300000000        3.16100500000000
C           75.03147900000000       -1.68292100000000        2.33509400000000
N           75.34582899999999       -1.01422300000000        1.17883700000000
C           73.64465399999999       -2.37704800000000        2.64978600000000
C           73.65697200000000       -3.54049300000000        3.56399500000000
C           74.13527600000000       -4.77740600000000        3.11631900000000
C           74.16210500000000       -5.87632600000000        3.97787500000000
C           73.71147000000001       -5.74196200000000        5.29600700000000
C           73.73770900000000       -6.86873000000000        6.18155600000000
N           73.75907299999999       -7.78085100000000        6.90120500000000
C           73.23577400000001       -4.50630200000000        5.74947700000000
C           73.21123100000000       -3.40961200000000        4.88532800000000
C           72.50824699999998       -1.93476700000000        2.05086100000000
C           71.22287600000000       -2.56950500000000        2.25911700000000
C           70.31378599999999       -1.92002300000000        1.54003500000000
C           70.97422200000000       -0.83932200000000        0.83641200000000
N           72.29835499999999       -0.90371800000000        1.17851500000000
H           69.59840000000000        2.74097600000000       -0.97185200000000
H           71.58465800000000        4.03027300000000       -2.29444600000000
H           73.08946700000000        0.39486200000000       -0.80211300000000
H           73.29693899999999        1.80188000000000       -4.98483300000000
H           73.24506399999999        3.20520500000000       -7.02610500000000
H           74.89454000000001        6.50400500000000       -4.76683400000000
H           74.93379400000001        5.07433300000000       -2.74144600000000
H           76.75072700000000        2.67449500000000       -3.58709200000000
H           78.50813800000000        1.36784700000000       -2.25443300000000
H           78.17955700000000       -0.81140300000000        2.79312900000000
H           76.19330099999999       -2.05669200000000        4.15725500000000
H           74.68821600000000       -0.77758200000000        0.44159000000000
H           74.48383599999998       -4.87059700000000        2.08922500000000
H           74.53606099999999       -6.82741600000000        3.60803300000000
H           72.88120099999999       -4.38311000000000        6.76935000000000
H           72.84168500000000       -2.44360300000000        5.22514800000000
H           71.02715799999999       -3.42585400000000        2.87892900000000
H           69.26973400000000       -2.17154600000000        1.49693100000000
C           88.06019100000000        0.01176500000000        0.01147000000000
C           88.85542499999998        1.16349600000000       -0.73026700000000
C           88.35425900000000        2.38386400000000       -1.13502800000000
C           89.39282099999998        3.05958900000000       -1.82574600000000
C           90.49659900000000        2.23273300000000       -1.81572100000000
N           90.18219499999999        1.11730300000000       -1.08096400000000
C           91.88342900000001        2.50646400000000       -2.52696800000000
C           91.87129599999999        3.35184800000000       -3.74133200000000
C           91.39463499999998        2.83301300000000       -4.95076800000000
C           91.36801400000000        3.62969700000000       -6.09760800000000
C           91.81723800000000        4.95385200000000       -6.03912700000000
C           91.79116099999999        5.77293800000000       -7.21510100000000
N           91.76987199999999        6.43891900000000       -8.16713200000000
C           92.29134400000000        5.47836200000000       -4.83128800000000
C           92.31570900000000        4.67896900000000       -3.68654700000000
C           93.01980600000000        1.93420500000000       -2.05062700000000
C           94.30522600000000        2.10538400000000       -2.69625100000000
C           95.21430700000001        1.42532300000000       -2.00599800000000
N           93.22964399999999        1.12318200000000       -0.97067100000000
C           94.55382000000000        0.78562700000000       -0.88629900000000
C           95.21814500000001        0.01176500000000        0.01147000000000
C           94.42292800000000       -0.66166700000000        1.20443800000000
C           94.92417999999999       -0.99489000000000        2.44620600000000
C           93.88562499999999       -1.64509300000000        3.16100500000000
C           92.78174400000000       -1.68292100000000        2.33509400000000
N           93.09609500000001       -1.01422300000000        1.17883700000000
C           91.39491899999999       -2.37704800000000        2.64978600000000
C           91.40723800000001       -3.54049300000000        3.56399500000000
C           91.88554099999999       -4.77740600000000        3.11631900000000
C           91.91236999999998       -5.87632600000000        3.97787500000000
C           91.46173500000000       -5.74196200000000        5.29600700000000
C           91.48797500000001       -6.86873000000000        6.18155600000000
N           91.50933899999998       -7.78085100000000        6.90120500000000
C           90.98603900000001       -4.50630200000000        5.74947700000000
C           90.96149699999999       -3.40961200000000        4.88532800000000
C           90.25851199999998       -1.93476700000000        2.05086100000000
C           88.97314200000000       -2.56950500000000        2.25911700000000
C           88.06405099999999       -1.92002300000000        1.54003500000000
C           88.72448799999999       -0.83932200000000        0.83641200000000
N           90.04862100000000       -0.90371800000000        1.17851500000000
H           87.34866599999998        2.74097600000000       -0.97185200000000
H           89.33492300000000        4.03027300000000       -2.29444600000000
H           90.83973200000000        0.39486200000000       -0.80211300000000
H           91.04720499999999        1.80188000000000       -4.98483300000000
H           90.99532899999998        3.20520500000000       -7.02610500000000
H           92.64480500000001        6.50400500000000       -4.76683400000000
H           92.68405999999999        5.07433300000000       -2.74144600000000
H           94.50099200000000        2.67449500000000       -3.58709200000000
H           96.25840300000000        1.36784700000000       -2.25443300000000
H           95.92982300000000       -0.81140300000000        2.79312900000000
H           93.94356600000000       -2.05669200000000        4.15725500000000
H           92.43848199999999       -0.77758200000000        0.44159000000000
H           92.23410100000000       -4.87059700000000        2.08922500000000
H           92.28632700000000       -6.82741600000000        3.60803300000000
H           90.63146700000000       -4.38311000000000        6.76935000000000
H           90.59195000000000       -2.44360300000000        5.22514800000000
H           88.77742400000000       -3.42585400000000        2.87892900000000
H           87.02000000000000       -2.17154600000000        1.49693100000000
C          105.81045599999999        0.01176500000000        0.01147000000000
C          106.60568999999998        1.16349600000000       -0.73026700000000
C          106.10452500000000        2.38386400000000       -1.13502800000000
C          107.14308599999998        3.05958900000000       -1.82574600000000
C          108.24686500000000        2.23273300000000       -1.81572100000000
N          107.93246099999999        1.11730300000000       -1.08096400000000
C          109.63369399999999        2.50646400000000       -2.52696800000000
C          109.62156200000000        3.35184800000000       -3.74133200000000
C          109.14490000000001        2.83301300000000       -4.95076800000000
C          109.11828000000000        3.62969700000000       -6.09760800000000
C          109.56750400000000        4.95385200000000       -6.03912700000000
C          109.54142599999999        5.77293800000000       -7.21510100000000
N          109.52013800000000        6.43891900000000       -8.16713200000000
C          110.04161000000001        5.47836200000000       -4.83128800000000
C          110.06597499999999        4.67896900000000       -3.68654700000000
C          110.77007099999999        1.93420500000000       -2.05062700000000
C          112.05549100000000        2.10538400000000       -2.69625100000000
C          112.96457300000000        1.42532300000000       -2.00599800000000
N          110.97991000000000        1.12318200000000       -0.97067100000000
C          112.30408600000000        0.78562700000000       -0.88629900000000
C          112.96841100000000        0.01176500000000        0.01147000000000
C          112.17319400000000       -0.66166700000000        1.20443800000000
C          112.67444600000000       -0.99489000000000        2.44620600000000
C          111.63588999999999       -1.64509300000000        3.16100500000000
C          110.53200900000000       -1.68292100000000        2.33509400000000
N          110.84636000000000       -1.01422300000000        1.17883700000000
C          109.14518500000000       -2.37704800000000        2.64978600000000
C          109.15750300000001       -3.54049300000000        3.56399500000000
C          109.63580699999999       -4.77740600000000        3.11631900000000
C          109.66263600000001       -5.87632600000000        3.97787500000000
C          109.21200000000000       -5.74196200000000        5.29600700000000
C          109.23824000000000       -6.86873000000000        6.18155600000000
N          109.25960400000000       -7.78085100000000        6.90120500000000
C          108.73630500000000       -4.50630200000000        5.74947700000000
C          108.71176199999999       -3.40961200000000        4.88532800000000
C          108.00877800000001       -1.93476700000000        2.05086100000000
C          106.72340699999998       -2.56950500000000        2.25911700000000
C          105.81431700000000       -1.92002300000000        1.54003500000000
C          106.47475299999999       -0.83932200000000        0.83641200000000
N          107.79888600000000       -0.90371800000000        1.17851500000000
H          105.09893099999998        2.74097600000000       -0.97185200000000
H          107.08518900000000        4.03027300000000       -2.29444600000000
H          108.58999700000000        0.39486200000000       -0.80211300000000
H          108.79746999999999        1.80188000000000       -4.98483300000000
H          108.74559400000000        3.20520500000000       -7.02610500000000
H          110.39507099999999        6.50400500000000       -4.76683400000000
H          110.43432500000000        5.07433300000000       -2.74144600000000
H          112.25125799999999        2.67449500000000       -3.58709200000000
H          114.00866899999998        1.36784700000000       -2.25443300000000
H          113.68008799999998       -0.81140300000000        2.79312900000000
H          111.69383200000000       -2.05669200000000        4.15725500000000
H          110.18874699999999       -0.77758200000000        0.44159000000000
H          109.98436599999999       -4.87059700000000        2.08922500000000
H          110.03659200000000       -6.82741600000000        3.60803300000000
H          108.38173200000000       -4.38311000000000        6.76935000000000
H          108.34221599999999       -2.44360300000000        5.22514800000000
H          106.52768900000000       -3.42585400000000        2.87892900000000
H          104.77026499999999       -2.17154600000000        1.49693100000000
324
 energy: -568.919309537978 gnorm: 2.344053481974 xtb: 6.5.1 (b24c23e)
C           51.28115777042979       -0.02452278809049        0.09233199157236
C           52.00535311483078        1.34212525640372        0.17063084915805
C           51.40008398156090        2.56952268702546        0.34908932817586
C           52.42085880716905        3.55042185562018        0.30203301664758
C           53.62354351053423        2.89626848700317        0.08658757945773
N           53.35893270233148        1.54776150159042        0.05558293847090
C           55.03764380458991        3.56132129448838       -0.11519967971867
C           55.08157407725624        5.02968114762107       -0.31943587290083
C           55.38623744132703        5.88138704728036        0.74939025460542
C           55.41516596861999        7.26413489988435        0.56272870433469
C           55.13864274836639        7.80493859238650       -0.69810636021512
C           55.16945045087858        9.22527363096633       -0.89408748588468
N           55.19314000658041       10.37241195110909       -1.05800975800016
C           54.83196218849830        6.95653107335638       -1.76845280099568
C           54.80371863127827        5.57365415682550       -1.57766945967206
C           56.17411427869067        2.80647548436053       -0.13948690110555
C           57.47594319613106        3.38931912209187       -0.39164479607682
C           58.38036759110963        2.41573120111435       -0.37542986831815
N           56.36988190654220        1.46071364498038        0.02849015846908
C           57.70342264780707        1.16381427998992       -0.10106839428638
C           58.37528444511286       -0.02104456651272       -0.01412076334945
C           57.60356709053318       -1.36108705104802        0.31078464245711
C           58.15439956603414       -2.51740581733405        0.83861026645842
C           57.12867737105952       -3.48898933371694        0.91112539166647
C           55.96995459054651       -2.90459529635161        0.43523203502548
N           56.25923731590247       -1.59450871301276        0.12891100108364
C           54.56531656506476       -3.60364930706957        0.28157651493566
C           54.52861305329607       -5.08181364282114        0.19464998577856
C           54.18589208094841       -5.85280489045158        1.31244206068853
C           54.16449318929507       -7.24506031375646        1.22740757755086
C           54.48978936296115       -7.87737461535433        0.02166805717801
C           54.46612592255880       -9.30827396280942       -0.06856831154060
N           54.44794895760031      -10.46488211680816       -0.14213827792804
C           54.83644134274220       -7.10984354846090       -1.09692072864324
C           54.85481122484398       -5.71774662577207       -1.00856411881045
C           53.43195956367465       -2.85280689681959        0.19658120331160
C           52.10969095266108       -3.43337052066760        0.04128574641973
C           51.22164212902817       -2.44256811656970        0.00379080123581
C           51.94559787693746       -1.20068443068918        0.11703072482166
N           53.26847287222756       -1.49618380833704        0.22664500571943
H           50.20013679807460       -0.02786461823476       -0.00877389175039
H           50.34169599947707        2.73395077742252        0.48225864776520
H           52.29383883277526        4.61878870293764        0.39098880586709
H           54.05815881239368        0.81526728847845       -0.03473587156491
H           55.60467292168999        5.44744311749226        1.72401782661154
H           55.65491799453224        7.90680933991042        1.40553698173660
H           54.61626626741315        7.35740240711376       -2.75469225805090
H           54.56836187978808        4.90426538452258       -2.40216064691744
H           57.68856666758134        4.42612937252543       -0.57716999070242
H           59.43219060805869        2.55780556866665       -0.53915785751637
H           59.18776843232089       -2.65030064886863        1.12138714678498
H           57.22574815193074       -4.50686239339328        1.25347911138783
H           55.57144060349693       -0.89923915171515       -0.15030485498047
H           53.93150407626425       -5.34895251796222        2.24286775594590
H           53.89318598691948       -7.82456459407986        2.10569333878086
H           55.09458349793164       -7.58173132296441       -2.04152764763620
H           55.11837417537475       -5.10928382628777       -1.87290525656197
H           51.87855711965009       -4.47950470667027       -0.03154097050008