181
 energy: -318.889116310127 gnorm: 0.000908950287 xtb: 6.5.1 (b24c23e)
Zn          33.74267779313413        0.03825620451916        0.02021958988892
C           30.33329814579074        0.05868720923504        0.10481225731070
C           30.96485419579182        1.27755584044876        0.32010674168688
C           30.29255970558939        2.52723124571593        0.54174178512048
C           31.25278780569071        3.47095778174666        0.70550043692383
C           32.52490860970093        2.80620946152659        0.59754073261735
N           32.31471948787684        1.48067981420735        0.35474163986558
C           33.77764374718221        3.42411896828453        0.69849234635257
C           33.79148260928323        4.87984615028212        0.98338691915258
C           33.24591228053204        5.37537632986926        2.17008946864026
C           33.25321078861529        6.73258909717003        2.43723647203563
C           33.80474255535150        7.62565146978733        1.51367835902239
C           33.80854691170696        9.02343356546884        1.78255628725868
N           33.80805649509482       10.15405795063062        1.99746126343263
C           34.35168750755982        7.13532572961785        0.32407373687808
C           34.34602829423044        5.77617356422816        0.06665160308681
C           35.01609501212518        2.78862182861903        0.55436232614167
C           36.29686669278393        3.41929143620050        0.71762076657886
C           37.24121002955013        2.46566481578530        0.51375839359769
N           35.20681542598833        1.46341935198261        0.26774340552624
C           36.54839068480108        1.24300459282388        0.23114223689043
C           37.17686328694307        0.01251530447683       -0.04766655956966
C           36.52051262526435       -1.20715241218480       -0.30883137490874
C           37.18394691654224       -2.43685623255101       -0.62874317816359
C           36.21846223337921       -3.37483822081667       -0.80456347719094
C           34.95446907331743       -2.72839213911460       -0.58218198511709
N           35.17561167499961       -1.40837887094967       -0.29343987669482
C           33.70206797757194       -3.34651908834642       -0.67238672717721
C           33.68211169220950       -4.79980392631415       -0.96833960940528
C           33.06449248208312       -5.27892496244400       -2.12626974734055
C           33.04025722943042       -6.63378941486166       -2.40409312994895
C           33.63247117880962       -7.54113606895581       -1.52039996065751
C           33.60405220472575       -8.93653786056260       -1.79998955323992
N           33.57936192913421      -10.06471179902813       -2.02602003998545
C           34.25115794476893       -7.06742601909830       -0.35952588951526
C           34.27605414511189       -5.71062015056111       -0.09125662640150
C           32.46390942068710       -2.71343357172284       -0.50508812782510
C           31.17997455944113       -3.36281883010958       -0.54742889650950
C           30.24098282155475       -2.40837896615206       -0.33113798612296
C           30.93877961961830       -1.16722357041083       -0.14321027980515
N           32.28249425555312       -1.38625626109970       -0.24853576724820
H           29.24807847289048        0.06485752237872        0.13291828818400
H           29.22166099301995        2.65568884704143        0.55929030865292
H           31.11618873237490        4.52721608955118        0.87363237438819
H           32.82758244550253        4.68504797105569        2.89395285654065
H           32.83271991900614        7.10854516148882        3.36264062701495
H           34.77736141344953        7.82491620143471       -0.39552043067439
H           34.75972388123495        5.40113437056868       -0.86271780690056
H           36.45232763352514        4.45599654717573        0.96947941480248
H           38.31351926044541        2.57229231321275        0.55513774796374
H           38.25210499561534       -2.55765585031246       -0.71469295505578
H           36.34890844805732       -4.41056782742915       -1.07396714510237
H           32.61434587028902       -4.57770088704668       -2.82001029030433
H           32.56344831964254       -6.99693807840408       -3.30707927828935
H           34.70830764284490       -7.76805020072126        0.32948768456365
H           34.74510746426984       -5.34857740358924        0.81675041410963
H           31.02216012003436       -4.41708094118559       -0.70930680953403
H           29.16921854240017       -2.52422241810548       -0.29203928274678
Zn          60.70630796987358       -0.00101105899294        0.04253663698690
C           64.11632027593481       -0.02472817299981        0.10164111475451
C           63.48377489775017       -1.22966867354547        0.38242942119467
C           64.15551376804710       -2.46784180917609        0.66270983215279
C           63.19490402560814       -3.40117585140376        0.87595259250264
C           61.92306114438312       -2.74110851438410        0.73924409967766
N           62.13380490287376       -1.42901040228135        0.43237502154343
C           60.67044301001109       -3.35366097915995        0.86916274218023
C           60.65724513205941       -4.79344076471831        1.22627598437819
C           61.19999844444654       -5.22683530568536        2.43835984245423
C           61.19226592882049       -6.56838639594781        2.77532318779567
C           60.64319501405763       -7.50815848965836        1.89772621544004
C           60.63871222686605       -8.89004495325280        2.23894154777954
N           60.63683114703004      -10.00712127168859        2.51547463852636
C           60.09989267105772       -7.08020471604015        0.68266893686844
C           60.10594920693027       -5.73613006737863        0.35532999116843
C           59.43189271502575       -2.72614944622237        0.69397086226733
C           58.15084479229512       -3.35020077764134        0.88027416532820
C           57.20669915453740       -2.40590367762966        0.63678623580544
N           59.24149114545525       -1.41392730835247        0.35356124680148
C           57.89974902287087       -1.19465085604058        0.30840173894741
C           57.27205817278756        0.02834765954110       -0.00012600388890
C           57.92776810810864        1.23897311225027       -0.29885937206353
C           57.26340914863924        2.45878393639125       -0.65354928818646
C           58.22902288811544        3.38476701662187       -0.88288907810096
C           59.49454340576970        2.74177984573973       -0.65833403982908
N           59.27376412055013        1.43568496590895       -0.31239566393751
C           60.74752242954256        3.34862437905876       -0.80195901049621
C           60.76849147479346        4.78384763360533       -1.17603531452904
C           61.36357244955586        5.19317640102106       -2.37199686204868
C           61.38721100071072        6.52978193682259       -2.72728379170052
C           60.81706749599179        7.48889716998083       -1.88467122165559
C           60.84391719652902        8.86583882883315       -2.24437648676602
N           60.86713788400990        9.97788546852357       -2.53975837183180
C           60.22222792779032        7.08528358753323       -0.68552751467680
C           60.19785992965089        5.74610649029113       -0.33955454139678
C           61.98605550337432        2.71904459258615       -0.62520933220938
C           63.27118374954841        3.36087411696248       -0.71854982418701
C           64.21025723725113        2.41590347331077       -0.46453901726216
C           63.51155653993077        1.18840334320701       -0.20390996791713
N           62.16722302952446        1.40610337724741       -0.30394266624121
H           65.20170459117293       -0.03241227124545        0.12180597471781
H           65.22633766065279       -2.59654534503507        0.68262617270046
H           63.33080638450907       -4.44816324959591        1.09494506632460
H           61.61644243930225       -4.49985473758257        3.12656397865737
H           61.61036715886664       -6.89591774325147        3.72001899651846
H           59.67662228994663       -7.80622516877812       -0.00163285206243
H           59.69498901751775       -5.40982621837375       -0.59343240331212
H           57.99513133623202       -4.37593486340604        1.17344531721244
H           56.13435905777607       -2.51073440242919        0.68145042768556
H           56.19437999787839        2.58090657771210       -0.72572241206197
H           58.09745103105559        4.40985585397412       -1.18987598830015
H           61.79623780996111        4.45110148658634       -3.03363270491285
H           61.84618106377084        6.83840175040290       -3.65934334972337
H           59.78288140491625        7.82644340686413       -0.02809775017949
H           59.74733176545959        5.43901632456812        0.59759646187285
H           63.42967458712639        4.40472627078513       -0.93732863860768
H           65.28273998738092        2.53010249148596       -0.44502404327947
C           39.80487872729454       -0.00281000560141       -0.07301701551713
C           38.58265236436763        0.00198421895140       -0.06346340227906
C           41.15442383914869       -0.00144706727886       -0.08128074735988
C           42.37680184800247        0.00077644584586       -0.08003138181383
C           53.29219875895812        0.04774010018990       -0.02373003271603
C           52.07026954678111        0.04225798936245       -0.03314475255265
C           54.64288691102164        0.04535757588795       -0.01776534211254
C           55.86472645719053        0.03953633282793       -0.01286023979778
Zn          47.22257134025458        0.02230546197234       -0.05821079664636
C           43.78220203780707        0.00616212874660       -0.07506176570846
C           44.43348459034544       -1.16423243494698       -0.51386938717481
C           43.76374407910181       -2.35896907117827       -0.93496655791057
C           44.72580270835994       -3.25050986373573       -1.28591763908426
C           45.99320922378405       -2.60379448221607       -1.08964153035867
N           45.77866707881503       -1.33937046833004       -0.61090986817920
C           47.24374547840568       -3.18658312173326       -1.32363877483593
C           47.25231811632871       -4.56340906262419       -1.87673760177183
C           46.69624898639964       -4.82455123164511       -3.13127069553448
C           46.70659486805521       -6.10499538194228       -3.65461173169172
C           47.27124281655342       -7.15556315286155       -2.92509256135143
C           47.28199257194282       -8.47486022507244       -3.45950021637756
N           47.29292152906083       -9.54094032919520       -3.89256647899329
C           47.82537430009100       -6.90051346304024       -1.66709062125945
C           47.81694505381011       -5.61620096730803       -1.15301384193849
C           48.48664299775594       -2.58874073970252       -1.08643902364659
C           49.76243696118055       -3.18221192312619       -1.37536475533070
C           50.71268750170405       -2.28250667702738       -1.01384658834843
N           48.68451083798660       -1.33672526301478       -0.56978709747196
C           50.02749261823444       -1.12851072855407       -0.51137256587875
C           50.66340659701613        0.03738234061897       -0.04077630219441
C           50.01270280766549        1.19743954061829        0.42401653863742
C           50.68250897750514        2.35587496172794        0.93684305926491
C           49.72069055855377        3.24661600687632        1.29000774187799
C           48.45323352737858        2.64328130080411        0.98533192769346
N           48.66743623997182        1.39406201125172        0.46832302422607
C           47.20251516599844        3.22994308736127        1.20938673986681
C           47.19271777944638        4.60539805204185        1.76545431215849
C           46.61427004376215        4.85996248691360        3.01123087889623
C           46.60725179753143        6.13917981624918        3.53751949628285
C           47.17708431115538        7.19515578821249        2.81997588900936
C           47.17028336419871        8.51320987859225        3.35746376900519
N           47.16524202561886        9.57809071857799        3.79383393613667
C           47.75393042722412        6.94670791757970        1.57091187953719
C           47.76235401472744        5.66370873080415        1.05372784669609
C           45.95983086000697        2.63644815221108        0.96056880966310
C           44.68477379598632        3.27196335755591        1.14289799396276
C           43.73442767447353        2.37175732627472        0.78234801443171
C           44.41904297133085        1.18286584074394        0.36876710479368
N           45.76154735854038        1.37014058809013        0.47954192906096
H           42.69395738559952       -2.49399609335613       -0.95103328045915
H           44.59036107067689       -4.26161282724549       -1.63464549490829
H           46.26784031410457       -4.01022663214494       -3.70476609932563
H           46.27911637531072       -6.29832939450028       -4.63155265995814
H           48.25998106596316       -7.71325570467155       -1.09693352964695
H           48.23756421067267       -5.42440656539051       -0.17229687000150
H           49.91125198579912       -4.15698296108346       -1.81118197984430
H           51.78406005202254       -2.38135545499424       -1.08645071753408
H           51.75212906557346        2.46359799493645        1.02183839200047
H           49.85667168030120        4.22122329130745        1.73036387028908
H           46.18204908090446        4.04147746284466        3.57582590551275
H           46.16216695290309        6.32736876441282        4.50755162905300
H           48.19291476198021        7.76363747236355        1.01019480001208
H           48.20032490872121        5.47709922297064        0.07962332424850
H           44.53650290421968        4.28209516107447        1.48921552979419
H           42.66344066267434        2.49771899623487        0.78707997376915
