      -----------------------------------------------------------      
     |                   =====================                   |     
     |                           x T B                           |     
     |                   =====================                   |     
     |                         S. Grimme                         |     
     |          Mulliken Center for Theoretical Chemistry        |     
     |                    University of Bonn                     |     
      -----------------------------------------------------------      

   * xtb version 6.5.1 (b24c23e) compiled by 'conda@728c89f4b128' on 2022-07-12

   xtb is free software: you can redistribute it and/or modify it under
   the terms of the GNU Lesser General Public License as published by
   the Free Software Foundation, either version 3 of the License, or
   (at your option) any later version.
   
   xtb is distributed in the hope that it will be useful,
   but WITHOUT ANY WARRANTY; without even the implied warranty of
   MERCHANTABILITY or FITNESS FOR A PARTICULAR PURPOSE.  See the
   GNU Lesser General Public License for more details.
   
   Cite this work as:
   * C. Bannwarth, E. Caldeweyher, S. Ehlert, A. Hansen, P. Pracht,
     J. Seibert, S. Spicher, S. Grimme, WIREs Comput. Mol. Sci., 2020, 11,
     e01493. DOI: 10.1002/wcms.1493
   
   for GFN2-xTB:
   * C. Bannwarth, S. Ehlert and S. Grimme., J. Chem. Theory Comput., 2019,
     15, 1652-1671. DOI: 10.1021/acs.jctc.8b01176
   for GFN1-xTB:
   * S. Grimme, C. Bannwarth, P. Shushkov, J. Chem. Theory Comput., 2017,
     13, 1989-2009. DOI: 10.1021/acs.jctc.7b00118
   for GFN0-xTB:
   * P. Pracht, E. Caldeweyher, S. Ehlert, S. Grimme, ChemRxiv, 2019, preprint.
     DOI: 10.26434/chemrxiv.8326202.v1
   for GFN-FF:
   * S. Spicher and S. Grimme, Angew. Chem. Int. Ed., 2020, 59, 15665-15673.
     DOI: 10.1002/anie.202004239
   
   for ALPB and GBSA implicit solvation:
   * S. Ehlert, M. Stahn, S. Spicher, S. Grimme, J. Chem. Theory Comput.,
     2021, 17, 4250-4261. DOI: 10.1021/acs.jctc.1c00471
   
   for DFT-D4:
   * E. Caldeweyher, C. Bannwarth and S. Grimme, J. Chem. Phys., 2017,
     147, 034112. DOI: 10.1063/1.4993215
   * E. Caldeweyher, S. Ehlert, A. Hansen, H. Neugebauer, S. Spicher,
     C. Bannwarth and S. Grimme, J. Chem. Phys., 2019, 150, 154122.
     DOI: 10.1063/1.5090222
   * E. Caldeweyher, J.-M. Mewes, S. Ehlert and S. Grimme, Phys. Chem. Chem. Phys.
     2020, 22, 8499-8512. DOI: 10.1039/D0CP00502A
   
   for sTDA-xTB:
   * S. Grimme and C. Bannwarth, J. Chem. Phys., 2016, 145, 054103.
     DOI: 10.1063/1.4959605
   
   in the mass-spec context:
   * V. Asgeirsson, C. Bauer and S. Grimme, Chem. Sci., 2017, 8, 4879.
     DOI: 10.1039/c7sc00601b
   * J. Koopman and S. Grimme, ACS Omega 2019, 4, 12, 15120-15133.
     DOI: 10.1021/acsomega.9b02011
   
   for metadynamics refer to:
   * S. Grimme, J. Chem. Theory Comput., 2019, 155, 2847-2862
     DOI: 10.1021/acs.jctc.9b00143
   
   for SPH calculations refer to:
   * S. Spicher and S. Grimme, J. Chem. Theory Comput., 2021, 17, 1701-1714
     DOI: 10.1021/acs.jctc.0c01306
   
   with help from (in alphabetical order)
   P. Atkinson, C. Bannwarth, F. Bohle, G. Brandenburg, E. Caldeweyher
   M. Checinski, S. Dohm, S. Ehlert, S. Ehrlich, I. Gerasimov, C. Hölzer
   A. Katbashev, J. Koopman, C. Lavigne, S. Lehtola, F. März, M. Müller,
   F. Musil, H. Neugebauer, J. Pisarek, C. Plett, P. Pracht, F. Pultar,
   J. Seibert, P. Shushkov, S. Spicher, M. Stahn, M. Steiner, T. Strunk,
   J. Stückrath, T. Rose, and J. Unsleber
   
 * started run on 2022/07/30 at 07:34:50.301     

           -------------------------------------------------
          |                Calculation Setup                |
           -------------------------------------------------

          program call               : xtb Cu_PhNH2_C6_2.xyz --gfn 1 --opt -T 48
          hostname                   : cx3-15-11.cx3.hpc.ic.ac.uk
          coordinate file            : Cu_PhNH2_C6_2.xyz
          omp threads                :                     1

   ID    Z sym.   atoms
    1   29 Cu     1, 61
    2    6 C      2-6, 8-12, 14-18, 20-25, 27-31, 33-38, 62-66, 68-72, 74-78,
                  80-85, 87-91, 93-98, 121-126
    3    7 N      7, 13, 19, 26, 32, 39, 67, 73, 79, 86, 92, 99
    4    1 H      40-60, 100-120
########################################################################
[WARNING] Please study the warnings concerning your input carefully
-1- prog_main_parseArguments: Unknown option '-T' provided
########################################################################

           -------------------------------------------------
          |                 G F N 1 - x T B                 |
           -------------------------------------------------

        Reference                      10.1021/acs.jctc.7b00118
      * Hamiltonian:
        H0-scaling (s, p, d)           1.850000    2.250000    2.000000
        zeta-weighting                 0.000000
      * Dispersion:
        s8                             2.400000
        a1                             0.630000
        a2                             5.000000
        s9                             0.000000
      * Repulsion:
        kExp                           1.500000
        rExp                           1.000000
      * Coulomb:
        alpha                          2.000000
        third order                    atomic
        anisotropic                    false
      * Halogen bond correction:
        rad-scale                      1.300000
        damping                        0.440000


          ...................................................
          :                      SETUP                      :
          :.................................................:
          :  # basis functions                 432          :
          :  # atomic orbitals                 430          :
          :  # shells                          254          :
          :  # electrons                       404          :
          :  # halogen bonds                     0          :
          :  max. iterations                   250          :
          :  Hamiltonian                  GFN1-xTB          :
          :  restarted?                      false          :
          :  GBSA solvation                  false          :
          :  PC potential                    false          :
          :  electronic temp.          300.0000000     K    :
          :  accuracy                    1.0000000          :
          :  -> integral cutoff          0.2500000E+02      :
          :  -> integral neglect         0.1000000E-07      :
          :  -> SCF convergence          0.1000000E-05 Eh   :
          :  -> wf. convergence          0.2000000E-04 e    :
          :  Broyden damping             0.4000000          :
          ...................................................

 iter      E             dE          RMSdq      gap      omega  full diag
   1   -220.9699727 -0.220970E+03  0.105E+01    0.00       0.0  T
   2   -221.1192528 -0.149280E+00  0.630E+00    0.00       1.0  T
   3   -220.9474233  0.171830E+00  0.906E-01    0.05       1.0  T
   4   -220.8956390  0.517843E-01  0.842E-01    0.25       1.0  T
   5   -220.8347657  0.608733E-01  0.923E-01    0.53       1.0  T
   6   -221.0027286 -0.167963E+00  0.662E-01    0.14       1.0  T
   7   -221.0548309 -0.521024E-01  0.527E-01    0.09       1.0  T
   8   -221.1379386 -0.831077E-01  0.769E-02    0.01       1.0  T
   9   -221.1269410  0.109976E-01  0.198E-01    0.03       1.0  T
  10   -221.1380182 -0.110772E-01  0.601E-02    0.01       1.0  T
  11   -221.1298458  0.817234E-02  0.173E-01    0.02       1.0  T
  12   -221.1392126 -0.936679E-02  0.108E-02    0.00       1.0  T
  13   -221.1379752  0.123741E-02  0.641E-02    0.01       1.0  T
  14   -221.1391898 -0.121456E-02  0.142E-02    0.00       1.0  T
  15   -221.1392172 -0.274393E-04  0.109E-02    0.00       1.0  T
  16   -221.1392545 -0.372965E-04  0.410E-04    0.00      21.7  T
  17   -221.1392543  0.187196E-06  0.865E-04    0.00      10.3  T
  18   -221.1392546 -0.231359E-06  0.108E-04    0.00      82.2  T
  19   -221.1392546  0.424839E-08  0.156E-04    0.00      57.1  T

   *** convergence criteria satisfied after 19 iterations ***

         #    Occupation            Energy/Eh            Energy/eV
      -------------------------------------------------------------
         1        2.0000           -0.7684944             -20.9118
       ...           ...                  ...                  ...
       196        2.0000           -0.3875293             -10.5452
       197        2.0000           -0.3874240             -10.5423
       198        2.0000           -0.3864650             -10.5162
       199        2.0000           -0.3861756             -10.5084
       200        2.0000           -0.3754406             -10.2163
       201        2.0000           -0.3718964             -10.1198
       202        1.0077           -0.3388640              -9.2210 (HOMO)
       203        0.9903           -0.3388308              -9.2201 (LUMO)
       204        0.0020           -0.3322782              -9.0417
       205                         -0.3196400              -8.6978
       206                         -0.3154183              -8.5830
       207                         -0.3130205              -8.5177
       ...                                ...                  ...
       430                          1.6134900              43.9053
      -------------------------------------------------------------
                  HL-Gap            0.0000332 Eh            0.0009 eV
             Fermi-level           -0.3388492 Eh           -9.2206 eV

 SCC (total)                   0 d,  0 h,  0 min,  1.348 sec
 SCC setup                      ...        0 min,  0.006 sec (  0.415%)
 Dispersion                     ...        0 min,  0.004 sec (  0.287%)
 classical contributions        ...        0 min,  0.001 sec (  0.110%)
 integral evaluation            ...        0 min,  0.123 sec (  9.119%)
 iterations                     ...        0 min,  0.905 sec ( 67.109%)
 molecular gradient             ...        0 min,  0.297 sec ( 22.025%)
 printout                       ...        0 min,  0.013 sec (  0.930%)

         :::::::::::::::::::::::::::::::::::::::::::::::::::::
         ::                     SUMMARY                     ::
         :::::::::::::::::::::::::::::::::::::::::::::::::::::
         :: total energy            -217.671082132685 Eh    ::
         :: gradient norm              0.516489123697 Eh/a0 ::
         :: HOMO-LUMO gap              0.000902874223 eV    ::
         ::.................................................::
         :: SCC energy              -221.139254560159 Eh    ::
         :: -> electrostatic           0.180324705512 Eh    ::
         :: repulsion energy           3.577178387828 Eh    ::
         :: dispersion energy         -0.109005960354 Eh    ::
         :: halogen bond corr.         0.000000000000 Eh    ::
         :: add. restraining           0.000000000000 Eh    ::
         :: total charge              -0.000000000001 e     ::
         :::::::::::::::::::::::::::::::::::::::::::::::::::::

      ----------------------------------------------------------- 
     |                   =====================                   |
     |                        A N C O P T                        |
     |                   =====================                   |
     |               Approximate Normal Coordinate               |
     |                Rational Function Optimizer                |
      ----------------------------------------------------------- 

          ...................................................
          :                      SETUP                      :
          :.................................................:
          :   optimization level            normal          :
          :   max. optcycles                   378          :
          :   ANC micro-cycles                  20          :
          :   degrees of freedom               372          :
          :.................................................:
          :   RF solver                   davidson          :
          :   write xtbopt.log                true          :
          :   linear?                        false          :
          :   energy convergence         0.5000000E-05 Eh   :
          :   grad. convergence          0.1000000E-02 Eh/α :
          :   maximium RF displ.         1.0000000          :
          :   Hlow (freq-cutoff)         0.1000000E-01      :
          :   Hmax (freq-cutoff)         5.0000000          :
          :   S6 in model hess.         20.0000000          :
          ...................................................

generating ANC from model Hessian ...
Using Lindh-Hessian (1995)
 Shifting diagonal of input Hessian by    1.0019050365023575E-002
 Lowest  eigenvalues of input Hessian
    0.010000    0.010005    0.010015    0.000000    0.000000    0.000000
    0.000000    0.000000    0.000000    0.010030    0.010042    0.010135
    0.010149    0.010279    0.010391    0.010443    0.010478    0.010481
 Highest eigenvalues
    2.101645    2.156254    2.205394    2.441162    2.881966    2.997754


........................................................................
.............................. CYCLE    1 ..............................
........................................................................
   1   -221.1392546 -0.221139E+03  0.234E-05    0.00       0.0  T
   2   -221.1392543  0.225405E-06  0.830E-04    0.00      10.7  T
   3   -221.1392546 -0.225527E-06  0.122E-05    0.00     729.0  T
   4   -221.1392546 -0.494822E-10  0.213E-06    0.00    4183.5  T
     SCC iter.                  ...        0 min,  0.198 sec
     gradient                   ...        0 min,  0.300 sec
 * total energy  :  -217.6710821 Eh     change       -0.7685458E-08 Eh
   gradient norm :     0.5164890 Eh/α   predicted     0.0000000E+00 (-100.00%)
   displ. norm   :     0.4195356 α      lambda       -0.1700600E+00
   maximum displ.:     0.1239126 α      in ANC's #249, #216, #292, ...

........................................................................
.............................. CYCLE    2 ..............................
........................................................................
   1   -221.2087448 -0.221209E+03  0.144E-01    0.00       0.0  T
   2   -221.2113609 -0.261615E-02  0.814E-02    0.01       1.0  T
   3   -221.1453835  0.659774E-01  0.454E-01    0.07       1.0  T
   4   -221.2041729 -0.587894E-01  0.164E-01    0.02       1.0  T
   5   -221.2125949 -0.842196E-02  0.241E-02    0.01       1.0  T
   6   -221.2126652 -0.703123E-04  0.130E-02    0.00       1.0  T
   7   -221.2127227 -0.574904E-04  0.203E-03    0.00       4.4  T
   8   -221.2127236 -0.974654E-06  0.130E-03    0.00       6.8  T
   9   -221.2127241 -0.442086E-06  0.260E-04    0.00      34.3  T
  10   -221.2127240  0.108179E-06  0.601E-04    0.00      14.8  T
  11   -221.2127241 -0.964387E-07  0.262E-04    0.00      34.0  T
  12   -221.2127241 -0.225444E-07  0.151E-05    0.00     588.4  T
  13   -221.2127241  0.215493E-09  0.292E-05    0.00     305.2  T
     SCC iter.                  ...        0 min,  0.627 sec
     gradient                   ...        0 min,  0.298 sec
 * total energy  :  -217.7965497 Eh     change       -0.1254675E+00 Eh
   gradient norm :     0.2567314 Eh/α   predicted    -0.1000217E+00 ( -20.28%)
   displ. norm   :     0.4269977 α      lambda       -0.8276226E-01
   maximum displ.:     0.1072946 α      in ANC's #364, #137, #249, ...

........................................................................
.............................. CYCLE    3 ..............................
........................................................................
   1   -221.2837483 -0.221284E+03  0.159E-01    0.01       0.0  T
   2   -221.2853323 -0.158403E-02  0.984E-02    0.02       1.0  T
   3   -221.1123197  0.173013E+00  0.727E-01    0.22       1.0  T
   4   -221.2855914 -0.173272E+00  0.918E-02    0.02       1.0  T
   5   -221.2872005 -0.160911E-02  0.601E-02    0.01       1.0  T
   6   -221.2883122 -0.111169E-02  0.105E-02    0.01       1.0  T
   7   -221.2878955  0.416726E-03  0.370E-02    0.01       1.0  T
   8   -221.2883398 -0.444330E-03  0.234E-03    0.01       3.8  T
   9   -221.2883107  0.290562E-04  0.978E-03    0.01       1.0  T
  10   -221.2883390 -0.282255E-04  0.293E-03    0.01       3.0  T
  11   -221.2883373  0.165765E-05  0.372E-03    0.01       2.4  T
  12   -221.2883417 -0.441683E-05  0.517E-04    0.01      17.2  T
  13   -221.2883418 -0.427422E-07  0.374E-04    0.01      23.8  T
  14   -221.2883418 -0.444520E-07  0.482E-05    0.01     184.8  T
  15   -221.2883418 -0.687209E-09  0.146E-05    0.01     610.7  T
     SCC iter.                  ...        0 min,  0.732 sec
     gradient                   ...        0 min,  0.298 sec
 * total energy  :  -217.8489883 Eh     change       -0.5243866E-01 Eh
   gradient norm :     0.0800003 Eh/α   predicted    -0.4892604E-01 (  -6.70%)
   displ. norm   :     0.4222120 α      lambda       -0.1627441E-01
   maximum displ.:     0.1334051 α      in ANC's #36, #126, #84, ...

........................................................................
.............................. CYCLE    4 ..............................
........................................................................
   1   -221.3156352 -0.221316E+03  0.663E-02    0.01       0.0  T
   2   -221.3154715  0.163725E-03  0.503E-02    0.02       1.0  T
   3   -221.1913183  0.124153E+00  0.616E-01    0.13       1.0  T
   4   -221.3161447 -0.124826E+00  0.231E-02    0.01       1.0  T
   5   -221.3163108 -0.166149E-03  0.121E-02    0.01       1.0  T
   6   -221.3163521 -0.413184E-04  0.354E-03    0.01       2.5  T
   7   -221.3163490  0.313657E-05  0.402E-03    0.01       2.2  T
   8   -221.3163542 -0.516018E-05  0.435E-04    0.01      20.5  T
   9   -221.3163540  0.133198E-06  0.762E-04    0.01      11.7  T
  10   -221.3163542 -0.166999E-06  0.250E-04    0.01      35.6  T
  11   -221.3163542 -0.139873E-07  0.152E-04    0.01      58.5  T
  12   -221.3163542 -0.317741E-08  0.115E-04    0.01      77.6  T
     SCC iter.                  ...        0 min,  0.578 sec
     gradient                   ...        0 min,  0.300 sec
 * total energy  :  -217.8601230 Eh     change       -0.1113465E-01 Eh
   gradient norm :     0.0365514 Eh/α   predicted    -0.9587811E-02 ( -13.89%)
   displ. norm   :     0.4742950 α      lambda       -0.6919699E-02
   maximum displ.:     0.1890700 α      in ANC's #36, #28, #34, ...

........................................................................
.............................. CYCLE    5 ..............................
........................................................................
   1   -221.3237560 -0.221324E+03  0.302E-02    0.01       0.0  T
   2   -221.3235829  0.173119E-03  0.294E-02    0.01       1.0  T
   3   -221.2688210  0.547619E-01  0.412E-01    0.07       1.0  T
   4   -221.3238218 -0.550008E-01  0.112E-02    0.01       1.0  T
   5   -221.3238702 -0.484469E-04  0.500E-03    0.01       1.8  T
   6   -221.3238763 -0.605963E-05  0.155E-03    0.01       5.7  T
   7   -221.3238764 -0.733538E-07  0.629E-04    0.01      14.2  T
   8   -221.3238765 -0.968155E-07  0.199E-04    0.01      44.8  T
   9   -221.3238765 -0.811650E-08  0.745E-05    0.01     119.6  T
     SCC iter.                  ...        0 min,  0.438 sec
     gradient                   ...        0 min,  0.320 sec
 * total energy  :  -217.8651300 Eh     change       -0.5006994E-02 Eh
   gradient norm :     0.0217612 Eh/α   predicted    -0.4238166E-02 ( -15.36%)
   displ. norm   :     0.5177495 α      lambda       -0.3994425E-02
   maximum displ.:     0.2223651 α      in ANC's #36, #28, #34, ...

........................................................................
.............................. CYCLE    6 ..............................
........................................................................
   1   -221.3260859 -0.221326E+03  0.196E-02    0.01       0.0  T
   2   -221.3212014  0.488459E-02  0.124E-01    0.02       1.0  T
   3   -221.3234774 -0.227604E-02  0.914E-02    0.02       1.0  T
   4   -221.3261125 -0.263507E-02  0.573E-03    0.01       1.6  T
   5   -221.3261208 -0.833134E-05  0.372E-03    0.01       2.4  T
   6   -221.3261247 -0.388415E-05  0.101E-03    0.01       8.8  T
   7   -221.3261248 -0.146936E-06  0.290E-04    0.01      30.8  T
   8   -221.3261248 -0.137086E-07  0.108E-04    0.01      82.8  T
   9   -221.3261248 -0.237293E-08  0.509E-05    0.01     175.1  T
     SCC iter.                  ...        0 min,  0.434 sec
     gradient                   ...        0 min,  0.297 sec
 * total energy  :  -217.8679324 Eh     change       -0.2802411E-02 Eh
   gradient norm :     0.0191163 Eh/α   predicted    -0.2532598E-02 (  -9.63%)
   displ. norm   :     0.5411580 α      lambda       -0.2707626E-02
   maximum displ.:     0.2152520 α      in ANC's #36, #28, #20, ...

........................................................................
.............................. CYCLE    7 ..............................
........................................................................
   1   -221.3320628 -0.221332E+03  0.136E-02    0.01       0.0  T
   2   -221.3319388  0.124008E-03  0.216E-02    0.01       1.0  T
   3   -221.3211911  0.107477E-01  0.186E-01    0.03       1.0  T
   4   -221.3320748 -0.108838E-01  0.369E-03    0.01       2.4  T
   5   -221.3320748  0.815979E-07  0.251E-03    0.01       3.5  T
   6   -221.3320771 -0.235975E-05  0.851E-04    0.01      10.5  T
   7   -221.3320773 -0.207232E-06  0.278E-04    0.01      32.1  T
   8   -221.3320773 -0.159983E-07  0.608E-05    0.01     146.6  T
   9   -221.3320773 -0.760366E-09  0.227E-05    0.01     391.9  T
     SCC iter.                  ...        0 min,  0.439 sec
     gradient                   ...        0 min,  0.297 sec
 * total energy  :  -217.8695376 Eh     change       -0.1605246E-02 Eh
   gradient norm :     0.0211680 Eh/α   predicted    -0.1750290E-02 (   9.04%)
   displ. norm   :     0.4218560 α      lambda       -0.1737159E-02
   maximum displ.:     0.1912535 α      in ANC's #20, #36, #28, ...

........................................................................
.............................. CYCLE    8 ..............................
........................................................................
   1   -221.3390302 -0.221339E+03  0.894E-03    0.01       0.0  T
   2   -221.3390260  0.421109E-05  0.697E-03    0.01       1.3  T
   3   -221.3341053  0.492065E-02  0.125E-01    0.02       1.0  T
   4   -221.3390347 -0.492937E-02  0.392E-03    0.01       2.3  T
   5   -221.3390383 -0.356799E-05  0.149E-03    0.01       6.0  T
   6   -221.3390388 -0.507953E-06  0.745E-04    0.01      12.0  T
   7   -221.3390389 -0.177319E-06  0.179E-04    0.01      49.8  T
   8   -221.3390389 -0.603902E-08  0.525E-05    0.01     169.6  T
     SCC iter.                  ...        0 min,  0.381 sec
     gradient                   ...        0 min,  0.294 sec
 * total energy  :  -217.8707554 Eh     change       -0.1217782E-02 Eh
   gradient norm :     0.0149140 Eh/α   predicted    -0.1023158E-02 ( -15.98%)
   displ. norm   :     0.4363921 α      lambda       -0.1412304E-02
   maximum displ.:     0.2149415 α      in ANC's #20, #21, #22, ...

........................................................................
.............................. CYCLE    9 ..............................
........................................................................
   1   -221.3463092 -0.221346E+03  0.102E-02    0.01       0.0  T
   2   -221.3389032  0.740594E-02  0.154E-01    0.02       1.0  T
   3   -221.3462215 -0.731830E-02  0.183E-02    0.01       1.0  T
   4   -221.3463203 -0.988010E-04  0.378E-03    0.01       2.4  T
   5   -221.3463250 -0.468988E-05  0.165E-03    0.01       5.4  T
   6   -221.3463253 -0.302717E-06  0.653E-04    0.01      13.6  T
   7   -221.3463254 -0.103355E-06  0.153E-04    0.01      58.1  T
   8   -221.3463254 -0.421247E-08  0.666E-05    0.01     133.8  T
     SCC iter.                  ...        0 min,  0.368 sec
     gradient                   ...        0 min,  0.298 sec
 * total energy  :  -217.8718307 Eh     change       -0.1075229E-02 Eh
   gradient norm :     0.0142818 Eh/α   predicted    -0.8406335E-03 ( -21.82%)
   displ. norm   :     0.6177664 α      lambda       -0.1981652E-02
   maximum displ.:     0.3250616 α      in ANC's #20, #21, #34, ...

........................................................................
.............................. CYCLE   10 ..............................
........................................................................
   1   -221.3522702 -0.221352E+03  0.193E-02    0.01       0.0  T
   2   -221.3402250  0.120451E-01  0.196E-01    0.03       1.0  T
   3   -221.3517713 -0.115463E-01  0.419E-02    0.01       1.0  T
   4   -221.3522741 -0.502757E-03  0.814E-03    0.01       1.1  T
   5   -221.3522952 -0.211611E-04  0.342E-03    0.01       2.6  T
   6   -221.3522990 -0.373011E-05  0.769E-04    0.01      11.6  T
   7   -221.3522990 -0.783293E-07  0.330E-04    0.01      27.0  T
   8   -221.3522990 -0.456703E-08  0.192E-04    0.01      46.4  T
   9   -221.3522991 -0.110728E-07  0.751E-05    0.01     118.7  T
     SCC iter.                  ...        0 min,  0.441 sec
     gradient                   ...        0 min,  0.302 sec
 * total energy  :  -217.8732542 Eh     change       -0.1423513E-02 Eh
   gradient norm :     0.0248466 Eh/α   predicted    -0.1368978E-02 (  -3.83%)
   displ. norm   :     0.5697594 α      lambda       -0.1885977E-02
   maximum displ.:     0.2729252 α      in ANC's #20, #21, #22, ...

........................................................................
.............................. CYCLE   11 ..............................
........................................................................
   1   -221.3466680 -0.221347E+03  0.271E-02    0.01       0.0  T
   2   -221.3392156  0.745238E-02  0.155E-01    0.02       1.0  T
   3   -221.3446718 -0.545620E-02  0.821E-02    0.01       1.0  T
   4   -221.3466922 -0.202039E-02  0.874E-03    0.01       1.0  T
   5   -221.3466936 -0.135772E-05  0.474E-03    0.01       1.9  T
   6   -221.3467031 -0.946786E-05  0.164E-03    0.01       5.4  T
   7   -221.3467042 -0.115013E-05  0.567E-04    0.01      15.7  T
   8   -221.3467043 -0.513787E-07  0.195E-04    0.01      45.6  T
   9   -221.3467043 -0.345517E-08  0.829E-05    0.01     107.5  T
     SCC iter.                  ...        0 min,  0.440 sec
     gradient                   ...        0 min,  0.305 sec
 * total energy  :  -217.8746266 Eh     change       -0.1372401E-02 Eh
   gradient norm :     0.0355372 Eh/α   predicted    -0.1249108E-02 (  -8.98%)
   displ. norm   :     0.3903969 α      lambda       -0.2259078E-02
   maximum displ.:     0.1458047 α      in ANC's #20, #22, #21, ...

........................................................................
.............................. CYCLE   12 ..............................
........................................................................
   1   -221.3444744 -0.221344E+03  0.220E-02    0.01       0.0  T
   2   -221.3444516  0.227013E-04  0.198E-02    0.01       1.0  T
   3   -221.3187896  0.256621E-01  0.287E-01    0.04       1.0  T
   4   -221.3445198 -0.257302E-01  0.101E-02    0.01       1.0  T
   5   -221.3445344 -0.146795E-04  0.467E-03    0.01       1.9  T
   6   -221.3445384 -0.392191E-05  0.209E-03    0.01       4.3  T
   7   -221.3445401 -0.172578E-05  0.706E-04    0.01      12.6  T
   8   -221.3445403 -0.192575E-06  0.191E-04    0.01      46.6  T
   9   -221.3445403 -0.984528E-09  0.990E-05    0.01      90.0  T
     SCC iter.                  ...        0 min,  0.437 sec
     gradient                   ...        0 min,  0.301 sec
 * total energy  :  -217.8760614 Eh     change       -0.1434804E-02 Eh
   gradient norm :     0.0279900 Eh/α   predicted    -0.1301693E-02 (  -9.28%)
   displ. norm   :     0.3586070 α      lambda       -0.1799035E-02
   maximum displ.:     0.1614560 α      in ANC's #20, #21, #22, ...

........................................................................
.............................. CYCLE   13 ..............................
........................................................................
   1   -221.3341407 -0.221334E+03  0.234E-02    0.01       0.0  T
   2   -221.3224990  0.116417E-01  0.194E-01    0.03       1.0  T
   3   -221.3322390 -0.974001E-02  0.805E-02    0.01       1.0  T
   4   -221.3342127 -0.197370E-02  0.812E-03    0.01       1.1  T
   5   -221.3342079  0.482078E-05  0.557E-03    0.01       1.6  T
   6   -221.3342169 -0.896001E-05  0.200E-03    0.01       4.5  T
   7   -221.3342186 -0.173008E-05  0.585E-04    0.01      15.2  T
   8   -221.3342187 -0.905717E-07  0.200E-04    0.01      44.5  T
   9   -221.3342187 -0.918305E-10  0.972E-05    0.01      91.6  T
  10   -221.3342187 -0.276691E-08  0.429E-05    0.01     207.8  T
     SCC iter.                  ...        0 min,  0.478 sec
     gradient                   ...        0 min,  0.295 sec
 * total energy  :  -217.8771044 Eh     change       -0.1042989E-02 Eh
   gradient norm :     0.0260322 Eh/α   predicted    -0.1015196E-02 (  -2.66%)
   displ. norm   :     0.2419583 α      lambda       -0.1536855E-02
   maximum displ.:     0.0899872 α      in ANC's #28, #18, #8, ...

........................................................................
.............................. CYCLE   14 ..............................
........................................................................
   1   -221.3374481 -0.221337E+03  0.198E-02    0.01       0.0  T
   2   -221.3154906  0.219575E-01  0.266E-01    0.04       1.0  T
   3   -221.3369341 -0.214434E-01  0.434E-02    0.01       1.0  T
   4   -221.3375024 -0.568303E-03  0.483E-03    0.01       1.8  T
   5   -221.3375019  0.466585E-06  0.339E-03    0.01       2.6  T
   6   -221.3375057 -0.380709E-05  0.130E-03    0.01       6.9  T
   7   -221.3375062 -0.461725E-06  0.459E-04    0.01      19.4  T
   8   -221.3375062 -0.558369E-07  0.145E-04    0.01      61.5  T
   9   -221.3375062 -0.275253E-08  0.730E-05    0.01     122.1  T
     SCC iter.                  ...        0 min,  0.431 sec
     gradient                   ...        0 min,  0.300 sec
 * total energy  :  -217.8778527 Eh     change       -0.7483506E-03 Eh
   gradient norm :     0.0204140 Eh/α   predicted    -0.8134240E-03 (   8.70%)
   displ. norm   :     0.3604136 α      lambda       -0.1025385E-02
   maximum displ.:     0.1573652 α      in ANC's #20, #12, #21, ...

........................................................................
.............................. CYCLE   15 ..............................
........................................................................
   1   -221.3259142 -0.221326E+03  0.294E-02    0.01       0.0  T
   2   -221.3253693  0.544858E-03  0.464E-02    0.01       1.0  T
   3   -221.3006976  0.246717E-01  0.285E-01    0.04       1.0  T
   4   -221.3259147 -0.252171E-01  0.108E-02    0.01       1.0  T
   5   -221.3259290 -0.142866E-04  0.611E-03    0.01       1.5  T
   6   -221.3259475 -0.184886E-04  0.145E-03    0.01       6.2  T
   7   -221.3259481 -0.591673E-06  0.572E-04    0.01      15.6  T
   8   -221.3259481 -0.447730E-07  0.206E-04    0.01      43.3  T
   9   -221.3259481 -0.516965E-08  0.703E-05    0.01     126.7  T
  10   -221.3259481 -0.182024E-08  0.400E-05    0.01     222.9  T
     SCC iter.                  ...        0 min,  0.477 sec
     gradient                   ...        0 min,  0.319 sec
 * total energy  :  -217.8780570 Eh     change       -0.2042699E-03 Eh
   gradient norm :     0.0251704 Eh/α   predicted    -0.5792919E-03 ( 183.59%)
   displ. norm   :     0.1572809 α      lambda       -0.1170112E-02
   maximum displ.:     0.0623836 α      in ANC's #28, #34, #90, ...

........................................................................
.............................. CYCLE   16 ..............................
........................................................................
   1   -221.3381470 -0.221338E+03  0.188E-02    0.01       0.0  T
   2   -221.3371759  0.971132E-03  0.570E-02    0.01       1.0  T
   3   -221.3346806  0.249534E-02  0.106E-01    0.02       1.0  T
   4   -221.3381430 -0.346242E-02  0.661E-03    0.01       1.3  T
   5   -221.3381542 -0.112455E-04  0.289E-03    0.01       3.1  T
   6   -221.3381577 -0.347155E-05  0.934E-04    0.01       9.5  T
   7   -221.3381579 -0.239812E-06  0.373E-04    0.01      23.9  T
   8   -221.3381580 -0.273976E-07  0.126E-04    0.01      70.9  T
   9   -221.3381580 -0.342914E-08  0.345E-05    0.01     258.0  T
     SCC iter.                  ...        0 min,  0.434 sec
     gradient                   ...        0 min,  0.320 sec
 * total energy  :  -217.8785114 Eh     change       -0.4544612E-03 Eh
   gradient norm :     0.0124281 Eh/α   predicted    -0.5995403E-03 (  31.92%)
   displ. norm   :     0.1272866 α      lambda       -0.3900840E-03
   maximum displ.:     0.0600288 α      in ANC's #12, #15, #36, ...

........................................................................
.............................. CYCLE   17 ..............................
........................................................................
   1   -221.3385114 -0.221339E+03  0.113E-02    0.01       0.0  T
   2   -221.3385013  0.101181E-04  0.905E-03    0.01       1.0  T
   3   -221.3286694  0.983192E-02  0.178E-01    0.03       1.0  T
   4   -221.3385093 -0.983988E-02  0.381E-03    0.01       2.3  T
   5   -221.3385127 -0.347482E-05  0.145E-03    0.01       6.1  T
   6   -221.3385137 -0.925997E-06  0.464E-04    0.01      19.2  T
   7   -221.3385137 -0.731513E-07  0.184E-04    0.01      48.3  T
   8   -221.3385137 -0.542033E-08  0.603E-05    0.01     147.8  T
     SCC iter.                  ...        0 min,  0.379 sec
     gradient                   ...        0 min,  0.299 sec
 * total energy  :  -217.8786962 Eh     change       -0.1847769E-03 Eh
   gradient norm :     0.0101654 Eh/α   predicted    -0.1982052E-03 (   7.27%)
   displ. norm   :     0.1834353 α      lambda       -0.2513767E-03
   maximum displ.:     0.0993177 α      in ANC's #12, #15, #20, ...

........................................................................
.............................. CYCLE   18 ..............................
........................................................................
   1   -221.3377610 -0.221338E+03  0.609E-03    0.01       0.0  T
   2   -221.3376404  0.120598E-03  0.201E-02    0.01       1.0  T
   3   -221.3373204  0.320074E-03  0.378E-02    0.01       1.0  T
   4   -221.3377627 -0.442344E-03  0.197E-03    0.01       4.5  T
   5   -221.3377627 -0.443700E-07  0.108E-03    0.01       8.3  T
   6   -221.3377632 -0.435268E-06  0.375E-04    0.01      23.7  T
   7   -221.3377632 -0.572789E-07  0.143E-04    0.01      62.4  T
   8   -221.3377632 -0.463501E-08  0.457E-05    0.01     194.9  T
     SCC iter.                  ...        0 min,  0.378 sec
     gradient                   ...        0 min,  0.299 sec
 * total energy  :  -217.8788383 Eh     change       -0.1420837E-03 Eh
   gradient norm :     0.0072043 Eh/α   predicted    -0.1299198E-03 (  -8.56%)
   displ. norm   :     0.2221504 α      lambda       -0.2105462E-03
   maximum displ.:     0.1185784 α      in ANC's #12, #15, #18, ...

........................................................................
.............................. CYCLE   19 ..............................
........................................................................
   1   -221.3391121 -0.221339E+03  0.440E-03    0.01       0.0  T
   2   -221.3387327  0.379440E-03  0.350E-02    0.01       1.0  T
   3   -221.3390508 -0.318098E-03  0.144E-02    0.01       1.0  T
   4   -221.3391132 -0.624674E-04  0.163E-03    0.01       5.5  T
   5   -221.3391135 -0.266135E-06  0.964E-04    0.01       9.2  T
   6   -221.3391138 -0.344896E-06  0.230E-04    0.01      38.7  T
   7   -221.3391139 -0.134591E-07  0.881E-05    0.01     101.1  T
   8   -221.3391139 -0.167955E-08  0.344E-05    0.01     259.3  T
     SCC iter.                  ...        0 min,  0.375 sec
     gradient                   ...        0 min,  0.295 sec
 * total energy  :  -217.8789606 Eh     change       -0.1223091E-03 Eh
   gradient norm :     0.0073501 Eh/α   predicted    -0.1104709E-03 (  -9.68%)
   displ. norm   :     0.2139014 α      lambda       -0.1506353E-03
   maximum displ.:     0.1279269 α      in ANC's #12, #15, #18, ...

........................................................................
.............................. CYCLE   20 ..............................
........................................................................
   1   -221.3385521 -0.221339E+03  0.260E-03    0.01       0.0  T
   2   -221.3376489  0.903240E-03  0.539E-02    0.01       1.0  T
   3   -221.3385513 -0.902405E-03  0.273E-03    0.01       3.3  T
   4   -221.3385530 -0.173294E-05  0.919E-04    0.01       9.7  T
   5   -221.3385531 -0.129205E-06  0.580E-04    0.01      15.4  T
   6   -221.3385532 -0.100073E-06  0.177E-04    0.01      50.2  T
   7   -221.3385533 -0.842238E-08  0.491E-05    0.01     181.3  T
     SCC iter.                  ...        0 min,  0.330 sec
     gradient                   ...        0 min,  0.302 sec
 * total energy  :  -217.8790601 Eh     change       -0.9951423E-04 Eh
   gradient norm :     0.0034118 Eh/α   predicted    -0.7876793E-04 ( -20.85%)
   displ. norm   :     0.1999414 α      lambda       -0.1162340E-03
   maximum displ.:     0.1258309 α      in ANC's #12, #15, #18, ...
 * RMSD in coord.:     0.4353310 α      energy gain  -0.2079780E+00 Eh

generating ANC from model Hessian ...
Using Lindh-Hessian (1995)
 Shifting diagonal of input Hessian by    1.0025385867893862E-002
 Lowest  eigenvalues of input Hessian
    0.010000    0.010008    0.010018    0.000000    0.000000    0.000000
    0.000000    0.000000    0.000000    0.010036    0.010038    0.010132
    0.010146    0.010322    0.010446    0.010476    0.010504    0.010514
 Highest eigenvalues
    2.100301    2.135195    2.135222    2.220100    2.652285    2.985769


........................................................................
.............................. CYCLE   21 ..............................
........................................................................
   1   -221.3382780 -0.221338E+03  0.436E-03    0.01       0.0  T
   2   -221.3380811  0.196967E-03  0.253E-02    0.01       1.0  T
   3   -221.3382109 -0.129868E-03  0.149E-02    0.01       1.0  T
   4   -221.3382774 -0.664623E-04  0.190E-03    0.01       4.7  T
   5   -221.3382787 -0.127992E-05  0.627E-04    0.01      14.2  T
   6   -221.3382788 -0.144014E-06  0.198E-04    0.01      45.0  T
   7   -221.3382788 -0.628611E-08  0.117E-04    0.01      76.4  T
     SCC iter.                  ...        0 min,  0.332 sec
     gradient                   ...        0 min,  0.297 sec
 * total energy  :  -217.8791324 Eh     change       -0.7229487E-04 Eh
   gradient norm :     0.0050008 Eh/α   predicted     0.0000000E+00 (-100.00%)
   displ. norm   :     0.0520122 α      lambda       -0.5176837E-04
   maximum displ.:     0.0301122 α      in ANC's #11, #36, #14, ...

........................................................................
.............................. CYCLE   22 ..............................
........................................................................
   1   -221.3381552 -0.221338E+03  0.192E-03    0.01       0.0  T
   2   -221.3379302  0.225002E-03  0.269E-02    0.01       1.0  T
   3   -221.3381526 -0.222401E-03  0.318E-03    0.01       2.8  T
   4   -221.3381555 -0.285921E-05  0.582E-04    0.01      15.3  T
   5   -221.3381556 -0.865900E-07  0.394E-04    0.01      22.6  T
   6   -221.3381556 -0.508487E-07  0.863E-05    0.01     103.2  T
   7   -221.3381556  0.844125E-11  0.525E-05    0.01     169.6  T
     SCC iter.                  ...        0 min,  0.329 sec
     gradient                   ...        0 min,  0.296 sec
 * total energy  :  -217.8791827 Eh     change       -0.5029943E-04 Eh
   gradient norm :     0.0020904 Eh/α   predicted    -0.3181297E-04 ( -36.75%)
   displ. norm   :     0.1351674 α      lambda       -0.9576483E-04
   maximum displ.:     0.0803266 α      in ANC's #11, #14, #36, ...

........................................................................
.............................. CYCLE   23 ..............................
........................................................................
   1   -221.3373597 -0.221337E+03  0.275E-03    0.01       0.0  T
   2   -221.3373347  0.250292E-04  0.913E-03    0.01       1.0  T
   3   -221.3371988  0.135898E-03  0.228E-02    0.01       1.0  T
   4   -221.3373602 -0.161396E-03  0.882E-04    0.01      10.1  T
   5   -221.3373604 -0.235418E-06  0.543E-04    0.01      16.4  T
   6   -221.3373605 -0.929208E-07  0.145E-04    0.01      61.3  T
   7   -221.3373605 -0.412371E-09  0.761E-05    0.01     117.0  T
     SCC iter.                  ...        0 min,  0.332 sec
     gradient                   ...        0 min,  0.299 sec
 * total energy  :  -217.8792282 Eh     change       -0.4544516E-04 Eh
   gradient norm :     0.0033100 Eh/α   predicted    -0.4875984E-04 (   7.29%)
   displ. norm   :     0.1580694 α      lambda       -0.1043780E-03
   maximum displ.:     0.0930022 α      in ANC's #11, #14, #19, ...

........................................................................
.............................. CYCLE   24 ..............................
........................................................................
   1   -221.3362147 -0.221336E+03  0.193E-03    0.01       0.0  T
   2   -221.3362095  0.523200E-05  0.433E-03    0.01       2.1  T
   3   -221.3360319  0.177560E-03  0.242E-02    0.01       1.0  T
   4   -221.3362150 -0.183118E-03  0.784E-04    0.01      11.4  T
   5   -221.3362152 -0.182780E-06  0.361E-04    0.01      24.7  T
   6   -221.3362153 -0.381631E-07  0.119E-04    0.01      75.0  T
   7   -221.3362153 -0.173145E-09  0.622E-05    0.01     143.3  T
     SCC iter.                  ...        0 min,  0.329 sec
     gradient                   ...        0 min,  0.301 sec
 * total energy  :  -217.8792345 Eh     change       -0.6362153E-05 Eh
   gradient norm :     0.0057432 Eh/α   predicted    -0.5349358E-04 ( 740.81%)
   displ. norm   :     0.0350158 α      lambda       -0.7539761E-04
   maximum displ.:     0.0179240 α      in ANC's #36, #17, #33, ...

........................................................................
.............................. CYCLE   25 ..............................
........................................................................
   1   -221.3368183 -0.221337E+03  0.154E-03    0.01       0.0  T
   2   -221.3367862  0.320784E-04  0.102E-02    0.01       1.0  T
   3   -221.3368069 -0.206327E-04  0.613E-03    0.01       1.5  T
   4   -221.3368183 -0.114634E-04  0.636E-04    0.01      14.0  T
   5   -221.3368184 -0.127989E-06  0.303E-04    0.01      29.4  T
   6   -221.3368185 -0.287372E-07  0.770E-05    0.01     115.6  T
   7   -221.3368185 -0.614421E-09  0.324E-05    0.01     275.3  T
     SCC iter.                  ...        0 min,  0.331 sec
     gradient                   ...        0 min,  0.296 sec
 * total energy  :  -217.8792850 Eh     change       -0.5046733E-04 Eh
   gradient norm :     0.0028402 Eh/α   predicted    -0.3774539E-04 ( -25.21%)
   displ. norm   :     0.0701633 α      lambda       -0.3869782E-04
   maximum displ.:     0.0458573 α      in ANC's #11, #14, #19, ...

........................................................................
.............................. CYCLE   26 ..............................
........................................................................
   1   -221.3371104 -0.221337E+03  0.141E-03    0.01       0.0  T
   2   -221.3370274  0.830295E-04  0.164E-02    0.01       1.0  T
   3   -221.3371071 -0.797338E-04  0.337E-03    0.01       2.6  T
   4   -221.3371104 -0.333331E-05  0.576E-04    0.01      15.5  T
   5   -221.3371105 -0.730184E-07  0.308E-04    0.01      28.9  T
   6   -221.3371105 -0.320162E-07  0.669E-05    0.01     133.1  T
   7   -221.3371105 -0.783103E-09  0.356E-05    0.01     250.6  T
     SCC iter.                  ...        0 min,  0.337 sec
     gradient                   ...        0 min,  0.302 sec
 * total energy  :  -217.8793153 Eh     change       -0.3031173E-04 Eh
   gradient norm :     0.0010700 Eh/α   predicted    -0.1944453E-04 ( -35.85%)
   displ. norm   :     0.1989129 α      lambda       -0.4440994E-04
   maximum displ.:     0.1269642 α      in ANC's #11, #14, #19, ...

........................................................................
.............................. CYCLE   27 ..............................
........................................................................
   1   -221.3376666 -0.221338E+03  0.230E-03    0.01       0.0  T
   2   -221.3374866  0.179943E-03  0.241E-02    0.01       1.0  T
   3   -221.3376556 -0.169003E-03  0.611E-03    0.01       1.5  T
   4   -221.3376667 -0.111082E-04  0.901E-04    0.01       9.9  T
   5   -221.3376669 -0.123210E-06  0.540E-04    0.01      16.5  T
   6   -221.3376670 -0.987800E-07  0.119E-04    0.01      74.8  T
   7   -221.3376670 -0.381706E-08  0.562E-05    0.01     158.4  T
     SCC iter.                  ...        0 min,  0.330 sec
     gradient                   ...        0 min,  0.297 sec
 * total energy  :  -217.8793634 Eh     change       -0.4810659E-04 Eh
   gradient norm :     0.0028457 Eh/α   predicted    -0.2259582E-04 ( -53.03%)
   displ. norm   :     0.1442203 α      lambda       -0.3931842E-04
   maximum displ.:     0.0909273 α      in ANC's #11, #14, #19, ...

........................................................................
.............................. CYCLE   28 ..............................
........................................................................
   1   -221.3379724 -0.221338E+03  0.675E-04    0.01       0.0  T
   2   -221.3379518  0.205649E-04  0.814E-03    0.01       1.1  T
   3   -221.3379717 -0.198841E-04  0.157E-03    0.01       5.7  T
   4   -221.3379724 -0.736968E-06  0.196E-04    0.01      45.4  T
   5   -221.3379724  0.109705E-08  0.131E-04    0.01      68.1  T
     SCC iter.                  ...        0 min,  0.235 sec
     gradient                   ...        0 min,  0.310 sec
 * total energy  :  -217.8793973 Eh     change       -0.3387024E-04 Eh
   gradient norm :     0.0027713 Eh/α   predicted    -0.2007096E-04 ( -40.74%)
   displ. norm   :     0.2409514 α      lambda       -0.6182147E-04
   maximum displ.:     0.1490328 α      in ANC's #11, #14, #19, ...

........................................................................
.............................. CYCLE   29 ..............................
........................................................................
   1   -221.3384126 -0.221338E+03  0.118E-03    0.01       0.0  T
   2   -221.3383723  0.402568E-04  0.114E-02    0.01       1.0  T
   3   -221.3384079 -0.356093E-04  0.396E-03    0.01       2.3  T
   4   -221.3384127 -0.476678E-05  0.361E-04    0.01      24.7  T
   5   -221.3384127 -0.151494E-07  0.262E-04    0.01      34.0  T
   6   -221.3384127 -0.199880E-07  0.775E-05    0.01     115.0  T
   7   -221.3384127 -0.127352E-08  0.319E-05    0.01     279.3  T
     SCC iter.                  ...        0 min,  0.329 sec
     gradient                   ...        0 min,  0.324 sec
 * total energy  :  -217.8794452 Eh     change       -0.4795943E-04 Eh
   gradient norm :     0.0017362 Eh/α   predicted    -0.3270645E-04 ( -31.80%)
   displ. norm   :     0.3699015 α      lambda       -0.4469505E-04
   maximum displ.:     0.2309645 α      in ANC's #11, #14, #19, ...

........................................................................
.............................. CYCLE   30 ..............................
........................................................................
   1   -221.3388438 -0.221339E+03  0.183E-03    0.01       0.0  T
   2   -221.3388212  0.225891E-04  0.862E-03    0.01       1.0  T
   3   -221.3388174  0.385303E-05  0.930E-03    0.01       1.0  T
   4   -221.3388440 -0.266398E-04  0.647E-04    0.01      13.8  T
   5   -221.3388441 -0.604980E-07  0.389E-04    0.01      22.9  T
   6   -221.3388441 -0.482526E-07  0.123E-04    0.01      72.2  T
   7   -221.3388441 -0.333446E-08  0.438E-05    0.01     203.3  T
     SCC iter.                  ...        0 min,  0.343 sec
     gradient                   ...        0 min,  0.304 sec
 * total energy  :  -217.8794891 Eh     change       -0.4386200E-04 Eh
   gradient norm :     0.0013020 Eh/α   predicted    -0.2370993E-04 ( -45.94%)
   displ. norm   :     0.1804819 α      lambda       -0.1763062E-04
   maximum displ.:     0.1131113 α      in ANC's #11, #14, #5, ...

........................................................................
.............................. CYCLE   31 ..............................
........................................................................
   1   -221.3395936 -0.221340E+03  0.139E-03    0.01       0.0  T
   2   -221.3392848  0.308725E-03  0.315E-02    0.01       1.0  T
   3   -221.3395936 -0.308730E-03  0.121E-03    0.01       7.4  T
   4   -221.3395939 -0.361026E-06  0.359E-04    0.01      24.8  T
   5   -221.3395939  0.310771E-08  0.256E-04    0.01      34.7  T
   6   -221.3395939 -0.192486E-07  0.954E-05    0.01      93.4  T
   7   -221.3395939 -0.299391E-08  0.289E-05    0.01     308.2  T
     SCC iter.                  ...        0 min,  0.344 sec
     gradient                   ...        0 min,  0.303 sec
 * total energy  :  -217.8795095 Eh     change       -0.2042245E-04 Eh
   gradient norm :     0.0009415 Eh/α   predicted    -0.8943248E-05 ( -56.21%)
   displ. norm   :     0.1827367 α      lambda       -0.1608630E-04
   maximum displ.:     0.1115554 α      in ANC's #11, #14, #5, ...

........................................................................
.............................. CYCLE   32 ..............................
........................................................................
   1   -221.3394670 -0.221339E+03  0.135E-03    0.01       0.0  T
   2   -221.3393954  0.716839E-04  0.152E-02    0.01       1.0  T
   3   -221.3394648 -0.694427E-04  0.294E-03    0.01       3.0  T
   4   -221.3394673 -0.251603E-05  0.501E-04    0.01      17.8  T
   5   -221.3394673  0.139700E-07  0.358E-04    0.01      24.9  T
   6   -221.3394673 -0.376852E-07  0.115E-04    0.01      77.3  T
   7   -221.3394673 -0.552265E-08  0.358E-05    0.01     248.8  T
     SCC iter.                  ...        0 min,  0.333 sec
     gradient                   ...        0 min,  0.298 sec
 * total energy  :  -217.8795268 Eh     change       -0.1724817E-04 Eh
   gradient norm :     0.0006325 Eh/α   predicted    -0.8163349E-05 ( -52.67%)
   displ. norm   :     0.1319067 α      lambda       -0.8744864E-05
   maximum displ.:     0.0788130 α      in ANC's #14, #11, #5, ...

........................................................................
.............................. CYCLE   33 ..............................
........................................................................
   1   -221.3388829 -0.221339E+03  0.941E-04    0.00       0.0  T
   2   -221.3388826  0.262122E-06  0.120E-03    0.00       7.4  T
   3   -221.3388267  0.559366E-04  0.135E-02    0.01       1.0  T
   4   -221.3388830 -0.562947E-04  0.330E-04    0.00      27.0  T
   5   -221.3388830  0.186783E-07  0.275E-04    0.00      32.4  T
   6   -221.3388830 -0.251618E-07  0.807E-05    0.00     110.4  T
   7   -221.3388830 -0.256279E-08  0.248E-05    0.00     359.2  T
     SCC iter.                  ...        0 min,  0.334 sec
     gradient                   ...        0 min,  0.306 sec
 * total energy  :  -217.8795361 Eh     change       -0.9277568E-05 Eh
   gradient norm :     0.0005047 Eh/α   predicted    -0.4407762E-05 ( -52.49%)
   displ. norm   :     0.0913758 α      lambda       -0.5774723E-05
   maximum displ.:     0.0520596 α      in ANC's #14, #11, #5, ...

........................................................................
.............................. CYCLE   34 ..............................
........................................................................
   1   -221.3387371 -0.221339E+03  0.676E-04    0.00       0.0  T
   2   -221.3386409  0.961581E-04  0.176E-02    0.01       1.0  T
   3   -221.3387369 -0.959965E-04  0.947E-04    0.00       9.4  T
   4   -221.3387372 -0.244997E-06  0.259E-04    0.00      34.4  T
   5   -221.3387372 -0.775262E-08  0.155E-04    0.00      57.6  T
   6   -221.3387372 -0.829610E-08  0.289E-05    0.00     307.8  T
     SCC iter.                  ...        0 min,  0.294 sec
     gradient                   ...        0 min,  0.297 sec
 * total energy  :  -217.8795426 Eh     change       -0.6575513E-05 Eh
   gradient norm :     0.0005301 Eh/α   predicted    -0.2899051E-05 ( -55.91%)
   displ. norm   :     0.1004627 α      lambda       -0.6208890E-05
   maximum displ.:     0.0549233 α      in ANC's #14, #5, #11, ...

........................................................................
.............................. CYCLE   35 ..............................
........................................................................
   1   -221.3381916 -0.221338E+03  0.816E-04    0.00       0.0  T
   2   -221.3379830  0.208638E-03  0.259E-02    0.01       1.0  T
   3   -221.3381916 -0.208628E-03  0.778E-04    0.00      11.4  T
   4   -221.3381917 -0.162681E-06  0.233E-04    0.00      38.2  T
   5   -221.3381918 -0.101743E-07  0.115E-04    0.00      77.3  T
   6   -221.3381918 -0.310658E-08  0.428E-05    0.00     208.2  T
     SCC iter.                  ...        0 min,  0.292 sec
     gradient                   ...        0 min,  0.296 sec
 * total energy  :  -217.8795498 Eh     change       -0.7142953E-05 Eh
   gradient norm :     0.0005229 Eh/α   predicted    -0.3120974E-05 ( -56.31%)
   displ. norm   :     0.1098905 α      lambda       -0.6671512E-05
   maximum displ.:     0.0562108 α      in ANC's #14, #19, #5, ...

........................................................................
.............................. CYCLE   36 ..............................
........................................................................
   1   -221.3378718 -0.221338E+03  0.828E-04    0.00       0.0  T
   2   -221.3377389  0.132884E-03  0.207E-02    0.01       1.0  T
   3   -221.3378718 -0.132870E-03  0.786E-04    0.00      11.3  T
   4   -221.3378719 -0.139846E-06  0.291E-04    0.00      30.6  T
   5   -221.3378719 -0.106558E-07  0.115E-04    0.00      77.7  T
   6   -221.3378719 -0.215556E-08  0.317E-05    0.00     280.7  T
     SCC iter.                  ...        0 min,  0.289 sec
     gradient                   ...        0 min,  0.297 sec
 * total energy  :  -217.8795575 Eh     change       -0.7722510E-05 Eh
   gradient norm :     0.0005302 Eh/α   predicted    -0.3358554E-05 ( -56.51%)
   displ. norm   :     0.1082507 α      lambda       -0.6273578E-05
   maximum displ.:     0.0525031 α      in ANC's #19, #14, #5, ...

........................................................................
.............................. CYCLE   37 ..............................
........................................................................
   1   -221.3382510 -0.221338E+03  0.827E-04    0.00       0.0  T
   2   -221.3382507  0.334980E-06  0.123E-03    0.00       7.3  T
   3   -221.3382188  0.319291E-04  0.102E-02    0.00       1.0  T
   4   -221.3382511 -0.323162E-04  0.325E-04    0.00      27.4  T
   5   -221.3382511 -0.387561E-08  0.146E-04    0.00      61.2  T
   6   -221.3382511 -0.431592E-08  0.594E-05    0.00     150.0  T
     SCC iter.                  ...        0 min,  0.289 sec
     gradient                   ...        0 min,  0.300 sec
 * total energy  :  -217.8795645 Eh     change       -0.6978785E-05 Eh
   gradient norm :     0.0003662 Eh/α   predicted    -0.3154686E-05 ( -54.80%)
   displ. norm   :     0.0986584 α      lambda       -0.4540146E-05
   maximum displ.:     0.0495155 α      in ANC's #19, #14, #5, ...

........................................................................
.............................. CYCLE   38 ..............................
........................................................................
   1   -221.3383687 -0.221338E+03  0.688E-04    0.00       0.0  T
   2   -221.3383585  0.102150E-04  0.576E-03    0.00       1.5  T
   3   -221.3383670 -0.846400E-05  0.244E-03    0.00       3.7  T
   4   -221.3383688 -0.180190E-05  0.224E-04    0.00      39.8  T
   5   -221.3383688  0.244705E-08  0.119E-04    0.00      75.1  T
   6   -221.3383688 -0.344588E-08  0.462E-05    0.00     192.8  T
     SCC iter.                  ...        0 min,  0.294 sec
     gradient                   ...        0 min,  0.298 sec
 * total energy  :  -217.8795691 Eh     change       -0.4660928E-05 Eh
   gradient norm :     0.0004006 Eh/α   predicted    -0.2282218E-05 ( -51.04%)
   displ. norm   :     0.0638190 α      lambda       -0.2302883E-05
   maximum displ.:     0.0312335 α      in ANC's #19, #5, #14, ...

   *** GEOMETRY OPTIMIZATION CONVERGED AFTER 38 ITERATIONS ***

------------------------------------------------------------------------
 total energy gain   :        -0.2084870 Eh     -130.8276 kcal/mol
 total RMSD          :         0.5422623 a0        0.2870 Å
 total power (kW/mol):       -14.4048037 (step)  -17.2069 (real)
------------------------------------------------------------------------

 ANCopt (total)                0 d,  0 h,  0 min, 31.812 sec
 optimizer setup                ...        0 min,  0.000 sec (  0.001%)
 model hessian                  ...        0 min,  0.093 sec (  0.293%)
 ANC generation                 ...        0 min,  0.049 sec (  0.154%)
 coordinate transformation      ...        0 min,  0.008 sec (  0.024%)
 single point calculation       ...        0 min, 31.613 sec ( 99.374%)
 optimization log               ...        0 min,  0.023 sec (  0.073%)
 hessian update                 ...        0 min,  0.006 sec (  0.018%)
 rational function              ...        0 min,  0.016 sec (  0.049%)

================
 final structure:
================
126
 xtb: 6.5.1 (b24c23e)
Cu          14.09062260383422        0.02920112960023       -0.00900984835464
C           10.68751959993195        0.11688081861706        0.09115819936546
C           11.32450994095620        1.22293156393538       -0.45171849078967
C           10.65143702371045        2.35625475623528       -1.01759966573734
C           11.61229283728520        3.21620438363520       -1.43875304748704
C           12.88181656887479        2.62156800073837       -1.12070497779006
N           12.67568340939066        1.40846282631341       -0.52965289097587
C           14.12802771934586        3.19450629940746       -1.39232794686610
C           14.14520993591501        4.55446648607588       -1.98173869421839
C           14.74692182492630        4.78760488766053       -3.22095208877150
C           14.76588937380412        6.05580880532874       -3.77370347028980
C           14.19255712486751        7.12883491236086       -3.08651395658076
N           14.17642703282941        8.39171464743388       -3.65287738495891
C           13.58362382347045        6.90345968458716       -1.84928913301144
C           13.56110570736814        5.63021813628148       -1.30824154457912
C           15.35878244154601        2.58076845184062       -1.14643190069956
C           16.63875112235579        3.19667529166393       -1.35255028939247
C           17.58149042557344        2.28791899113891       -0.99442086869031
N           15.54287754250478        1.31519195690858       -0.65448274699632
C           16.88539920940326        1.11557689745082       -0.55797266469220
C           17.51689819562081       -0.05645365428790       -0.10378417070663
C           16.85382849022722       -1.19755386187560        0.38244893342627
C           17.51352775981913       -2.40378418993982        0.78112017405009
C           16.54770401939070       -3.26491003758805        1.19192652972456
C           15.29066810406131       -2.58530878689620        1.05689270186291
N           15.51025494182995       -1.33012475792576        0.55294540709791
C           14.04642904203766       -3.13565646406570        1.37471946780776
C           14.02650785165442       -4.49579657335199        1.96378962096224
C           14.68356954771710       -4.76333903448627        3.16736633056663
C           14.66503097542672       -6.03188585616076        3.71954484791243
C           13.99685242853030       -7.07106822197849        3.06695384619032
N           13.94434061727174       -8.33250614141853        3.63483408391853
C           13.33234177504053       -6.81090587772176        1.86569601616659
C           13.34822676490683       -5.53727410569774        1.32545677588217
C           12.81737395355359       -2.49910835670862        1.17590248102557
C           11.53985677625151       -3.02798235036845        1.56945479725675
C           10.60130662365676       -2.11927522854983        1.20408040522392
C           11.29721754184135       -1.02140617407498        0.59746518737169
N           12.63930185553516       -1.27631892506954        0.59599271325539
H            9.60304867834462        0.14506265534197        0.12295747268017
H            9.58025673616352        2.46184638373664       -1.08963736316402
H           11.47920755930262        4.16383454796436       -1.93548256921529
H           15.18616640299275        3.95843914895277       -3.76489795819208
H           15.22697920476108        6.22184928770153       -4.74125536696186
H           14.88985195784078        8.55768442828465       -4.34454179795359
H           14.05719757363002        9.14993011863507       -3.00025785720594
H           13.13322941295322        7.73161286562875       -1.31291663669432
H           13.10370839731037        5.46742921746201       -0.33834417857713
H           16.79392287210736        4.20260553832617       -1.70773936410975
H           18.65412986345654        2.39707914972712       -1.01182337128780
H           18.57874836138341       -2.56615859720114        0.73838165632316
H           16.67153307017680       -4.27777008948500        1.53962501809422
H           15.19651607251167       -3.96016205742195        3.68516483909717
H           15.16998450667611       -6.22443876549995        4.65991515867142
H           14.68792762005120       -8.53875384744690        4.28269702980292
H           13.74695958923883       -9.08131135869168        2.99013727039374
H           12.80825680292246       -7.61246301082540        1.35650662413354
H           12.84615699066651       -5.34789006078599        0.38286505211107
H           11.38755254175789       -3.96795979554942        2.07511504651003
H            9.53225421083932       -2.16989368813401        1.33950354023841
Cu          30.11864045990708       -0.02422306245251        0.01958035736114
C           33.52172670795859        0.01217281112094        0.15046047800484
C           32.88466516170049       -1.05061911935069        0.77370713284598
C           33.55771169450163       -2.14675938454775        1.40868299736445
C           32.59682520532539       -2.97345466688040        1.89177158483995
C           31.32727494755063       -2.38182627788002        1.56824686164666
N           31.53347323605793       -1.21941040129658        0.88288604197377
C           30.08107443789858       -2.92646844997624        1.89279442903892
C           30.06389085772099       -4.16925456770552        2.70064531246298
C           29.46749335193713       -5.33266514231048        2.20795032650197
C           29.44859333350069       -6.49398859480752        2.95979346749960
C           30.01644837193124       -6.51214821792744        4.23630931356093
N           30.03256651043143       -7.68174471711984        4.97650984184288
C           30.62009039930554       -5.35463622667663        4.73436226519145
C           30.64271821762811       -4.20031808716523        3.97183878834954
C           28.85038343693054       -2.38389363739427        1.51490045269057
C           27.57034505301576       -2.89824176803020        1.91125938616933
C           26.62763330360308       -2.09721171850487        1.35227139966262
N           28.66632034160107       -1.27332917964858        0.73365400017190
C           27.32377917300127       -1.08340215553346        0.61944884893264
C           26.69227121717555       -0.05567914376232       -0.10420722597700
C           27.35530493627777        0.98126662751285       -0.78490506917404
C           26.69543649581768        1.98188706730345       -1.56754134476259
C           27.66137212384582        2.79965008515768       -2.05879723475291
C           28.91864664357411        2.30954460817019       -1.56963878498565
N           28.69903059358445        1.19540684889231       -0.80271722533420
C           30.16307248911447        2.87701118181696       -1.85476244089781
C           30.18302924516401        4.11954800247642       -2.66304326427320
C           29.53034414571848        5.27194344392007       -2.21826452176526
C           29.54894032923726        6.43328317190202       -2.97020206585553
C           30.21260263852624        6.46223222543759       -4.19940705790715
N           30.26515454085407        7.63266171191281       -4.93690904772746
C           30.87268092953812        5.31578226162369       -4.64908451676117
C           30.85693679887730        4.16159977219998       -3.88623134380794
C           31.39219756607778        2.35875644687732       -1.43542628521808
C           32.66990614545259        2.97778014506634       -1.66103370872961
C           33.60833392637434        2.17205229013282       -1.10402403228987
C           32.91219171432611        1.06142059576410       -0.52134276154535
N           31.57010627109180        1.20098760970180       -0.73460480380919
H           34.60614985518858        0.02373419315611        0.19257105493891
H           34.62893067654175       -2.26372941900428        1.45941821182313
H           32.72989220478904       -3.91013998152278        2.40884897039583
H           29.03236165559995       -5.32929701170117        1.21448400794055
H           28.99175038717069       -7.39357981915684        2.56184403573026
H           29.32165605767307       -8.35167185076482        4.72984503039946
H           30.14639189020700       -7.55563467126137        5.96958002351347
H           31.06626883239236       -5.36363507474304        5.72290944763121
H           31.09604438621178       -3.30062372131446        4.37365542373890
H           27.41514311916426       -3.75188524789735        2.55105053992500
H           25.55495020174060       -2.17321702698488        1.43196852822674
H           25.63002133925856        2.03742366756894       -1.72464891655779
H           27.53748050075727        3.65017148686129       -2.70948207473264
H           29.02082789751352        5.26059471833643       -1.26087585889009
H           29.04752654896568        7.32459823048202       -2.60896140642070
H           29.52380410441041        8.28829122272031       -4.74767486641782
H           30.45809320028563        7.50871830339146       -5.91810412833162
H           31.39323025879737        5.33325818569051       -5.60049238861827
H           31.35566066927989        3.27024953478804       -4.25119423126105
H           32.82235039863404        3.91725022098580       -2.16759434616025
H           34.67746751030579        2.31246628411145       -1.07219146991339
C           22.71874746008315       -0.08598312760794       -0.17163251237907
C           21.49044654972143       -0.09524411686587       -0.16700626086942
C           20.14576409727470       -0.09235985551973       -0.15426684238329
C           18.92198096928970       -0.08398320241095       -0.13329511708841
C           24.06340802504160       -0.07706269285874       -0.16175833365136
C           25.28716329422391       -0.06456101633625       -0.14299405332190

 Bond Distances (Angstroems)
 ---------------------------
Cu1-N7=2.0434        Cu1-N19=2.0444       Cu1-N26=2.0442       Cu1-N39=2.0437       C2-C3=1.3870         C2-C38=1.3870        
C2-H40=1.0853        C3-C2=1.3870         C3-C4=1.4345         C3-N7=1.3661         C4-C3=1.4345         C4-C5=1.3565         
C4-H41=1.0788        C5-C4=1.3565         C5-C6=1.4375         C5-H42=1.0782        C6-C5=1.4375         C6-N7=1.3651         
C6-C8=1.3982         N7-Cu1=2.0434        N7-C3=1.3661         N7-C6=1.3651         C8-C6=1.3982         C8-C9=1.4823         
C8-C16=1.3971        C9-C8=1.4823         C9-C10=1.3972        C9-C15=1.3971        C10-C9=1.3972        C10-C11=1.3836       
C10-H43=1.0846       C11-C10=1.3836       C11-C12=1.3973       C11-H44=1.0846       C12-C11=1.3973       C12-N13=1.3842       
C12-C14=1.3973       N13-C12=1.3842       N13-H45=1.0074       N13-H46=1.0075       C14-C12=1.3973       C14-C15=1.3836       
C14-H47=1.0846       C15-C9=1.3971        C15-C14=1.3836       C15-H48=1.0846       C16-C8=1.3971        C16-C17=1.4353       
C16-N19=1.3703       C17-C16=1.4353       C17-C18=1.3575       C17-H49=1.0780       C18-C17=1.3575       C18-C20=1.4316       
C18-H50=1.0783       N19-Cu1=2.0444       N19-C16=1.3703       N19-C20=1.3607       C20-C18=1.4316       C20-N19=1.3607       
C20-C21=1.4067       C21-C20=1.4067       C21-C22=1.4065       C21-C124=1.4057      C22-C21=1.4065       C22-C23=1.4315       
C22-N26=1.3608       C23-C22=1.4315       C23-C24=1.3576       C23-H51=1.0784       C24-C23=1.3576       C24-C25=1.4354       
C24-H52=1.0780       C25-C24=1.4354       C25-N26=1.3703       C25-C27=1.3971       N26-Cu1=2.0442       N26-C22=1.3608       
N26-C25=1.3703       C27-C25=1.3971       C27-C28=1.4824       C27-C35=1.3983       C28-C27=1.4824       C28-C29=1.3971       
C28-C34=1.3972       C29-C28=1.3971       C29-C30=1.3836       C29-H53=1.0846       C30-C29=1.3836       C30-C31=1.3972       
C30-H54=1.0846       C31-C30=1.3972       C31-N32=1.3844       C31-C33=1.3972       N32-C31=1.3844       N32-H55=1.0076       
N32-H56=1.0076       C33-C31=1.3972       C33-C34=1.3836       C33-H57=1.0846       C34-C28=1.3972       C34-C33=1.3836       
C34-H58=1.0846       C35-C27=1.3983       C35-C36=1.4376       C35-N39=1.3650       C36-C35=1.4376       C36-C37=1.3565       
C36-H59=1.0782       C37-C36=1.3565       C37-C38=1.4344       C37-H60=1.0788       C38-C2=1.3870        C38-C37=1.4344       
C38-N39=1.3661       N39-Cu1=2.0437       N39-C35=1.3650       N39-C38=1.3661       H40-C2=1.0853        H41-C4=1.0788        
H42-C5=1.0782        H43-C10=1.0846       H44-C11=1.0846       H45-N13=1.0074       H46-N13=1.0075       H47-C14=1.0846       
H48-C15=1.0846       H49-C17=1.0780       H50-C18=1.0783       H51-C23=1.0784       H52-C24=1.0780       H53-C29=1.0846       
H54-C30=1.0846       H55-N32=1.0076       H56-N32=1.0076       H57-C33=1.0846       H58-C34=1.0846       H59-C36=1.0782       
H60-C37=1.0788       Cu61-N67=2.0434      Cu61-N79=2.0444      Cu61-N86=2.0443      Cu61-N99=2.0437      C62-C63=1.3870       
C62-C98=1.3870       C62-H100=1.0853      C63-C62=1.3870       C63-C64=1.4345       C63-N67=1.3661       C64-C63=1.4345       
C64-C65=1.3565       C64-H101=1.0788      C65-C64=1.3565       C65-C66=1.4375       C65-H102=1.0782      C66-C65=1.4375       
C66-N67=1.3651       C66-C68=1.3982       N67-Cu61=2.0434      N67-C63=1.3661       N67-C66=1.3651       C68-C66=1.3982       
C68-C69=1.4824       C68-C76=1.3971       C69-C68=1.4824       C69-C70=1.3971       C69-C75=1.3971       C70-C69=1.3971       
C70-C71=1.3836       C70-H103=1.0846      C71-C70=1.3836       C71-C72=1.3972       C71-H104=1.0846      C72-C71=1.3972       
C72-N73=1.3842       C72-C74=1.3972       N73-C72=1.3842       N73-H105=1.0075      N73-H106=1.0075      C74-C72=1.3972       
C74-C75=1.3836       C74-H107=1.0846      C75-C69=1.3971       C75-C74=1.3836       C75-H108=1.0846      C76-C68=1.3971       
C76-C77=1.4353       C76-N79=1.3702       C77-C76=1.4353       C77-C78=1.3575       C77-H109=1.0780      C78-C77=1.3575       
C78-C80=1.4316       C78-H110=1.0783      N79-Cu61=2.0444      N79-C76=1.3702       N79-C80=1.3607       C80-C78=1.4316       
C80-N79=1.3607       C80-C81=1.4067       C81-C80=1.4067       C81-C82=1.4065       C81-C126=1.4057      C82-C81=1.4065       
C82-C83=1.4315       C82-N86=1.3608       C83-C82=1.4315       C83-C84=1.3576       C83-H111=1.0784      C84-C83=1.3576       
C84-C85=1.4353       C84-H112=1.0780      C85-C84=1.4353       C85-N86=1.3703       C85-C87=1.3971       N86-Cu61=2.0443      
N86-C82=1.3608       N86-C85=1.3703       C87-C85=1.3971       C87-C88=1.4824       C87-C95=1.3983       C88-C87=1.4824       
C88-C89=1.3971       C88-C94=1.3972       C89-C88=1.3971       C89-C90=1.3836       C89-H113=1.0846      C90-C89=1.3836       
C90-C91=1.3972       C90-H114=1.0846      C91-C90=1.3972       C91-N92=1.3844       C91-C93=1.3972       N92-C91=1.3844       
N92-H115=1.0076      N92-H116=1.0076      C93-C91=1.3972       C93-C94=1.3836       C93-H117=1.0846      C94-C88=1.3972       
C94-C93=1.3836       C94-H118=1.0846      C95-C87=1.3983       C95-C96=1.4376       C95-N99=1.3650       C96-C95=1.4376       
C96-C97=1.3565       C96-H119=1.0782      C97-C96=1.3565       C97-C98=1.4344       C97-H120=1.0788      C98-C62=1.3870       
C98-C97=1.4344       C98-N99=1.3661       N99-Cu61=2.0437      N99-C95=1.3650       N99-C98=1.3661       H100-C62=1.0853      
H101-C64=1.0788      H102-C65=1.0782      H103-C70=1.0846      H104-C71=1.0846      H105-N73=1.0075      H106-N73=1.0075      
H107-C74=1.0846      H108-C75=1.0846      H109-C77=1.0780      H110-C78=1.0783      H111-C83=1.0784      H112-C84=1.0780      
H113-C89=1.0846      H114-C90=1.0846      H115-N92=1.0076      H116-N92=1.0076      H117-C93=1.0846      H118-C94=1.0846      
H119-C96=1.0782      H120-C97=1.0788      C121-C122=1.2283     C121-C125=1.3447     C122-C121=1.2283     C122-C123=1.3447     
C123-C122=1.3447     C123-C124=1.2240     C124-C21=1.4057      C124-C123=1.2240     C125-C121=1.3447     C125-C126=1.2240     
C126-C81=1.4057      C126-C125=1.2240     
 C  H  Rav=1.0817 sigma=0.0032  Rmin=1.0780  Rmax=1.0853    34
 C  C  Rav=1.3960 sigma=0.0463  Rmin=1.2240  Rmax=1.4824    75
 N  H  Rav=1.0075 sigma=0.0001  Rmin=1.0074  Rmax=1.0076     8
 N  C  Rav=1.3693 sigma=0.0081  Rmin=1.3607  Rmax=1.3844    20
 Cu N  Rav=2.0439 sigma=0.0004  Rmin=2.0434  Rmax=2.0444     8

 selected bond angles (degree)
 --------------------
N19-Cu1-N7= 89.25              N26-Cu1-N7=178.71              N26-Cu1-N19= 90.67             N39-Cu1-N7= 90.85              
N39-Cu1-N19=178.74             N39-Cu1-N26= 89.26             C38-C2-C3=126.54               H40-C2-C3=116.72               
H40-C2-C38=116.73              C4-C3-C2=124.68                N7-C3-C2=125.79                N7-C3-C4=109.53                
C5-C4-C3=106.92                H41-C4-C3=124.72               H41-C4-C5=128.36               C6-C5-C4=107.14                
H42-C5-C4=127.79               H42-C5-C6=125.07               N7-C6-C5=109.27                C8-C6-C5=125.07                
C8-C6-N7=125.65                C3-N7-Cu1=125.36               C6-N7-Cu1=127.27               C6-N7-C3=107.14                
C9-C8-C6=117.61                C16-C8-C6=124.82               C16-C8-C9=117.57               C10-C9-C8=120.72               
C15-C9-C8=120.66               C15-C9-C10=118.63              C11-C10-C9=120.88              H43-C10-C9=119.45              
H43-C10-C11=119.66             

 selected dihedral angles (degree)
 ---------------------------------
C4-C3-C2-C38=177.16           C4-C3-C2-H40=357.16           N7-C3-C2-C38=356.97           N7-C3-C2-H40=176.97           
C5-C4-C3-C2=180.10            C5-C4-C3-N7=  0.26            H41-C4-C3-C2=359.31           H41-C4-C3-N7=179.47           
C6-C5-C4-C3=359.40            C6-C5-C4-H41=180.23           H42-C5-C4-C3=178.44           H42-C5-C4-H41=359.27          
N7-C6-C5-C4=  0.75            N7-C6-C5-H42=181.69           C8-C6-C5-C4=180.03            C8-C6-C5-H42=  0.96           
C3-N7-Cu1-N19=176.18          C3-N7-Cu1-N26=262.65          C3-N7-Cu1-N39=357.44          C6-N7-Cu1-N19=  2.38          
C6-N7-Cu1-N26= 88.86          C6-N7-Cu1-N39=183.64          Cu1-N7-C3-C2=  5.54           Cu1-N7-C3-C4=185.37           
C6-N7-C3-C2=180.38            C6-N7-C3-C4=  0.21            Cu1-N7-C6-C5=174.12           Cu1-N7-C6-C8=354.86           
C3-N7-C6-C5=359.42            C3-N7-C6-C8=180.15            C9-C8-C6-C5=  3.77            C9-C8-C6-N7=182.93            
C16-C8-C6-C5=183.63           C16-C8-C6-N7=  2.78           C10-C9-C8-C6=239.40           C10-C9-C8-C16= 59.54          
C15-C9-C8-C6= 59.48           C15-C9-C8-C16=239.62          C11-C10-C9-C8=180.05          C11-C10-C9-C15=  0.00         
H43-C10-C9-C8=  1.34          H43-C10-C9-C15=181.27         
           -------------------------------------------------
          |                Final Singlepoint                |
           -------------------------------------------------

          ...................................................
          :                      SETUP                      :
          :.................................................:
          :  # basis functions                 432          :
          :  # atomic orbitals                 430          :
          :  # shells                          254          :
          :  # electrons                       404          :
          :  # halogen bonds                     0          :
          :  max. iterations                   250          :
          :  Hamiltonian                  GFN1-xTB          :
          :  restarted?                      false          :
          :  GBSA solvation                  false          :
          :  PC potential                    false          :
          :  electronic temp.          300.0000000     K    :
          :  accuracy                    1.0000000          :
          :  -> integral cutoff          0.2500000E+02      :
          :  -> integral neglect         0.1000000E-07      :
          :  -> SCF convergence          0.1000000E-05 Eh   :
          :  -> wf. convergence          0.2000000E-04 e    :
          :  Broyden damping             0.4000000          :
          ...................................................

 iter      E             dE          RMSdq      gap      omega  full diag
   1   -221.3383688 -0.221338E+03  0.194E-05    0.00       0.0  T
   2   -221.3383687  0.713732E-07  0.480E-04    0.00      18.6  T
   3   -221.3383688 -0.712259E-07  0.278E-05    0.00     321.0  T
   4   -221.3383688 -0.270944E-09  0.341E-06    0.00    2614.1  T

   *** convergence criteria satisfied after 4 iterations ***

         #    Occupation            Energy/Eh            Energy/eV
      -------------------------------------------------------------
         1        2.0000           -0.7777910             -21.1648
       ...           ...                  ...                  ...
       196        2.0000           -0.3953693             -10.7585
       197        2.0000           -0.3953603             -10.7583
       198        2.0000           -0.3876628             -10.5488
[...]
     4   6 C    3.954 --     5 C    1.652     3 C    1.173    41 H    0.976
     5   6 C    3.958 --     4 C    1.652     6 C    1.175    42 H    0.973
     6   6 C    3.912 --     8 C    1.315     7 N    1.241     5 C    1.175
     7   7 N    3.242 --     6 C    1.241     3 C    1.229     1 Cu   0.504
     8   6 C    3.934 --    16 C    1.324     6 C    1.315     9 C    1.034
     9   6 C    3.988 --    15 C    1.381    10 C    1.380     8 C    1.034
    10   6 C    3.988 --    11 C    1.469     9 C    1.380    43 H    0.973
    11   6 C    3.990 --    10 C    1.469    12 C    1.354    44 H    0.972
    12   6 C    3.951 --    14 C    1.354    11 C    1.354    13 N    1.115
    13   7 N    3.134 --    12 C    1.115    46 H    0.934    45 H    0.933
    14   6 C    3.989 --    15 C    1.468    12 C    1.354    47 H    0.972
    15   6 C    3.987 --    14 C    1.468     9 C    1.381    48 H    0.973
    16   6 C    3.907 --     8 C    1.324    19 N    1.222    17 C    1.181
    17   6 C    3.955 --    18 C    1.639    16 C    1.181    49 H    0.973
    18   6 C    3.956 --    17 C    1.639    20 C    1.189    50 H    0.974
    19   7 N    3.246 --    20 C    1.258    16 C    1.222     1 Cu   0.501
    20   6 C    3.898 --    19 N    1.258    21 C    1.257    18 C    1.189
    21   6 C    3.936 --    22 C    1.257    20 C    1.257   124 C    1.190
    22   6 C    3.898 --    26 N    1.258    21 C    1.257    23 C    1.189
    23   6 C    3.956 --    24 C    1.639    22 C    1.189    51 H    0.974
    24   6 C    3.955 --    23 C    1.639    25 C    1.181    52 H    0.973
    25   6 C    3.907 --    27 C    1.325    26 N    1.222    24 C    1.181
    26   7 N    3.246 --    22 C    1.258    25 C    1.222     1 Cu   0.501
    27   6 C    3.934 --    25 C    1.325    35 C    1.315    28 C    1.034
    28   6 C    3.988 --    29 C    1.381    34 C    1.380    27 C    1.034
    29   6 C    3.988 --    30 C    1.468    28 C    1.381    53 H    0.973
    30   6 C    3.990 --    29 C    1.468    31 C    1.354    54 H    0.972
    31   6 C    3.952 --    30 C    1.354    33 C    1.354    32 N    1.115
    32   7 N    3.133 --    31 C    1.115    56 H    0.934    55 H    0.934
    33   6 C    3.989 --    34 C    1.469    31 C    1.354    57 H    0.972
    34   6 C    3.987 --    33 C    1.469    28 C    1.380    58 H    0.973
    35   6 C    3.912 --    27 C    1.315    39 N    1.241    36 C    1.175
    36   6 C    3.958 --    37 C    1.652    35 C    1.175    59 H    0.973
    37   6 C    3.954 --    36 C    1.652    38 C    1.173    60 H    0.976
    38   6 C    3.918 --     2 C    1.361    39 N    1.229    37 C    1.173
    39   7 N    3.242 --    35 C    1.241    38 C    1.229     1 Cu   0.504
    40   1 H    1.002 --     2 C    0.971
    41   1 H    0.998 --     4 C    0.976
    42   1 H    1.005 --     5 C    0.973
    43   1 H    1.005 --    10 C    0.973
    44   1 H    0.999 --    11 C    0.972
    45   1 H    0.961 --    13 N    0.933
    46   1 H    0.961 --    13 N    0.934
    47   1 H    0.999 --    14 C    0.972
    48   1 H    1.005 --    15 C    0.973
    49   1 H    1.006 --    17 C    0.973
    50   1 H    1.002 --    18 C    0.974
    51   1 H    1.002 --    23 C    0.974
    52   1 H    1.006 --    24 C    0.973
    53   1 H    1.005 --    29 C    0.973
    54   1 H    0.999 --    30 C    0.972
    55   1 H    0.961 --    32 N    0.934
    56   1 H    0.961 --    32 N    0.934
    57   1 H    0.999 --    33 C    0.972
    58   1 H    1.005 --    34 C    0.973
    59   1 H    1.005 --    36 C    0.973
    60   1 H    0.998 --    37 C    0.976
    61  29 Cu   2.183 --    67 N    0.504    99 N    0.504    86 N    0.501
                            79 N    0.501
    62   6 C    3.926 --    98 C    1.361    63 C    1.361   100 H    0.971
    63   6 C    3.918 --    62 C    1.361    67 N    1.229    64 C    1.173
    64   6 C    3.954 --    65 C    1.652    63 C    1.173   101 H    0.976
    65   6 C    3.958 --    64 C    1.652    66 C    1.175   102 H    0.973
    66   6 C    3.912 --    68 C    1.315    67 N    1.241    65 C    1.175
    67   7 N    3.242 --    66 C    1.241    63 C    1.229    61 Cu   0.504
    68   6 C    3.934 --    76 C    1.325    66 C    1.315    69 C    1.034
    69   6 C    3.988 --    75 C    1.381    70 C    1.381    68 C    1.034
    70   6 C    3.988 --    71 C    1.469    69 C    1.381   103 H    0.973
    71   6 C    3.990 --    70 C    1.469    72 C    1.354   104 H    0.972
    72   6 C    3.952 --    74 C    1.354    71 C    1.354    73 N    1.115
    73   7 N    3.133 --    72 C    1.115   106 H    0.934   105 H    0.933
    74   6 C    3.989 --    75 C    1.468    72 C    1.354   107 H    0.972
    75   6 C    3.987 --    74 C    1.468    69 C    1.381   108 H    0.973
    76   6 C    3.907 --    68 C    1.325    79 N    1.222    77 C    1.181
    77   6 C    3.955 --    78 C    1.640    76 C    1.181   109 H    0.973
    78   6 C    3.956 --    77 C    1.640    80 C    1.189   110 H    0.974
    79   7 N    3.246 --    80 C    1.258    76 C    1.222    61 Cu   0.501
    80   6 C    3.898 --    79 N    1.258    81 C    1.257    78 C    1.189
    81   6 C    3.936 --    82 C    1.257    80 C    1.257   126 C    1.190
    82   6 C    3.898 --    86 N    1.258    81 C    1.257    83 C    1.189
    83   6 C    3.956 --    84 C    1.639    82 C    1.189   111 H    0.974
    84   6 C    3.955 --    83 C    1.639    85 C    1.181   112 H    0.973
    85   6 C    3.907 --    87 C    1.325    86 N    1.222    84 C    1.181
    86   7 N    3.246 --    82 C    1.258    85 C    1.222    61 Cu   0.501
    87   6 C    3.934 --    85 C    1.325    95 C    1.315    88 C    1.034
    88   6 C    3.988 --    89 C    1.381    94 C    1.381    87 C    1.034
    89   6 C    3.988 --    90 C    1.468    88 C    1.381   113 H    0.973
    90   6 C    3.990 --    89 C    1.468    91 C    1.354   114 H    0.972
    91   6 C    3.952 --    90 C    1.354    93 C    1.354    92 N    1.115
    92   7 N    3.133 --    91 C    1.115   116 H    0.934   115 H    0.934
    93   6 C    3.989 --    94 C    1.468    91 C    1.354   117 H    0.972
    94   6 C    3.987 --    93 C    1.468    88 C    1.381   118 H    0.973
    95   6 C    3.912 --    87 C    1.315    99 N    1.241    96 C    1.175
    96   6 C    3.958 --    97 C    1.652    95 C    1.175   119 H    0.973
    97   6 C    3.954 --    96 C    1.652    98 C    1.173   120 H    0.976
    98   6 C    3.918 --    62 C    1.361    99 N    1.229    97 C    1.173
    99   7 N    3.242 --    95 C    1.241    98 C    1.229    61 Cu   0.504
   100   1 H    1.002 --    62 C    0.971
   101   1 H    0.998 --    64 C    0.976
   102   1 H    1.005 --    65 C    0.973
   103   1 H    1.005 --    70 C    0.973
   104   1 H    0.999 --    71 C    0.972
   105   1 H    0.961 --    73 N    0.933
   106   1 H    0.961 --    73 N    0.934
   107   1 H    0.999 --    74 C    0.972
   108   1 H    1.005 --    75 C    0.973
   109   1 H    1.006 --    77 C    0.973
   110   1 H    1.002 --    78 C    0.974
   111   1 H    1.002 --    83 C    0.974
   112   1 H    1.006 --    84 C    0.973
   113   1 H    1.005 --    89 C    0.973
   114   1 H    0.999 --    90 C    0.972
   115   1 H    0.961 --    92 N    0.934
   116   1 H    0.961 --    92 N    0.934
   117   1 H    0.999 --    93 C    0.972
   118   1 H    1.005 --    94 C    0.973
   119   1 H    1.005 --    96 C    0.973
   120   1 H    0.998 --    97 C    0.976
   121   6 C    3.926 --   122 C    2.370   125 C    1.334   124 C    0.190
   122   6 C    3.926 --   121 C    2.370   123 C    1.334   126 C    0.190
   123   6 C    3.934 --   124 C    2.450   122 C    1.334
   124   6 C    3.891 --   123 C    2.450    21 C    1.190   121 C    0.190
   125   6 C    3.934 --   126 C    2.450   121 C    1.334
   126   6 C    3.891 --   125 C    2.450    81 C    1.190   122 C    0.190
 ---------------------------------------------------------------------------

Topologies differ in total number of bonds
Writing topology from bond orders to xtbtopo.mol

 dipole moment from electron density (au)
     X       Y       Z   
  -0.0069  -0.0113  -0.0232  total (Debye):    0.068

           -------------------------------------------------
          |                Geometry Summary                 |
           -------------------------------------------------

      molecular mass/u    :     1178.2575429
   center of mass at/Å    :       22.1046278      -0.0023742      -0.0038164
  moments of inertia/u·Å² :        0.2190354E+05   0.7577699E+05   0.9684319E+05
rotational constants/cm⁻¹ :        0.7696304E-03   0.2224637E-03   0.1740714E-03

 * 129 selected distances

     #   Z          #   Z                                           value/Å
     2   6 C        3   6 C                                       1.3870185
     3   6 C        4   6 C                                       1.4344583
     4   6 C        5   6 C                                       1.3565131
     5   6 C        6   6 C                                       1.4375110
     3   6 C        7   7 N                                       1.3660768
     6   6 C        7   7 N                                       1.3650853
     6   6 C        8   6 C                                       1.3982417
     9   6 C       10   6 C                                       1.3971617
    10   6 C       11   6 C                                       1.3835590
    11   6 C       12   6 C                                       1.3972561
    12   6 C       13   7 N                                       1.3841580
    12   6 C       14   6 C                                       1.3972542
     9   6 C       15   6 C                                       1.3971464
    14   6 C       15   6 C                                       1.3836126
     8   6 C       16   6 C                                       1.3971029
    16   6 C       17   6 C                                       1.4353210
    17   6 C       18   6 C                                       1.3575170
    16   6 C       19   7 N                                       1.3702515
    18   6 C       20   6 C                                       1.4315783
    19   7 N       20   6 C                                       1.3607076
    20   6 C       21   6 C                                       1.4066749
    21   6 C       22   6 C                                       1.4064829
    22   6 C       23   6 C                                       1.4314796
    23   6 C       24   6 C                                       1.3576139
    24   6 C       25   6 C                                       1.4353507
    22   6 C       26   7 N                                       1.3608212
    25   6 C       26   7 N                                       1.3702805
    25   6 C       27   6 C                                       1.3971498
    28   6 C       29   6 C                                       1.3971064
    29   6 C       30   6 C                                       1.3836387
    30   6 C       31   6 C                                       1.3972251
    31   6 C       32   7 N                                       1.3843668
    31   6 C       33   6 C                                       1.3972400
    28   6 C       34   6 C                                       1.3972150
    33   6 C       34   6 C                                       1.3835639
    27   6 C       35   6 C                                       1.3983199
    35   6 C       36   6 C                                       1.4375819 (max)
    36   6 C       37   6 C                                       1.3565116
     2   6 C       38   6 C                                       1.3870025
    37   6 C       38   6 C                                       1.4344305
    35   6 C       39   7 N                                       1.3649979
    38   6 C       39   7 N                                       1.3660795
     2   6 C       40   1 H                                       1.0853031
     4   6 C       41   1 H                                       1.0787801
     5   6 C       42   1 H                                       1.0781721
    10   6 C       43   1 H                                       1.0845870
    11   6 C       44   1 H                                       1.0845876
    13   7 N       45   1 H                                       1.0074328 (min)
    13   7 N       46   1 H                                       1.0074814
    14   6 C       47   1 H                                       1.0846144
    15   6 C       48   1 H                                       1.0846260
    17   6 C       49   1 H                                       1.0780229
    18   6 C       50   1 H                                       1.0783202
    23   6 C       51   1 H                                       1.0783725
    24   6 C       52   1 H                                       1.0780137
    29   6 C       53   1 H                                       1.0845842
    30   6 C       54   1 H                                       1.0845973
    32   7 N       55   1 H                                       1.0075646
    32   7 N       56   1 H                                       1.0076223
    33   6 C       57   1 H                                       1.0846349
    34   6 C       58   1 H                                       1.0846289
    36   6 C       59   1 H                                       1.0781682
    37   6 C       60   1 H                                       1.0787840
    62   6 C       63   6 C                                       1.3870151
    63   6 C       64   6 C                                       1.4344720
    64   6 C       65   6 C                                       1.3565039
    65   6 C       66   6 C                                       1.4375154
    63   6 C       67   7 N                                       1.3660639
    66   6 C       67   7 N                                       1.3650818
    66   6 C       68   6 C                                       1.3982068
    69   6 C       70   6 C                                       1.3971266
    70   6 C       71   6 C                                       1.3835815
    71   6 C       72   6 C                                       1.3972409
    72   6 C       73   7 N                                       1.3842373
    72   6 C       74   6 C                                       1.3972383
    69   6 C       75   6 C                                       1.3971182
    74   6 C       75   6 C                                       1.3836202
    68   6 C       76   6 C                                       1.3970655
    76   6 C       77   6 C                                       1.4353233
    77   6 C       78   6 C                                       1.3575060
    76   6 C       79   7 N                                       1.3702478
    78   6 C       80   6 C                                       1.4315929
    79   7 N       80   6 C                                       1.3607102
    80   6 C       81   6 C                                       1.4066611
    81   6 C       82   6 C                                       1.4064921
    82   6 C       83   6 C                                       1.4314984
    83   6 C       84   6 C                                       1.3576084
    84   6 C       85   6 C                                       1.4353463
    82   6 C       86   7 N                                       1.3607984
    85   6 C       86   7 N                                       1.3702931
    85   6 C       87   6 C                                       1.3971077
    88   6 C       89   6 C                                       1.3970832
    89   6 C       90   6 C                                       1.3836424
    90   6 C       91   6 C                                       1.3972226
    91   6 C       92   7 N                                       1.3844047
    91   6 C       93   6 C                                       1.3972334
    88   6 C       94   6 C                                       1.3971790
    93   6 C       94   6 C                                       1.3835933
    87   6 C       95   6 C                                       1.3982774
    95   6 C       96   6 C                                       1.4375774
    96   6 C       97   6 C                                       1.3565044
    62   6 C       98   6 C                                       1.3870017
    97   6 C       98   6 C                                       1.4344457
    95   6 C       99   7 N                                       1.3650023
    98   6 C       99   7 N                                       1.3660722
    62   6 C      100   1 H                                       1.0853021
    64   6 C      101   1 H                                       1.0787800
    65   6 C      102   1 H                                       1.0781723
    70   6 C      103   1 H                                       1.0845859
    71   6 C      104   1 H                                       1.0845892
    73   7 N      105   1 H                                       1.0074918
    73   7 N      106   1 H                                       1.0074962
    74   6 C      107   1 H                                       1.0846114
    75   6 C      108   1 H                                       1.0846250
    77   6 C      109   1 H                                       1.0780203
    78   6 C      110   1 H                                       1.0783217
    83   6 C      111   1 H                                       1.0783676
    84   6 C      112   1 H                                       1.0780198
    89   6 C      113   1 H                                       1.0845870
    90   6 C      114   1 H                                       1.0845982
    92   7 N      115   1 H                                       1.0076013
    92   7 N      116   1 H                                       1.0076365
    93   6 C      117   1 H                                       1.0846447
    94   6 C      118   1 H                                       1.0846331
    96   6 C      119   1 H                                       1.0781684
    97   6 C      120   1 H                                       1.0787846
   121   6 C      122   6 C                                       1.2283446
   123   6 C      124   6 C                                       1.2239916
   125   6 C      126   6 C                                       1.2239631

 * 4 distinct bonds (by element types)

   Z      Z             #   av. dist./Å        max./Å        min./Å
   1 H    6 C          34     1.0816944     1.0853031     1.0780137
   6 C    6 C          67     1.3920558     1.4375819     1.2239631
   1 H    7 N           8     1.0075409     1.0076365     1.0074328
   6 C    7 N          20     1.3692868     1.3844047     1.3607076


optimized geometry written to: xtbopt.xyz


           -------------------------------------------------
          | TOTAL ENERGY             -217.879569132320 Eh   |
          | GRADIENT NORM               0.000400353904 Eh/α |
          | HOMO-LUMO GAP               0.004584382992 eV   |
           -------------------------------------------------

------------------------------------------------------------------------
 * finished run on 2022/07/30 at 07:35:24.269     
------------------------------------------------------------------------
 total:
 * wall-time:     0 d,  0 h,  0 min, 33.968 sec
 *  cpu-time:     0 d,  0 h,  0 min, 33.797 sec
 * ratio c/w:     0.995 speedup
 SCF:
 * wall-time:     0 d,  0 h,  0 min,  1.350 sec
 *  cpu-time:     0 d,  0 h,  0 min,  1.343 sec
 * ratio c/w:     0.995 speedup
 ANC optimizer:
 * wall-time:     0 d,  0 h,  0 min, 32.469 sec
 *  cpu-time:     0 d,  0 h,  0 min, 32.314 sec
 * ratio c/w:     0.995 speedup

