201
 energy: -317.776070054408 gnorm: 25.845498679970 xtb: 6.5.1 (b24c23e)
Ni          38.91963100000000        1.97491800000000        1.61934100000000
C           35.16854000000000        0.08143400000000       -0.04029900000000
C           35.81817200000000        0.93463500000000        0.75680900000000
C           35.15346500000000        1.85327500000000        1.67314900000000
C           36.08367100000000        2.56643300000000        2.28041400000000
C           37.39590199999999        2.14544400000000        1.77029900000000
N           37.23410399999999        1.10126700000000        0.80940800000000
C           38.58131500000000        2.67573200000000        2.13687900000000
C           38.61517700000000        3.78921600000000        3.11277000000000
C           38.12737600000000        5.05632200000000        2.76210000000000
C           38.17557500000000        6.10817500000000        3.68080800000000
C           38.71663200000000        5.91372400000000        4.96158900000000
N           38.75308699999999        7.01704500000000        5.88558400000000
C           39.29449900000000        6.91950000000000        7.23710500000000
C           39.21205200000000        4.64144500000000        5.30707700000000
C           39.16245100000000        3.58967600000000        4.38769300000000
C           39.88045300000000        2.19721300000000        1.59526600000000
C           41.15725600000000        2.89129600000000        1.80308200000000
C           42.10170899999999        2.18156000000000        1.21981200000000
N           40.03661199999999        1.10757500000000        0.90775900000000
C           41.43471900000000        1.02704100000000        0.63056300000000
C           42.04150099999999        0.01566900000000       -0.01166300000000
C           41.29088099999999       -1.11780700000000       -0.59615600000000
C           41.83261400000000       -2.28523300000000       -0.91954500000000
C           40.80054800000000       -3.07652600000000       -1.56096400000000
C           39.69758800000000       -2.33745200000000       -1.59125900000000
N           39.91725500000000       -1.06444700000000       -0.98157800000000
C           38.42703400000000       -2.75312900000000       -2.23888000000000
C           38.46558700000000       -3.85415500000000       -3.23209200000000
C           39.21130300000000       -3.71077900000000       -4.41075500000000
C           39.26833499999999       -4.75157900000000       -5.34210400000000
C           38.58244700000000       -5.95834200000000       -5.10488500000000
N           38.62118900000000       -7.04869000000000       -6.04406900000000
C           39.35791300000000       -7.00304400000000       -7.30278600000000
C           37.84487800000000       -6.09944600000000       -3.91891300000000
C           37.78917300000000       -5.05872100000000       -2.98806700000000
C           37.25827000000000       -2.15085800000000       -1.94650300000000
C           35.95789400000000       -2.44762800000000       -2.54505300000000
C           35.08559600000000       -1.67137300000000       -1.93148800000000
C           35.82034900000000       -0.87066900000000       -0.95357300000000
N           37.08723000000000       -1.14168700000000       -0.95346400000000
H           34.08494100000000        0.08441200000000       -0.02183000000000
H           34.08802500000000        1.94271900000000        1.84223300000000
H           35.88430600000000        3.32543900000000        3.02549600000000
H           37.71164699999999        5.22836900000000        1.77678300000000
H           37.79179200000000        7.07873500000000        3.39252000000000
H           38.37350700000000        7.94278800000000        5.58237000000000
H           40.36681300000000        6.63470000000000        7.19533000000000
H           38.72449800000000        6.16533000000000        7.81936500000000
H           39.20852700000000        7.90113600000000        7.74917700000000
H           39.63856400000000        4.45354900000000        6.28283700000000
H           39.54954899999999        2.61790200000000        4.66920000000000
H           41.31711200000000        3.82019900000000        2.33458200000000
H           43.15388400000000        2.43250900000000        1.20050600000000
H           42.85934199999999       -2.58799000000000       -0.76331000000000
H           40.91986700000000       -4.07409200000000       -1.96347500000000
H           39.74636500000000       -2.79005200000000       -4.60935400000000
H           39.84968900000000       -4.60655800000000       -6.24228500000000
H           38.09617200000000       -7.92521400000000       -5.82257100000000
H           38.96954199999999       -6.17993900000000       -7.93869200000000
H           39.23137799999999       -7.96195100000000       -7.84841600000000
H           40.43918100000000       -6.84954700000000       -7.10278300000000
H           37.31361700000000       -7.02029800000000       -3.71348400000000
H           37.22209500000000       -5.19213900000000       -2.07488300000000
H           35.72757900000000       -3.15325500000000       -3.33233000000000
H           34.02236800000000       -1.63964000000000       -2.13017700000000
Ni          60.08744699999999       -2.00354200000000       -1.56781900000000
C           63.83853800000000        0.02926500000000       -0.08209200000000
C           63.18890500000000       -0.93480400000000       -0.74080700000000
C           63.85361199999999       -2.02951100000000       -1.43736500000000
C           62.92340699999999       -2.77775400000000       -2.00083500000000
C           61.61117599999999       -2.18807100000000       -1.70129600000000
N           61.77297399999999       -1.02249500000000       -0.89194600000000
C           60.42576300000000       -2.66152600000000       -2.13882000000000
C           60.39190000000000       -3.85686400000000       -3.01253400000000
C           60.87970200000000       -3.79112600000000       -4.32562400000000
C           60.83150300000000       -4.91721100000000       -5.15167000000000
C           60.29044600000000       -6.12470200000000       -4.68243900000000
N           60.25399099999999       -7.26717500000000       -5.55756000000000
C           59.71257900000000       -8.56484700000000       -5.16746400000000
C           59.79502500000000       -6.18425400000000       -3.36543100000000
C           59.84462700000000       -5.05752800000000       -2.53961500000000
C           59.12662399999999       -2.02855200000000       -1.79001100000000
C           57.84982200000000       -2.38280900000000       -2.42202400000000
C           56.90536800000000       -1.65872900000000       -1.85665900000000
N           58.97046599999999       -1.11985300000000       -0.87664200000000
C           57.57235800000000       -0.83176400000000       -0.85853200000000
C           56.96557700000000        0.01566900000000       -0.01166300000000
C           57.71619599999999        0.83340100000000        0.96696500000000
C           57.17446300000000        1.40373000000000        2.03569700000000
C           58.20652900000000        2.20235300000000        2.66796600000000
C           59.30949000000000        2.07065200000000        1.94009000000000
N           59.08982200000000        1.19789400000000        0.83079200000000
C           60.58004300000000        2.79336900000000        2.20444000000000
C           60.54149100000000        4.00289200000000        3.06221900000000
C           59.79577400000000        5.12186900000000        2.66511400000000
C           59.73874199999999        6.25787900000000        3.47761500000000
C           60.42463000000000        6.28969000000000        4.70706100000000
N           60.38588900000000        7.44415700000000        5.56620700000000
C           59.64916400000000        8.66258500000000        5.24700900000000
C           61.16220000000000        5.16308500000000        5.10354400000000
C           61.21790400000000        4.02758200000000        4.29100500000000
C           61.74880700000000        2.37662100000000        1.68047800000000
C           63.04918400000000        3.02550500000000        1.83949400000000
C           63.92148199999999        2.25734600000000        1.21582300000000
C           63.18672900000000        1.12828000000000        0.64779400000000
N           61.91984800000000        1.18731100000000        0.91230500000000
H           64.92213700000001        0.01059000000000       -0.08096900000000
H           64.91905300000001       -2.21403700000000       -1.48776100000000
H           63.12277100000000       -3.67049800000000       -2.57897500000000
H           61.29543099999999       -2.86709200000000       -4.70852200000000
H           61.21528600000000       -4.84764500000000       -6.16174900000000
H           60.63357000000000       -7.17326500000000       -6.52715800000000
H           58.64026500000000       -8.46193500000000       -4.89864200000000
H           60.28258000000000       -8.96851700000000       -4.30441800000000
H           59.79855100000000       -9.27877200000000       -6.01371300000000
H           59.36851300000000       -7.09550300000000       -2.96915300000000
H           59.45752899999999       -5.12021100000000       -1.52983200000000
H           57.68996499999999       -3.10418800000000       -3.21257100000000
H           55.85319400000000       -1.69464500000000       -2.10577400000000
H           56.14773599999999        1.31732100000000        2.36524900000000
H           58.08721100000000        2.81283300000000        3.55366700000000
H           59.26071300000000        5.11478100000000        1.72323800000000
H           59.15738900000000        7.10472600000000        3.13966900000000
H           60.91090600000000        7.41925400000000        6.46994100000000
H           60.03753600000000        9.10356800000000        4.30498400000000
H           59.77569999999999        9.40430000000000        6.06375400000000
H           58.56789600000000        8.43390900000000        5.14085100000000
H           61.69346099999999        5.16353500000000        6.04703200000000
H           61.78498300000000        3.16551400000000        4.62046500000000
H           63.27949900000000        3.94777800000000        2.35633500000000
H           64.98470900000000        2.44432300000000        1.14150100000000
C           43.79552100000000        0.01566900000000       -0.01166300000000
C           45.01743900000000        0.01566900000000       -0.01166300000000
C           53.98963899999999        0.01566900000000       -0.01166300000000
C           55.21155700000000        0.01566900000000       -0.01166300000000
Ni          49.83330600000000       -2.03668100000000       -1.58331400000000
C           46.06965300000000       -0.03278400000000        0.02440300000000
C           46.72661600000000       -0.99136300000000       -0.65400700000000
C           46.08492800000000       -2.09728500000000       -1.36866300000000
C           47.02389800000000       -2.80773500000000       -1.96108800000000
C           48.32309500000000       -2.20038100000000       -1.65774000000000
N           48.14475199999999       -1.05189300000000       -0.82575500000000
C           49.50677400000000       -2.64241900000000       -2.12929800000000
C           49.53318100000000       -3.81449100000000       -3.02897500000000
C           49.61767900000000       -5.10797400000000       -2.49796600000000
C           49.64758399999999       -6.21577600000000       -3.34942700000000
C           49.59614000000000       -6.04766900000000       -4.74278000000000
N           49.62798500000000       -7.20848200000000       -5.59383100000000
C           49.57816799999999       -7.14106500000000       -7.05057600000000
C           49.51458500000000       -4.74377400000000       -5.27063900000000
C           49.48324500000000       -3.63661600000000       -4.41782900000000
C           50.80719900000000       -2.01187400000000       -1.79271200000000
C           52.08162800000000       -2.38454400000000       -2.41939700000000
C           53.03469300000000       -1.67878900000000       -1.84572400000000
N           50.97330600000000       -1.11605500000000       -0.87014300000000
C           52.37571000000000       -0.85083100000000       -0.84366300000000
C           52.99084000000000       -0.03278400000000        0.02440300000000
C           52.24209900000000        0.76958000000000        1.01529100000000
C           52.77931900000000        1.31141400000000        2.10100900000000
C           51.74629000000000        2.10015500000000        2.74339600000000
C           50.64835900000000        1.98889900000000        2.00446400000000
N           50.87098000000000        1.14196900000000        0.87782100000000
C           49.38889400000000        2.72861900000000        2.25889300000000
C           49.44708600000000        3.95491400000000        3.09095000000000
C           48.78729100000000        4.00877600000000        4.32752500000000
C           48.85759699999999        5.16116200000000        5.11583800000000
C           49.59555800000000        6.27863800000000        4.67998800000000
N           49.68523600000000        7.48121700000000        5.46652800000000
C           49.04090799999999        7.64511800000000        6.76547000000000
C           50.26148300000000        6.21431700000000        3.44605500000000
C           50.19202000000000        5.06125100000000        2.65966800000000
C           48.21427099999999        2.32220000000000        1.73992800000000
C           46.93426400000000        3.00939400000000        1.87632000000000
C           46.04552300000000        2.25283000000000        1.26619800000000
C           46.74630199999999        1.08040800000000        0.73077500000000
N           48.01452800000000        1.11651700000000        1.00154900000000
H           45.02723700000000       -2.31760300000000       -1.42597500000000
H           46.83916700000000       -3.68548300000000       -2.56694400000000
H           49.65937800000000       -5.25738300000000       -1.42570900000000
H           49.71101800000000       -7.20853200000000       -2.92132600000000
H           49.69014600000000       -8.15516800000000       -5.15552200000000
H           48.63504100000000       -6.65283900000000       -7.37500900000000
H           50.45078800000000       -6.57049800000000       -7.43280400000000
H           49.61126400000000       -8.16637600000000       -7.47640200000000
H           49.47510000000000       -4.57348400000000       -6.33788900000000
H           49.42192200000000       -2.64022800000000       -4.83887600000000
H           52.23513500000000       -3.11061600000000       -3.20664900000000
H           54.08811200000000       -1.73431300000000       -2.08537400000000
H           53.80307300000000        1.21199400000000        2.43589100000000
H           51.86310499999999        2.69705900000000        3.63853500000000
H           48.22121600000000        3.15585500000000        4.68180200000000
H           48.33609199999999        5.17066100000000        6.06295800000000
H           50.23777600000000        8.28709700000000        5.09532600000000
H           49.42975000000000        6.88820700000000        7.47854100000000
H           49.25722500000000        8.65690200000000        7.16912300000000
H           47.94152300000000        7.53502800000000        6.65848900000000
H           50.83763200000000        7.06014600000000        3.09201800000000
H           50.71460600000000        5.03223700000000        1.71123600000000
H           46.72821100000000        3.95257700000000        2.36486900000000
H           44.99243100000000        2.48368600000000        1.18080500000000
201
 energy: -329.196953165602 gnorm: 5.602195714748 xtb: 6.5.1 (b24c23e)
Ni          38.86970333474699        1.83784869319456        1.53956926387861
C           35.16861751669346        0.08047105033261       -0.04121681884758
C           35.81869723855516        0.93501823114178        0.75730493635253
C           35.15304130597018        1.85265554911618        1.67259257233359
C           36.08414241422114        2.56666870309567        2.28072817683998
C           37.38625962879399        2.14464408862400        1.76997785748153
N           37.23228231955719        1.10179031752145        0.80975181957944
C           38.52535194013647        2.79131131512818        2.22285094144389
C           38.61451279885249        3.79061006207764        3.11359662120459
C           38.12738250295952        5.05669324440131        2.76246512179759
C           38.17559080902905        6.10799982082799        3.68070346088774
C           38.71667887732497        5.91431138207592        4.96215617019602
N           38.75289631143418        7.01685877574221        5.88494039407138
C           39.29450629193695        6.91947881887619        7.23710548167282
C           39.21199636353639        4.64137921511162        5.30690604303194
C           39.16242604743974        3.59001828196920        4.38792693273254
C           39.99215253954751        2.22306883361180        1.59271606843445
C           41.15813356950120        2.89195119094501        1.80339163245732
C           42.10217602699898        2.18091459339152        1.21933682344840
N           40.04124599154531        1.10292229786259        0.90379254971142
C           41.43469246890474        1.02751405210155        0.63085925983449
C           42.04328582425326        0.01438587434056       -0.01228801548773
C           41.29032603065208       -1.11615482838906       -0.59582351627785
C           41.83272339771091       -2.28700201368667       -0.92032102444868
C           40.80238133725945       -3.07694579141696       -1.56065208230867
C           39.69617436384419       -2.33616315363469       -1.59125527885111
N           39.91773366688499       -1.06507688875586       -0.98173398143534
C           38.42796587278887       -2.75296815619243       -2.23860144715652
C           38.46569091967385       -3.85415456469876       -3.23200295257131
C           39.21123346108716       -3.71109545399791       -4.41078911463252
C           39.26823663420728       -4.75156194601879       -5.34194102960521
C           38.58250252203901       -5.95881021073080       -5.10535952095107
N           38.62093173410909       -7.04857230109754       -6.04351957106217
C           39.35790671791549       -7.00302673998836       -7.30276208406807
C           37.84492504681388       -6.09928243200408       -3.91886765293523
C           37.78924985540323       -5.05877815905763       -2.98836563524343
C           37.25779516512302       -2.15043407098148       -1.94617814676187
C           35.95839053833388       -2.44791812706704       -2.54524429811270
C           35.08499609248195       -1.67093280585818       -1.93115229530378
C           35.81941811841070       -0.87017472590187       -0.95315822706293
N           37.08764535962744       -1.14228113934840       -0.95398010737890
H           34.08493110067703        0.08440986648183       -0.02188631261148
H           34.08805012279932        1.94263008705348        1.84214402327528
H           35.88450221216551        3.32545447002797        3.02548289250134
H           37.71164755436838        5.22834414925965        1.77678653691271
H           37.79179569265730        7.07875503424204        3.39253250249004
H           38.37373423712190        7.94217718099325        5.58250698266122
H           40.36660084974022        6.63473538222303        7.19537951632178
H           38.72464608653515        6.16546773795304        7.81927778704766
H           39.20852268456002        7.90090271754618        7.74898979676327
H           39.63856650896047        4.45357046101327        6.28285283058792
H           39.54954039950015        2.61789136172110        4.66919052522143
H           41.31696260347471        3.82024360217336        2.33463658177880
H           43.15383065675250        2.43238549751239        1.20042322976662
H           42.85932430716868       -2.58803413549073       -0.76330519744667
H           40.91990908511314       -4.07408758444798       -1.96343355842939
H           39.74635539238712       -2.79005394965530       -4.60933939448412
H           39.84968923998354       -4.60658146150329       -6.24231461323843
H           38.09648823627177       -7.92463124054737       -5.82266185173017
H           38.96966046503798       -6.18008989488220       -7.93859439731409
H           39.23137609737709       -7.96172482840816       -7.84823186088110
H           40.43898269065204       -6.84955394013582       -7.10286641944717
H           37.31361820812314       -7.02032838875102       -3.71349833499563
H           37.22210486406301       -5.19212453453273       -2.07488177358404
H           35.72772096409766       -3.15325893034854       -3.33230924105780
H           34.02235075313973       -1.63955908911367       -2.13010190777023
Ni          60.13734557291228       -1.89581848940316       -1.45149611382725
C           63.83845971986590        0.03037655912006       -0.08134891811013
C           63.18838284110011       -0.93537562951265       -0.74108254610746
C           63.85404131874928       -2.02882913016616       -1.43687972584476
C           62.92293652866691       -2.77810877522899       -2.00099259326765
C           61.62084539562805       -2.18759929027597       -1.70058589188061
N           61.77481429468993       -1.02293491535302       -0.89237187237007
C           60.48176088180073       -2.77065051512069       -2.23285477019499
C           60.39255564081472       -3.85796699564100       -3.01371253209244
C           60.87969527481918       -3.79156305179446       -4.32590761762659
C           60.83148658024959       -4.91707355497902       -5.15152161850364
C           60.29040062335314       -6.12537269238249       -4.68287858436073
N           60.25417842204990       -7.26651631003945       -5.55752886438667
C           59.71257544081753       -8.56484058334090       -5.16744415801175
C           59.79508218154013       -6.18407469634297       -3.36540821866472
C           59.84465220765440       -5.05782977369856       -2.53989728729888
C           59.01490239879787       -2.03167023831589       -1.81577173311925
C           57.84896029937278       -2.38326923573396       -2.42260879074956
C           56.90490886707882       -1.65810992390368       -1.85611614578489
N           58.96580628858255       -1.11497433467704       -0.87297209144218
C           57.57237329161013       -0.83214958142251       -0.85892481921376
C           56.96382655323075        0.01656944241637       -0.01053629691975
C           57.71671369433632        0.83269851331845        0.96542281501759
C           57.17434719368359        1.40487854866181        2.03725938488638
C           58.20468176327016        2.20212960188732        2.66844191072629
C           59.31091008370351        2.07036114571626        1.93882223162677
N           59.08937808775914        1.19819749724643        0.83137316593757
C           60.57910943316925        2.79307034414407        2.20434718747048
C           60.54138740668847        4.00280177445515        3.06223580401373
C           59.79583905270023        5.12197617055554        2.66541607463390
C           59.73883965960760        6.25771378920717        3.47762879464415
C           60.42457321833456        6.29026438436825        4.70742205920909
N           60.38614863988111        7.44358801875426        5.56620434811027
C           59.64916631608298        8.66255959997209        5.24699692369519
C           61.16215466918518        5.16300150740505        5.10339348936263
C           61.21783084362067        4.02788730978885        4.29099768401119
C           61.74928668296592        2.37620727474971        1.68013386062707
C           63.04868600327879        3.02575422128471        1.83973534239534
C           63.92208205363072        2.25692122649597        1.21546615791152
C           63.18766820350606        1.12776739011031        0.64739877838868
N           61.91942687295710        1.18794522396144        0.91277556820384
H           64.92214715676560        0.01064525370230       -0.08097802140977
H           64.91902821592781       -2.21393008164653       -1.48769351710294
H           63.12257457611404       -3.67048852304523       -2.57899293438895
H           61.29543029256735       -2.86709022388130       -4.70849700150879
H           61.21528261692301       -4.84766201301236       -6.16176610884367
H           60.63334400636942       -7.17326615302384       -6.52653120418110
H           58.64047555186781       -8.46199181739041       -4.89866511620948
H           60.28243171464533       -8.96846238137574       -4.30457104417808
H           59.79855521797969       -9.27853902656729       -6.01352629672845
H           59.36851060943872       -7.09552427163219       -2.96917025841646
H           59.45753752818645       -5.12019944046661       -1.52982347074933
H           57.69011321326356       -3.10425354730649       -3.21260512064951
H           55.85326504559315       -1.69453559091858       -2.10567568539600
H           56.14775946954216        1.31732911669493        2.36528723019938
H           58.08716981238820        2.81278988555440        3.55366828076679
H           59.26072268405849        5.11476730095708        1.72324358076717
H           59.15738943759136        7.10475872793795        3.13968550215790
H           60.91058895976527        7.41921481869026        6.46935321816809
H           60.03741785891745        9.10350524410466        4.30515288114169
H           59.77570210612991        9.40407040983917        6.06357331538806
H           58.56809616442479        8.43399138543165        5.14083989541227
H           61.69345943153996        5.16355497028321        6.04705840415801
H           61.78497308309502        3.16550922746575        4.62045147895235
H           63.27935668977194        3.94775812010871        2.35634306816641
H           64.98472604038710        2.44423193316042        1.14143819479096
C           43.79161838473801        0.01567043957936       -0.01167643760270
C           45.00164360300475        0.01640757230689       -0.01206256801943
C           54.01144811510098        0.01702150580430       -0.01211626910049
C           55.21587345290476        0.01567386142639       -0.01167545376528
Ni          49.81299592616332       -1.89599032657194       -1.43215787775571
C           46.08466909421308       -0.03219645761913        0.02556350421734
C           46.72850843081202       -0.99274536142695       -0.65493829153004
C           46.08445281336441       -2.09640613945312       -1.36799902555806
C           47.02450562182617       -2.80804710785271       -1.96134962228683
C           48.31279258503407       -2.20006796547235       -1.65654076978025
N           48.14268239310624       -1.05221820771731       -0.82601057077252
C           49.42788604558207       -2.78985849605743       -2.26151236178077
C           49.53222100863908       -3.81603913908651       -3.03049153792179
C           49.61766866195981       -5.10830963156498       -2.49827932030614
C           49.64758827896613       -6.21560444387324       -3.34936365248279
C           49.59614920686958       -6.04825553250096       -4.74328955746935
N           49.62799982356824       -7.20828493283593       -5.59317892440236
C           49.57816487778355       -7.14104350365445       -7.05057679289787
C           49.51459815033481       -4.74372895705309       -5.27047595885522
C           49.48324528723523       -3.63705906803037       -4.41810795372439
C           50.91309686756376       -2.00936556498806       -1.81531552271328
C           52.08243536824759       -2.38491422782720       -2.41993712805723
C           53.03517515514323       -1.67808747885827       -1.84507925049596
N           50.97798734111000       -1.11123131359026       -0.86663045314075
C           52.37392442241183       -0.85204552135325       -0.84477271356968
C           52.96957994428318       -0.03284348371616        0.02614360122496
C           52.24026030873858        0.76942565340767        1.01436971998217
C           52.77947741881755        1.31239110706540        2.10244664169226
C           51.74803392442965        2.09996809252231        2.74388252857942
C           50.64699902118052        1.98868381052240        2.00320165275589
N           50.87149378896563        1.14223751796687        0.87847272956208
C           49.38974061408889        2.72829282897841        2.25877190270905
C           49.44717404756774        3.95483520276591        3.09098766085842
C           48.78738484937171        4.00908626827017        4.32749320172931
C           48.85767770675830        5.16113426989858        5.11567013207005
C           49.59555795390401        6.27915977533580        4.68039648943289
N           49.68544296135475        7.48101512634085        5.46598676686463
C           49.04091394112268        7.64509813413537        6.76544564642249
C           50.26141540269385        6.21415351463682        3.44602421576787
C           50.19196194616617        5.06137194517766        2.65994912410728
C           48.21386042593129        2.32188672053685        1.73966864709921
C           46.93481904496999        3.00965703177646        1.87658300377692
C           46.04490531675099        2.25228813549957        1.26576141447102
C           46.74647565014334        1.08053446916683        0.73087302525591
N           48.01475531309234        1.11710447031614        1.00195020010493
H           45.02724723475847       -2.31747785638546       -1.42587831218229
H           46.83935450037502       -3.68546336148465       -2.56695363674079
H           49.65936252909828       -5.25736674958391       -1.42570621008571
H           49.71102135237518       -7.20854919694037       -2.92134066836341