      -----------------------------------------------------------      
     |                   =====================                   |     
     |                           x T B                           |     
     |                   =====================                   |     
     |                         S. Grimme                         |     
     |          Mulliken Center for Theoretical Chemistry        |     
     |                    University of Bonn                     |     
      -----------------------------------------------------------      

   * xtb version 6.5.1 (b24c23e) compiled by 'conda@728c89f4b128' on 2022-07-12

   xtb is free software: you can redistribute it and/or modify it under
   the terms of the GNU Lesser General Public License as published by
   the Free Software Foundation, either version 3 of the License, or
   (at your option) any later version.
   
   xtb is distributed in the hope that it will be useful,
   but WITHOUT ANY WARRANTY; without even the implied warranty of
   MERCHANTABILITY or FITNESS FOR A PARTICULAR PURPOSE.  See the
   GNU Lesser General Public License for more details.
   
   Cite this work as:
   * C. Bannwarth, E. Caldeweyher, S. Ehlert, A. Hansen, P. Pracht,
     J. Seibert, S. Spicher, S. Grimme, WIREs Comput. Mol. Sci., 2020, 11,
     e01493. DOI: 10.1002/wcms.1493
   
   for GFN2-xTB:
   * C. Bannwarth, S. Ehlert and S. Grimme., J. Chem. Theory Comput., 2019,
     15, 1652-1671. DOI: 10.1021/acs.jctc.8b01176
   for GFN1-xTB:
   * S. Grimme, C. Bannwarth, P. Shushkov, J. Chem. Theory Comput., 2017,
     13, 1989-2009. DOI: 10.1021/acs.jctc.7b00118
   for GFN0-xTB:
   * P. Pracht, E. Caldeweyher, S. Ehlert, S. Grimme, ChemRxiv, 2019, preprint.
     DOI: 10.26434/chemrxiv.8326202.v1
   for GFN-FF:
   * S. Spicher and S. Grimme, Angew. Chem. Int. Ed., 2020, 59, 15665-15673.
     DOI: 10.1002/anie.202004239
   
   for ALPB and GBSA implicit solvation:
   * S. Ehlert, M. Stahn, S. Spicher, S. Grimme, J. Chem. Theory Comput.,
     2021, 17, 4250-4261. DOI: 10.1021/acs.jctc.1c00471
   
   for DFT-D4:
   * E. Caldeweyher, C. Bannwarth and S. Grimme, J. Chem. Phys., 2017,
     147, 034112. DOI: 10.1063/1.4993215
   * E. Caldeweyher, S. Ehlert, A. Hansen, H. Neugebauer, S. Spicher,
     C. Bannwarth and S. Grimme, J. Chem. Phys., 2019, 150, 154122.
     DOI: 10.1063/1.5090222
   * E. Caldeweyher, J.-M. Mewes, S. Ehlert and S. Grimme, Phys. Chem. Chem. Phys.
     2020, 22, 8499-8512. DOI: 10.1039/D0CP00502A
   
   for sTDA-xTB:
   * S. Grimme and C. Bannwarth, J. Chem. Phys., 2016, 145, 054103.
     DOI: 10.1063/1.4959605
   
   in the mass-spec context:
   * V. Asgeirsson, C. Bauer and S. Grimme, Chem. Sci., 2017, 8, 4879.
     DOI: 10.1039/c7sc00601b
   * J. Koopman and S. Grimme, ACS Omega 2019, 4, 12, 15120-15133.
     DOI: 10.1021/acsomega.9b02011
   
   for metadynamics refer to:
   * S. Grimme, J. Chem. Theory Comput., 2019, 155, 2847-2862
     DOI: 10.1021/acs.jctc.9b00143
   
   for SPH calculations refer to:
   * S. Spicher and S. Grimme, J. Chem. Theory Comput., 2021, 17, 1701-1714
     DOI: 10.1021/acs.jctc.0c01306
   
   with help from (in alphabetical order)
   P. Atkinson, C. Bannwarth, F. Bohle, G. Brandenburg, E. Caldeweyher
   M. Checinski, S. Dohm, S. Ehlert, S. Ehrlich, I. Gerasimov, C. Hölzer
   A. Katbashev, J. Koopman, C. Lavigne, S. Lehtola, F. März, M. Müller,
   F. Musil, H. Neugebauer, J. Pisarek, C. Plett, P. Pracht, F. Pultar,
   J. Seibert, P. Shushkov, S. Spicher, M. Stahn, M. Steiner, T. Strunk,
   J. Stückrath, T. Rose, and J. Unsleber
   
 * started run on 2022/07/27 at 18:14:24.047     

           -------------------------------------------------
          |                Calculation Setup                |
           -------------------------------------------------

          program call               : xtb xtbopt.xyz --gfn 1 --vipea
          hostname                   : cx3-6-25.cx3.hpc.ic.ac.uk
          coordinate file            : xtbopt.xyz
          omp threads                :                     1

   ID    Z sym.   atoms
    1    6 C      1-5, 7-12, 14-18, 20-25, 27-32, 34-39, 60-64, 66-71, 73-77,
                  79-84, 86-91, 93-98, 119-155, 157-162, 164-168, 170-175,
                  177-182, 184-189, 209-213, 215-220, 222-226, 228-233,
                  235-240, 242-247, 267-271, 273-278, 280-284, 286-291,
                  293-298, 300-305, 325-329, 331-336, 338-342, 344-349,
                  351-356, 358-363, 383-387, 389-394, 396-400, 402-407,
                  409-414, 416-421, 441-445, 447-452, 454-458, 460-465,
                  467-472, 474-479, 499-503, 505-510, 512-516, 518-523,
                  525-530, 532-537
    2    7 N      6, 13, 19, 26, 33, 40, 65, 72, 78, 85, 92, 99, 156, 163,
                  169, 176, 183, 190, 214, 221, 227, 234, 241, 248, 272, 279,
                  285, 292, 299, 306, 330, 337, 343, 350, 357, 364, 388, 395,
                  401, 408, 415, 422, 446, 453, 459, 466, 473, 480, 504, 511,
                  517, 524, 531, 538
    3    1 H      41-59, 100-118, 191-208, 249-266, 307-324, 365-382,
                  423-440, 481-498, 539-556

           -------------------------------------------------
          |                 I P E A - x T B                 |
           -------------------------------------------------

        Reference                      10.1039/c7sc00601b
      * Hamiltonian:
        H0-scaling (s, p, d)           2.150000    2.300000    2.000000
        zeta-weighting                 0.000000
      * Dispersion:
        s8                             2.400000
        a1                             0.630000
        a2                             5.000000
        s9                             0.000000
      * Repulsion:
        kExp                           1.500000
        rExp                           1.000000
      * Coulomb:
        alpha                          1.000000
        third order                    atomic
        anisotropic                    false
      * Halogen bond correction:
        rad-scale                      1.300000
        damping                        0.440000


          ...................................................
          :                      SETUP                      :
          :.................................................:
          :  # basis functions                2288          :
          :  # atomic orbitals                2288          :
          :  # shells                         1504          :
          :  # electrons                      1786          :
          :  # halogen bonds                     0          :
          :  max. iterations                   250          :
          :  Hamiltonian                  GFN1-xTB          :
          :  restarted?                      false          :
          :  GBSA solvation                  false          :
          :  PC potential                    false          :
          :  electronic temp.          300.0000000     K    :
          :  accuracy                    1.0000000          :
          :  -> integral cutoff          0.2500000E+02      :
          :  -> integral neglect         0.1000000E-07      :
          :  -> SCF convergence          0.1000000E-05 Eh   :
          :  -> wf. convergence          0.2000000E-04 e    :
          :  Broyden damping             0.4000000          :
          ...................................................

 iter      E             dE          RMSdq      gap      omega  full diag
   1  -1129.7807081 -0.112978E+04  0.103E+01    0.48       0.0  T
   2  -1129.5003423  0.280366E+00  0.649E+00    1.09       1.0  T
   3  -1105.9613497  0.235390E+02  0.573E+00    0.10       1.0  T
   4  -1132.6043979 -0.266430E+02  0.150E+00    0.88       1.0  T
   5  -1135.2222395 -0.261784E+01  0.375E-01    0.92       1.0  T
   6  -1135.3900538 -0.167814E+00  0.131E-01    0.86       1.0  T
   7  -1135.4075326 -0.174787E-01  0.510E-02    0.87       1.0  T
   8  -1135.4077595 -0.226937E-03  0.449E-02    0.86       1.0  T
   9  -1135.4087001 -0.940639E-03  0.275E-02    0.86       1.0  T
  10  -1135.4093061 -0.605957E-03  0.814E-03    0.86       1.0  T
  11  -1135.4093505 -0.443570E-04  0.308E-03    0.86       1.4  T
  12  -1135.4093578 -0.733648E-05  0.107E-03    0.86       4.0  T
  13  -1135.4093589 -0.108507E-05  0.495E-04    0.86       8.6  T
  14  -1135.4093591 -0.203348E-06  0.197E-04    0.86      21.5  T
  15  -1135.4093591 -0.245186E-07  0.999E-05    0.86      42.4  T

   *** convergence criteria satisfied after 15 iterations ***

         #    Occupation            Energy/Eh            Energy/eV
      -------------------------------------------------------------
         1        2.0000           -1.0576826             -28.7810
       ...           ...                  ...                  ...
       887        2.0000           -0.3936940             -10.7130
       888        2.0000           -0.3899795             -10.6119
       889        2.0000           -0.3863002             -10.5118
       890        2.0000           -0.3825339             -10.4093
       891        2.0000           -0.3787102             -10.3052
       892        2.0000           -0.3752602             -10.2114
       893        2.0000           -0.3731159             -10.1530 (HOMO)
       894        0.0000           -0.3414476              -9.2913 (LUMO)
       895                         -0.3381908              -9.2026
       896                         -0.3340600              -9.0902
       897                         -0.3295728              -8.9681
       898                         -0.3252439              -8.8503
       ...                                ...                  ...
      2288                        566.1989831           15407.0585
      -------------------------------------------------------------
                  HL-Gap            0.0316683 Eh            0.8617 eV
             Fermi-level           -0.3572486 Eh           -9.7212 eV

 SCC (total)                   0 d,  0 h,  0 min, 55.267 sec
 SCC setup                      ...        0 min,  0.033 sec (  0.059%)
 Dispersion                     ...        0 min,  0.036 sec (  0.065%)
 classical contributions        ...        0 min,  0.008 sec (  0.015%)
 integral evaluation            ...        0 min,  2.075 sec (  3.754%)
 iterations                     ...        0 min, 48.744 sec ( 88.198%)
 molecular gradient             ...        0 min,  3.778 sec (  6.835%)
 printout                       ...        0 min,  0.593 sec (  1.073%)

         :::::::::::::::::::::::::::::::::::::::::::::::::::::
         ::                     SUMMARY                     ::
         :::::::::::::::::::::::::::::::::::::::::::::::::::::
         :: total energy           -1111.211958605614 Eh    ::
         :: gradient norm              0.149955076653 Eh/a0 ::
         :: HOMO-LUMO gap              0.861738338050 eV    ::
         ::.................................................::
         :: SCC energy             -1135.409359111837 Eh    ::
         :: -> electrostatic           0.870910114841 Eh    ::
         :: repulsion energy          24.693134586604 Eh    ::
         :: dispersion energy         -0.495734080381 Eh    ::
         :: halogen bond corr.         0.000000000000 Eh    ::
         :: add. restraining           0.000000000000 Eh    ::
         :: total charge               0.000000000004 e     ::
         :::::::::::::::::::::::::::::::::::::::::::::::::::::

           ------------------------------------------------- 
          |        vertical delta SCC IP calculation        |
           ------------------------------------------------- 
   1  -1135.0192118 -0.113502E+04  0.384E-02    0.86       0.0  T
   2  -1135.0180785  0.113334E-02  0.417E-02    0.83       1.0  T
   3  -1135.0217219 -0.364339E-02  0.224E-02    0.86       1.0  T
   4  -1135.0225680 -0.846085E-03  0.154E-02    0.85       1.0  T
   5  -1135.0226463 -0.783501E-04  0.917E-03    0.86       1.0  T
   6  -1135.0212432  0.140307E-02  0.171E-02    0.85       1.0  T
   7  -1135.0227532 -0.151000E-02  0.524E-03    0.85       1.0  T
   8  -1135.0228550 -0.101777E-03  0.123E-03    0.86       3.4  T
   9  -1135.0228586 -0.355408E-05  0.564E-04    0.85       7.5  T
  10  -1135.0228588 -0.264878E-06  0.323E-04    0.86      13.1  T
  11  -1135.0228590 -0.120521E-06  0.132E-04    0.86      32.2  T
  12  -1135.0228590 -0.174157E-07  0.504E-05    0.86      84.1  T
     SCC iter.                  ...        0 min, 39.033 sec
     gradient                   ...        0 min,  3.763 sec
------------------------------------------------------------------------
empirical IP shift (eV):    4.8455
delta SCC IP (eV):    5.6717
------------------------------------------------------------------------
           ------------------------------------------------- 
          |        vertical delta SCC EA calculation        |
           ------------------------------------------------- 
   1  -1135.7237044 -0.113572E+04  0.677E-02    0.09       0.0  T
   2  -1135.7280312 -0.432675E-02  0.639E-02    0.02       1.0  T
   3  -1135.7342338 -0.620257E-02  0.354E-02    0.07       1.0  T
   4  -1135.7350948 -0.861068E-03  0.278E-02    0.04       1.0  T
   5  -1135.7351823 -0.874483E-04  0.184E-02    0.06       1.0  T
   6  -1135.7316521  0.353016E-02  0.275E-02    0.08       1.0  T
   7  -1135.7359880 -0.433587E-02  0.664E-03    0.05       1.0  T
   8  -1135.7361181 -0.130160E-03  0.222E-03    0.05       1.9  T
   9  -1135.7361220 -0.387920E-05  0.160E-03    0.05       2.7  T
  10  -1135.7361255 -0.348982E-05  0.430E-04    0.05       9.9  T
  11  -1135.7361257 -0.197543E-06  0.235E-04    0.05      18.1  T
  12  -1135.7361258 -0.550810E-07  0.931E-05    0.05      45.5  T
  13  -1135.7361258 -0.772684E-08  0.365E-05    0.05     116.1  T
     SCC iter.                  ...        0 min, 42.334 sec
     gradient                   ...        0 min,  3.787 sec
------------------------------------------------------------------------
empirical EA shift (eV):    4.8455
delta SCC EA (eV):    4.0463
------------------------------------------------------------------------
           -------------------------------------------------
          |                Property Printout                |
           -------------------------------------------------

    * Orbital Energies and Occupations

         #    Occupation            Energy/Eh            Energy/eV
      -------------------------------------------------------------
         1        2.0000           -1.0336018             -28.1257
       ...           ...                  ...                  ...
       882        2.0000           -0.3752822             -10.2119
       883        2.0000           -0.3751683             -10.2088
       884        2.0000           -0.3751588             -10.2086
       885        2.0000           -0.3717186             -10.1150
       886        2.0000           -0.3705752             -10.0839
       887        2.0000           -0.3675778             -10.0023
       888        2.0000           -0.3640013              -9.9050
       889        2.0000           -0.3600796              -9.7983
       890        2.0000           -0.3557789              -9.6812
       891        2.0000           -0.3513477              -9.5607
       892        2.0000           -0.3470681              -9.4442
       893        2.0000           -0.3436388              -9.3509
       894        0.7166           -0.3118928              -8.4870 (HOMO)
       895        0.2729           -0.3100806              -8.4377 (LUMO)
       896        0.0103           -0.3066734              -8.3450
       897        0.0002           -0.3027414              -8.2380
       898        0.0000           -0.2994199              -8.1476
       899        0.0000           -0.2980994              -8.1117
       900        0.0000           -0.2972024              -8.0873
       901                         -0.2948388              -8.0230
       902                         -0.2938951              -7.9973
       903                         -0.2933746              -7.9831
       904                         -0.2918534              -7.9417
       905                         -0.2916651              -7.9366
       ...                                ...                  ...
      2288                        566.2275788           15407.8367
      -------------------------------------------------------------
                  HL-Gap            0.0018122 Eh            0.0493 eV
             Fermi-level           -0.3194160 Eh           -8.6918 eV

  Mulliken/CM5 charges         n(s)   n(p)   n(d)
     1C    -0.01877 -0.05961   1.090  2.929  0.000
     2C     0.06384  0.12423   1.106  2.831  0.000
     3C    -0.03191 -0.07724   1.082  2.950  0.000
     4C    -0.03101 -0.07600   1.076  2.955  0.000
     5C     0.06450  0.12847   1.101  2.834  0.000
     6N    -0.15736 -0.51035   1.312  3.846  0.000
     7C     0.00985  0.01561   1.090  2.900  0.000
     8C     0.01471  0.00609   1.088  2.897  0.000
     9C    -0.01595 -0.06923   1.076  2.940  0.000
    10C    -0.01069 -0.06277   1.092  2.919  0.000
    11C     0.01708  0.01334   1.077  2.906  0.000
    12C     0.11300  0.23055   1.209  2.678  0.000
    13N    -0.26342 -0.38803   1.544  3.720  0.000
    14C    -0.01135 -0.06342   1.092  2.919  0.000
    15C    -0.01747 -0.07071   1.074  2.944  0.000
    16C     0.06077  0.12893   1.118  2.821  0.000
    17C    -0.03662 -0.08264   1.084  2.952  0.000
    18C    -0.03644 -0.08189   1.091  2.946  0.000
    19N    -0.28311 -0.46987   1.293  3.990  0.000
    20C     0.06535  0.13612   1.130  2.804  0.000
    21C     0.01960  0.02681   1.087  2.894  0.000
    22C     0.06761  0.13252   1.110  2.822  0.000
    23C    -0.03094 -0.07539   1.080  2.951  0.000
    24C    -0.03107 -0.07606   1.074  2.957  0.000
    25C     0.06363  0.12703   1.099  2.837  0.000
    26N    -0.15547 -0.50776   1.314  3.842  0.000
    27C     0.00949  0.01530   1.090  2.900  0.000
    28C     0.01465  0.00605   1.088  2.897  0.000
    29C    -0.01633 -0.06964   1.076  2.940  0.000
    30C    -0.01094 -0.06302   1.092  2.919  0.000
    31C     0.01702  0.01328   1.077  2.906  0.000
    32C     0.11297  0.23055   1.209  2.678  0.000
    33N    -0.26358 -0.38822   1.544  3.720  0.000
    34C    -0.01115 -0.06322   1.092  2.919  0.000
    35C    -0.01715 -0.07038   1.074  2.943  0.000
    36C     0.06229  0.13170   1.121  2.817  0.000
    37C    -0.03642 -0.08244   1.086  2.951  0.000
    38C    -0.03715 -0.08356   1.093  2.945  0.000
    39C     0.06085  0.12653   1.126  2.813  0.000
    40N    -0.28519 -0.47227   1.293  3.992  0.000
    41H     0.03351  0.09255   0.966  0.000  0.000
    42H     0.04431  0.10099   0.956  0.000  0.000
    43H     0.03477  0.09348   0.965  0.000  0.000
    44H     0.16572  0.37407   0.834  0.000  0.000
    45H     0.03379  0.09178   0.966  0.000  0.000
    46H     0.04475  0.10201   0.955  0.000  0.000
    47H     0.04407  0.10132   0.956  0.000  0.000
    48H     0.03361  0.09155   0.966  0.000  0.000
    49H     0.02528  0.08403   0.975  0.000  0.000
    50H     0.02783  0.08590   0.972  0.000  0.000
    51H     0.03859  0.09671   0.961  0.000  0.000
    52H     0.03525  0.09403   0.965  0.000  0.000
    53H     0.16439  0.37272   0.836  0.000  0.000
    54H     0.03328  0.09125   0.967  0.000  0.000
    55H     0.04426  0.10152   0.956  0.000  0.000
    56H     0.04440  0.10165   0.956  0.000  0.000
    57H     0.03397  0.09194   0.966  0.000  0.000
    58H     0.02514  0.08381   0.975  0.000  0.000
    59H     0.03423  0.09067   0.966  0.000  0.000
    60C    -0.01880 -0.05964   1.090  2.929  0.000
    61C     0.06380  0.12419   1.106  2.831  0.000
    62C    -0.03196 -0.07729   1.082  2.950  0.000
    63C    -0.03108 -0.07606   1.076  2.956  0.000
    64C     0.06443  0.12842   1.101  2.834  0.000
    65N    -0.15735 -0.51033   1.312  3.846  0.000
    66C     0.00991  0.01567   1.090  2.900  0.000
    67C     0.01478  0.00615   1.088  2.897  0.000
    68C    -0.01600 -0.06931   1.076  2.940  0.000
    69C    -0.01069 -0.06277   1.092  2.919  0.000
    70C     0.01706  0.01332   1.077  2.906  0.000
    71C     0.11299  0.23051   1.209  2.678  0.000
    72N    -0.26343 -0.38801   1.544  3.720  0.000
    73C    -0.01135 -0.06341   1.092  2.919  0.000
    74C    -0.01746 -0.07067   1.074  2.944  0.000
    75C     0.06072  0.12885   1.118  2.821  0.000
    76C    -0.03671 -0.08273   1.084  2.953  0.000
    77C    -0.03648 -0.08193   1.091  2.945  0.000
    78N    -0.28319 -0.46986   1.293  3.990  0.000
    79C     0.06543  0.13623   1.130  2.804  0.000
    80C     0.01948  0.02667   1.086  2.894  0.000
    81C     0.06767  0.13259   1.110  2.822  0.000
    82C    -0.03095 -0.07539   1.080  2.951  0.000
    83C    -0.03111 -0.07610   1.074  2.957  0.000
    84C     0.06363  0.12701   1.099  2.837  0.000
    85N    -0.15551 -0.50775   1.314  3.842  0.000
    86C     0.00953  0.01533   1.090  2.900  0.000
    87C     0.01468  0.00607   1.088  2.897  0.000
    88C    -0.01642 -0.06971   1.076  2.940  0.000
    89C    -0.01103 -0.06311   1.092  2.919  0.000
    90C     0.01699  0.01325   1.077  2.906  0.000
    91C     0.11295  0.23049   1.209  2.678  0.000
    92N    -0.26361 -0.38821   1.544  3.720  0.000
    93C    -0.01106 -0.06313   1.092  2.919  0.000
    94C    -0.01710 -0.07035   1.074  2.943  0.000
    95C     0.06227  0.13168   1.121  2.817  0.000
    96C    -0.03646 -0.08247   1.086  2.951  0.000
    97C    -0.03719 -0.08360   1.093  2.945  0.000
    98C     0.06080  0.12646   1.126  2.813  0.000
    99N    -0.28522 -0.47231   1.293  3.992  0.000
   100H     0.03343  0.09247   0.967  0.000  0.000
   101H     0.04424  0.10093   0.956  0.000  0.000
   102H     0.03473  0.09343   0.965  0.000  0.000
   103H     0.16573  0.37407   0.834  0.000  0.000
   104H     0.03379  0.09172   0.966  0.000  0.000
   105H     0.04479  0.10205   0.955  0.000  0.000
   106H     0.04398  0.10124   0.956  0.000  0.000
   107H     0.03364  0.09156   0.966  0.000  0.000
   108H     0.02513  0.08391   0.975  0.000  0.000
   109H     0.02757  0.08567   0.972  0.000  0.000
   110H     0.03832  0.09644   0.962  0.000  0.000
   111H     0.03512  0.09392   0.965  0.000  0.000
   112H     0.16442  0.37271   0.836  0.000  0.000
   113H     0.03319  0.09115   0.967  0.000  0.000
   114H     0.04408  0.10135   0.956  0.000  0.000
   115H     0.04459  0.10185   0.955  0.000  0.000
   116H     0.03415  0.09208   0.966  0.000  0.000
   117H     0.02511  0.08378   0.975  0.000  0.000
   118H     0.03416  0.09061   0.966  0.000  0.000
   119C    -0.01731 -0.01817   1.061  2.957  0.000
   120C    -0.01798 -0.01962   1.090  2.928  0.000
   121C    -0.01961 -0.02045   1.059  2.961  0.000
   122C    -0.01561 -0.01720   1.093  2.923  0.000
   123C    -0.01860 -0.01944   1.060  2.959  0.000
   124C    -0.01811 -0.01971   1.090  2.929  0.000
   125C    -0.01966 -0.02051   1.059  2.961  0.000
   126C    -0.01698 -0.01859   1.091  2.926  0.000
   127C    -0.01905 -0.01990   1.059  2.960  0.000
   128C    -0.01751 -0.01912   1.090  2.927  0.000
   129C    -0.01909 -0.01994   1.059  2.960  0.000
   130C    -0.01736 -0.01897   1.090  2.927  0.000
   131C    -0.01898 -0.01982   1.059  2.960  0.000
   132C    -0.01726 -0.01887   1.091  2.927  0.000
   133C    -0.01888 -0.01973   1.059  2.960  0.000
   134C    -0.01730 -0.01891   1.090  2.927  0.000
   135C    -0.01889 -0.01973   1.059  2.960  0.000
   136C    -0.01730 -0.01891   1.090  2.927  0.000
   137C    -0.01898 -0.01982   1.059  2.960  0.000
   138C    -0.01726 -0.01887   1.091  2.927  0.000
   139C    -0.01908 -0.01993   1.059  2.960  0.000
   140C    -0.01736 -0.01897   1.090  2.927  0.000
   141C    -0.01905 -0.01990   1.059  2.960  0.000
   142C    -0.01750 -0.01911   1.090  2.927  0.000
   143C    -0.01964 -0.02048   1.059  2.961  0.000
   144C    -0.01699 -0.01860   1.091  2.926  0.000
   145C    -0.01862 -0.01946   1.060  2.959  0.000
   146C    -0.01807 -0.01968   1.090  2.928  0.000
   147C    -0.01971 -0.02056   1.058  2.961  0.000
   148C    -0.01578 -0.01740   1.092  2.923  0.000
   149C    -0.01746 -0.01833   1.060  2.957  0.000
   150C    -0.01811 -0.01977   1.089  2.929  0.000
   151C     0.01663  0.02388   1.084  2.899  0.000
   152C     0.06697  0.13186   1.110  2.823  0.000
   153C    -0.03320 -0.07765   1.079  2.954  0.000
   154C    -0.03198 -0.07694   1.075  2.957  0.000
   155C     0.06191  0.12538   1.097  2.841  0.000
   156N    -0.15518 -0.50766   1.313  3.842  0.000
   157C     0.01207  0.01775   1.092  2.896  0.000
   158C     0.01527  0.00659   1.088  2.896  0.000
   159C    -0.01697 -0.07019   1.074  2.943  0.000
   160C    -0.01124 -0.06331   1.092  2.919  0.000
   161C     0.01710  0.01336   1.077  2.905  0.000
   162C     0.11301  0.23058   1.209  2.678  0.000
   163N    -0.26369 -0.38831   1.544  3.720  0.000
   164C    -0.01062 -0.06271   1.092  2.919  0.000
   165C    -0.01568 -0.06900   1.076  2.940  0.000
   166C     0.05948  0.12747   1.116  2.824  0.000
   167C    -0.03701 -0.08305   1.084  2.953  0.000
   168C    -0.03742 -0.08288   1.090  2.947  0.000
   169N    -0.28285 -0.46917   1.293  3.990  0.000
   170C     0.06527  0.13620   1.131  2.804  0.000
   171C     0.01830  0.02554   1.086  2.896  0.000
   172C     0.06722  0.13219   1.110  2.823  0.000
   173C    -0.03243 -0.07687   1.079  2.953  0.000
   174C    -0.03187 -0.07685   1.074  2.958  0.000
   175C     0.06211  0.12551   1.097  2.841  0.000
   176N    -0.15475 -0.50724   1.314  3.841  0.000
   177C     0.01171  0.01739   1.091  2.897  0.000
   178C     0.01520  0.00652   1.088  2.896  0.000
   179C    -0.01685 -0.07010   1.074  2.943  0.000
   180C    -0.01103 -0.06311   1.092  2.919  0.000
   181C     0.01708  0.01334   1.077  2.906  0.000
   182C     0.11300  0.23056   1.209  2.678  0.000
   183N    -0.26372 -0.38834   1.544  3.720  0.000
   184C    -0.01087 -0.06295   1.092  2.919  0.000
   185C    -0.01588 -0.06918   1.076  2.940  0.000
   186C     0.05972  0.12786   1.117  2.824  0.000
   187C    -0.03698 -0.08300   1.085  2.952  0.000
   188C    -0.03788 -0.08334   1.090  2.948  0.000
   189C     0.06485  0.13558   1.131  2.805  0.000
   190N    -0.28359 -0.46992   1.292  3.991  0.000
   191H     0.03641  0.09451   0.964  0.000  0.000
   192H     0.03357  0.09239   0.966  0.000  0.000
   193H     0.16430  0.37232   0.836  0.000  0.000
   194H     0.03373  0.09168   0.966  0.000  0.000
   195H     0.04382  0.10108   0.956  0.000  0.000
   196H     0.04452  0.10179   0.955  0.000  0.000
   197H     0.03369  0.09163   0.966  0.000  0.000
   198H     0.02426  0.08304   0.976  0.000  0.000
   199H     0.02681  0.08484   0.973  0.000  0.000
   200H     0.03747  0.09557   0.963  0.000  0.000
   201H     0.03400  0.09284   0.966  0.000  0.000
   202H     0.16419  0.37220   0.836  0.000  0.000
   203H     0.03404  0.09197   0.966  0.000  0.000
   204H     0.04429  0.10155   0.956  0.000  0.000
   205H     0.04403  0.10129   0.956  0.000  0.000
   206H     0.03330  0.09128   0.967  0.000  0.000
   207H     0.02398  0.08275   0.976  0.000  0.000
   208H     0.02599  0.08400   0.974  0.000  0.000
   209C     0.01711  0.02434   1.085  2.898  0.000
   210C     0.06703  0.13199   1.110  2.823  0.000
   211C    -0.03314 -0.07758   1.079  2.954  0.000
   212C    -0.03209 -0.07705   1.074  2.958  0.000
   213C     0.06171  0.12513   1.097  2.841  0.000
   214N    -0.15494 -0.50742   1.313  3.841  0.000
   215C     0.01220  0.01787   1.092  2.896  0.000
   216C     0.01532  0.00664   1.089  2.896  0.000
   217C    -0.01686 -0.07011   1.074  2.943  0.000
   218C    -0.01113 -0.06320   1.092  2.919  0.000
   219C     0.01709  0.01334   1.077  2.906  0.000
   220C     0.11302  0.23059   1.209  2.678  0.000
   221N    -0.26371 -0.38834   1.544  3.720  0.000
   222C    -0.01071 -0.06279   1.092  2.919  0.000
   223C    -0.01576 -0.06907   1.076  2.940  0.000
   224C     0.05934  0.12732   1.116  2.824  0.000
   225C    -0.03707 -0.08309   1.084  2.953  0.000
   226C    -0.03765 -0.08310   1.090  2.947  0.000
   227N    -0.28306 -0.46936   1.293  3.990  0.000
   228C     0.06518  0.13610   1.131  2.804  0.000
   229C     0.01767  0.02490   1.085  2.897  0.000
   230C     0.06715  0.13213   1.110  2.823  0.000
   231C    -0.03279 -0.07723   1.079  2.954  0.000
   232C    -0.03197 -0.07693   1.074  2.958  0.000
   233C     0.06181  0.12522   1.097  2.841  0.000
   234N    -0.15485 -0.50734   1.314  3.841  0.000
   235C     0.01214  0.01781   1.092  2.896  0.000
   236C     0.01532  0.00663   1.089  2.896  0.000
   237C    -0.01682 -0.07006   1.074  2.943  0.000
   238C    -0.01105 -0.06313   1.092  2.919  0.000
   239C     0.01709  0.01335   1.077  2.906  0.000
   240C     0.11302  0.23057   1.209  2.678  0.000
   241N    -0.26370 -0.38831   1.544  3.720  0.000
   242C    -0.01078 -0.06286   1.092  2.919  0.000
   243C    -0.01582 -0.06913   1.076  2.940  0.000
   244C     0.05932  0.12732   1.116  2.824  0.000
   245C    -0.03715 -0.08317   1.084  2.953  0.000
   246C    -0.03790 -0.08335   1.090  2.948  0.000
   247C     0.06507  0.13595   1.131  2.804  0.000
   248N    -0.28323 -0.46952   1.293  3.991  0.000
   249H     0.03663  0.09472   0.963  0.000  0.000
   250H     0.03353  0.09236   0.966  0.000  0.000
   251H     0.16421  0.37219   0.836  0.000  0.000
   252H     0.03384  0.09177   0.966  0.000  0.000
   253H     0.04395  0.10121   0.956  0.000  0.000
   254H     0.04426  0.10152   0.956  0.000  0.000
   255H     0.03350  0.09144   0.967  0.000  0.000
   256H     0.02404  0.08283   0.976  0.000  0.000
   257H     0.02642  0.08446   0.974  0.000  0.000
   258H     0.03707  0.09517   0.963  0.000  0.000
   259H     0.03377  0.09259   0.966  0.000  0.000
   260H     0.16419  0.37218   0.836  0.000  0.000
   261H     0.03397  0.09189   0.966  0.000  0.000
   262H     0.04412  0.10138   0.956  0.000  0.000
   263H     0.04410  0.10136   0.956  0.000  0.000
   264H     0.03338  0.09132   0.967  0.000  0.000
   265H     0.02384  0.08263   0.976  0.000  0.000
   266H     0.02601  0.08407   0.974  0.000  0.000
   267C     0.01776  0.02499   1.085  2.897  0.000
   268C     0.06715  0.13212   1.110  2.823  0.000
   269C    -0.03275 -0.07719   1.079  2.954  0.000
   270C    -0.03192 -0.07688   1.074  2.958  0.000
   271C     0.06194  0.12536   1.097  2.841  0.000
   272N    -0.15480 -0.50729   1.313  3.841  0.000
   273C     0.01221  0.01789   1.092  2.896  0.000
   274C     0.01528  0.00660   1.088  2.896  0.000
   275C    -0.01685 -0.07009   1.074  2.943  0.000
   276C    -0.01106 -0.06314   1.092  2.919  0.000
   277C     0.01715  0.01340   1.077  2.905  0.000
   278C     0.11305  0.23061   1.209  2.678  0.000
   279N    -0.26358 -0.38820   1.544  3.720  0.000
   280C    -0.01071 -0.06279   1.092  2.919  0.000
   281C    -0.01578 -0.06909   1.076  2.940  0.000
   282C     0.05950  0.12748   1.116  2.824  0.000
   283C    -0.03698 -0.08301   1.084  2.953  0.000
   284C    -0.03758 -0.08304   1.090  2.947  0.000
   285N    -0.28302 -0.46932   1.293  3.990  0.000
   286C     0.06521  0.13612   1.131  2.804  0.000
   287C     0.01774  0.02497   1.085  2.897  0.000
   288C     0.06720  0.13218   1.110  2.823  0.000
   289C    -0.03268 -0.07713   1.079  2.954  0.000
   290C    -0.03185 -0.07681   1.074  2.957  0.000
   291C     0.06195  0.12537   1.097  2.841  0.000
   292N    -0.15483 -0.50731   1.313  3.841  0.000
   293C     0.01224  0.01791   1.092  2.896  0.000
   294C     0.01529  0.00660   1.088  2.896  0.000
   295C    -0.01683 -0.07008   1.074  2.943  0.000
   296C    -0.01104 -0.06311   1.092  2.919  0.000
   297C     0.01715  0.01341   1.077  2.905  0.000
   298C     0.11305  0.23060   1.209  2.678  0.000
   299N    -0.26358 -0.38819   1.544  3.720  0.000
   300C    -0.01073 -0.06281   1.092  2.919  0.000
   301C    -0.01579 -0.06910   1.076  2.940  0.000
   302C     0.05947  0.12746   1.116  2.824  0.000
   303C    -0.03704 -0.08306   1.084  2.953  0.000
   304C    -0.03765 -0.08310   1.090  2.947  0.000
   305C     0.06516  0.13606   1.131  2.804  0.000
   306N    -0.28299 -0.46930   1.293  3.990  0.000
   307H     0.03702  0.09512   0.963  0.000  0.000
   308H     0.03379  0.09262   0.966  0.000  0.000
   309H     0.16428  0.37227   0.836  0.000  0.000
   310H     0.03394  0.09187   0.966  0.000  0.000
   311H     0.04409  0.10135   0.956  0.000  0.000
   312H     0.04428  0.10154   0.956  0.000  0.000
   313H     0.03350  0.09145   0.966  0.000  0.000
   314H     0.02413  0.08291   0.976  0.000  0.000
   315H     0.02645  0.08450   0.974  0.000  0.000
   316H     0.03712  0.09522   0.963  0.000  0.000
   317H     0.03388  0.09270   0.966  0.000  0.000
   318H     0.16428  0.37227   0.836  0.000  0.000
   319H     0.03399  0.09191   0.966  0.000  0.000
   320H     0.04415  0.10141   0.956  0.000  0.000
   321H     0.04423  0.10149   0.956  0.000  0.000
   322H     0.03347  0.09142   0.967  0.000  0.000
   323H     0.02406  0.08285   0.976  0.000  0.000
   324H     0.02635  0.08439   0.974  0.000  0.000
   325C     0.01791  0.02514   1.085  2.897  0.000
   326C     0.06722  0.13219   1.110  2.823  0.000
   327C    -0.03261 -0.07705   1.079  2.954  0.000
   328C    -0.03181 -0.07677   1.074  2.957  0.000
   329C     0.06204  0.12546   1.097  2.841  0.000
   330N    -0.15478 -0.50726   1.313  3.841  0.000
   331C     0.01226  0.01793   1.092  2.896  0.000
   332C     0.01526  0.00658   1.088  2.896  0.000
   333C    -0.01684 -0.07008   1.074  2.943  0.000
   334C    -0.01103 -0.06310   1.092  2.919  0.000
   335C     0.01718  0.01344   1.077  2.905  0.000
   336C     0.11307  0.23063   1.209  2.678  0.000
   337N    -0.26349 -0.38811   1.544  3.720  0.000
   338C    -0.01071 -0.06279   1.092  2.919  0.000
   339C    -0.01579 -0.06910   1.076  2.940  0.000
   340C     0.05957  0.12756   1.116  2.824  0.000
   341C    -0.03696 -0.08298   1.084  2.952  0.000
   342C    -0.03754 -0.08299   1.090  2.947  0.000
   343N    -0.28294 -0.46925   1.293  3.990  0.000
   344C     0.06522  0.13613   1.131  2.804  0.000
   345C     0.01791  0.02514   1.085  2.897  0.000
   346C     0.06722  0.13219   1.110  2.823  0.000
   347C    -0.03261 -0.07705   1.079  2.954  0.000
   348C    -0.03181 -0.07677   1.074  2.957  0.000
   349C     0.06204  0.12546   1.097  2.841  0.000
   350N    -0.15477 -0.50726   1.313  3.841  0.000
   351C     0.01226  0.01793   1.092  2.896  0.000
   352C     0.01526  0.00658   1.088  2.896  0.000
   353C    -0.01684 -0.07008   1.074  2.943  0.000
   354C    -0.01104 -0.06311   1.092  2.919  0.000
   355C     0.01718  0.01344   1.077  2.905  0.000
   356C     0.11307  0.23063   1.209  2.678  0.000
   357N    -0.26349 -0.38811   1.544  3.720  0.000
   358C    -0.01070 -0.06278   1.092  2.919  0.000
   359C    -0.01579 -0.06910   1.076  2.940  0.000
   360C     0.05957  0.12756   1.116  2.824  0.000
   361C    -0.03696 -0.08298   1.084  2.952  0.000
   362C    -0.03754 -0.08299   1.090  2.947  0.000
   363C     0.06522  0.13613   1.131  2.804  0.000
   364N    -0.28294 -0.46925   1.293  3.990  0.000
   365H     0.03718  0.09528   0.963  0.000  0.000
   366H     0.03393  0.09275   0.966  0.000  0.000
   367H     0.16432  0.37232   0.836  0.000  0.000
   368H     0.03400  0.09192   0.966  0.000  0.000
   369H     0.04417  0.10143   0.956  0.000  0.000
   370H     0.04430  0.10157   0.956  0.000  0.000
   371H     0.03352  0.09146   0.966  0.000  0.000
   372H     0.02419  0.08297   0.976  0.000  0.000
   373H     0.02650  0.08455   0.973  0.000  0.000
   374H     0.03718  0.09528   0.963  0.000  0.000
   375H     0.03393  0.09276   0.966  0.000  0.000
   376H     0.16432  0.37231   0.836  0.000  0.000
   377H     0.03399  0.09192   0.966  0.000  0.000
   378H     0.04417  0.10143   0.956  0.000  0.000
   379H     0.04430  0.10156   0.956  0.000  0.000
   380H     0.03352  0.09146   0.966  0.000  0.000
   381H     0.02418  0.08297   0.976  0.000  0.000
   382H     0.02650  0.08455   0.973  0.000  0.000
   383C     0.01774  0.02497   1.085  2.897  0.000
   384C     0.06721  0.13218   1.110  2.823  0.000
   385C    -0.03268 -0.07712   1.079  2.954  0.000
   386C    -0.03184 -0.07681   1.074  2.957  0.000
   387C     0.06195  0.12537   1.097  2.841  0.000
   388N    -0.15482 -0.50731   1.313  3.841  0.000
   389C     0.01225  0.01792   1.092  2.896  0.000
   390C     0.01528  0.00660   1.088  2.896  0.000
   391C    -0.01683 -0.07008   1.074  2.943  0.000
   392C    -0.01104 -0.06312   1.092  2.919  0.000
   393C     0.01715  0.01341   1.077  2.905  0.000
   394C     0.11305  0.23060   1.209  2.678  0.000
   395N    -0.26357 -0.38818   1.544  3.720  0.000
   396C    -0.01072 -0.06280   1.092  2.919  0.000
   397C    -0.01579 -0.06910   1.076  2.940  0.000
   398C     0.05947  0.12746   1.116  2.824  0.000
   399C    -0.03703 -0.08306   1.084  2.953  0.000
   400C    -0.03764 -0.08310   1.090  2.947  0.000
   401N    -0.28299 -0.46930   1.293  3.990  0.000
   402C     0.06516  0.13606   1.131  2.804  0.000
   403C     0.01776  0.02499   1.085  2.897  0.000
   404C     0.06715  0.13212   1.110  2.823  0.000
   405C    -0.03275 -0.07719   1.079  2.954  0.000
   406C    -0.03191 -0.07688   1.074  2.958  0.000
   407C     0.06194  0.12536   1.097  2.841  0.000
   408N    -0.15480 -0.50729   1.313  3.841  0.000
   409C     0.01222  0.01789   1.092  2.896  0.000
   410C     0.01528  0.00660   1.088  2.896  0.000
   411C    -0.01684 -0.07009   1.074  2.943  0.000
   412C    -0.01105 -0.06313   1.092  2.919  0.000
   413C     0.01715  0.01340   1.077  2.905  0.000
   414C     0.11305  0.23062   1.209  2.678  0.000
   415N    -0.26357 -0.38820   1.544  3.720  0.000
   416C    -0.01072 -0.06280   1.092  2.919  0.000
   417C    -0.01578 -0.06909   1.076  2.940  0.000
   418C     0.05950  0.12748   1.116  2.824  0.000
   419C    -0.03698 -0.08301   1.084  2.953  0.000
   420C    -0.03758 -0.08304   1.090  2.947  0.000
   421C     0.06521  0.13613   1.131  2.804  0.000
   422N    -0.28302 -0.46933   1.293  3.990  0.000
   423H     0.03713  0.09523   0.963  0.000  0.000
   424H     0.03388  0.09270   0.966  0.000  0.000
   425H     0.16428  0.37227   0.836  0.000  0.000
   426H     0.03399  0.09191   0.966  0.000  0.000
   427H     0.04414  0.10141   0.956  0.000  0.000
   428H     0.04424  0.10150   0.956  0.000  0.000
   429H     0.03348  0.09142   0.967  0.000  0.000
   430H     0.02407  0.08285   0.976  0.000  0.000
   431H     0.02636  0.08441   0.974  0.000  0.000
   432H     0.03703  0.09513   0.963  0.000  0.000
   433H     0.03380  0.09262   0.966  0.000  0.000
   434H     0.16428  0.37227   0.836  0.000  0.000
   435H     0.03395  0.09188   0.966  0.000  0.000
   436H     0.04411  0.10137   0.956  0.000  0.000
   437H     0.04427  0.10153   0.956  0.000  0.000
   438H     0.03349  0.09144   0.967  0.000  0.000
   439H     0.02413  0.08292   0.976  0.000  0.000
   440H     0.02646  0.08450   0.974  0.000  0.000
   441C     0.01766  0.02490   1.085  2.897  0.000
   442C     0.06715  0.13212   1.110  2.823  0.000
   443C    -0.03279 -0.07723   1.079  2.954  0.000
   444C    -0.03197 -0.07693   1.074  2.958  0.000
   445C     0.06182  0.12523   1.097  2.841  0.000
   446N    -0.15485 -0.50733   1.314  3.841  0.000
   447C     0.01215  0.01782   1.092  2.896  0.000
   448C     0.01531  0.00663   1.089  2.896  0.000
   449C    -0.01683 -0.07007   1.074  2.943  0.000
   450C    -0.01106 -0.06313   1.092  2.919  0.000
   451C     0.01709  0.01334   1.077  2.906  0.000
   452C     0.11302  0.23058   1.209  2.678  0.000
   453N    -0.26370 -0.38832   1.544  3.720  0.000
   454C    -0.01077 -0.06285   1.092  2.919  0.000
   455C    -0.01582 -0.06913   1.076  2.940  0.000
   456C     0.05932  0.12733   1.116  2.824  0.000
   457C    -0.03714 -0.08317   1.084  2.953  0.000
   458C    -0.03789 -0.08334   1.090  2.948  0.000
   459N    -0.28322 -0.46951   1.293  3.991  0.000
   460C     0.06507  0.13596   1.131  2.804  0.000
   461C     0.01713  0.02436   1.085  2.898  0.000
   462C     0.06704  0.13200   1.110  2.823  0.000
   463C    -0.03311 -0.07755   1.079  2.954  0.000
   464C    -0.03208 -0.07705   1.074  2.958  0.000
   465C     0.06172  0.12514   1.097  2.841  0.000
   466N    -0.15493 -0.50741   1.313  3.841  0.000
   467C     0.01220  0.01788   1.092  2.896  0.000
   468C     0.01531  0.00663   1.088  2.896  0.000
   469C    -0.01686 -0.07010   1.074  2.943  0.000
   470C    -0.01111 -0.06319   1.092  2.919  0.000
   471C     0.01709  0.01335   1.077  2.906  0.000
   472C     0.11302  0.23058   1.209  2.678  0.000
   473N    -0.26370 -0.38832   1.544  3.720  0.000
   474C    -0.01072 -0.06280   1.092  2.919  0.000
   475C    -0.01577 -0.06908   1.076  2.940  0.000
   476C     0.05934  0.12732   1.116  2.824  0.000
   477C    -0.03706 -0.08309   1.084  2.953  0.000
   478C    -0.03765 -0.08311   1.090  2.947  0.000
   479C     0.06518  0.13610   1.131  2.804  0.000
   480N    -0.28306 -0.46937   1.293  3.990  0.000
   481H     0.03707  0.09517   0.963  0.000  0.000
   482H     0.03377  0.09260   0.966  0.000  0.000
   483H     0.16420  0.37219   0.836  0.000  0.000
   484H     0.03397  0.09189   0.966  0.000  0.000
   485H     0.04410  0.10136   0.956  0.000  0.000
   486H     0.04412  0.10138   0.956  0.000  0.000
   487H     0.03339  0.09133   0.967  0.000  0.000
   488H     0.02385  0.08264   0.976  0.000  0.000
   489H     0.02602  0.08407   0.974  0.000  0.000
   490H     0.03664  0.09474   0.963  0.000  0.000
   491H     0.03354  0.09237   0.966  0.000  0.000
   492H     0.16421  0.37220   0.836  0.000  0.000
   493H     0.03387  0.09179   0.966  0.000  0.000
   494H     0.04399  0.10125   0.956  0.000  0.000
   495H     0.04424  0.10150   0.956  0.000  0.000
   496H     0.03348  0.09143   0.967  0.000  0.000
   497H     0.02404  0.08283   0.976  0.000  0.000
   498H     0.02642  0.08446   0.974  0.000  0.000
   499C     0.01828  0.02552   1.086  2.896  0.000
   500C     0.06720  0.13216   1.110  2.823  0.000
   501C    -0.03246 -0.07691   1.079  2.953  0.000
   502C    -0.03192 -0.07687   1.074  2.958  0.000
   503C     0.06208  0.12548   1.097  2.841  0.000
   504N    -0.15473 -0.50720   1.314  3.841  0.000
   505C     0.01181  0.01748   1.091  2.897  0.000
   506C     0.01527  0.00658   1.089  2.896  0.000
   507C    -0.01684 -0.07008   1.074  2.943  0.000
   508C    -0.01105 -0.06312   1.092  2.919  0.000
   509C     0.01705  0.01330   1.077  2.906  0.000
   510C     0.11299  0.23055   1.209  2.678  0.000
   511N    -0.26373 -0.38835   1.544  3.720  0.000
   512C    -0.01083 -0.06292   1.092  2.919  0.000
   513C    -0.01594 -0.06926   1.076  2.940  0.000
   514C     0.05969  0.12780   1.117  2.824  0.000
   515C    -0.03705 -0.08307   1.085  2.952  0.000
   516C    -0.03789 -0.08335   1.090  2.947  0.000
   517N    -0.28365 -0.46987   1.292  3.991  0.000
   518C     0.06495  0.13571   1.131  2.804  0.000
   519C     0.01657  0.02380   1.084  2.900  0.000
   520C     0.06706  0.13195   1.110  2.823  0.000
   521C    -0.03318 -0.07763   1.079  2.954  0.000
   522C    -0.03199 -0.07694   1.075  2.957  0.000
   523C     0.06192  0.12537   1.097  2.841  0.000
   524N    -0.15519 -0.50762   1.313  3.842  0.000
   525C     0.01215  0.01782   1.092  2.896  0.000
   526C     0.01531  0.00662   1.089  2.896  0.000
   527C    -0.01692 -0.07017   1.074  2.943  0.000
   528C    -0.01114 -0.06322   1.092  2.919  0.000
   529C     0.01707  0.01333   1.077  2.906  0.000
   530C     0.11301  0.23055   1.209  2.678  0.000
   531N    -0.26368 -0.38829   1.544  3.720  0.000
   532C    -0.01071 -0.06279   1.092  2.919  0.000
   533C    -0.01579 -0.06910   1.076  2.940  0.000
   534C     0.05947  0.12746   1.116  2.824  0.000
   535C    -0.03705 -0.08307   1.084  2.953  0.000
   536C    -0.03745 -0.08290   1.090  2.947  0.000
   537C     0.06524  0.13616   1.131  2.804  0.000
   538N    -0.28286 -0.46918   1.293  3.990  0.000
   539H     0.03744  0.09554   0.963  0.000  0.000
   540H     0.03401  0.09283   0.966  0.000  0.000
   541H     0.16423  0.37221   0.836  0.000  0.000
   542H     0.03406  0.09198   0.966  0.000  0.000
   543H     0.04421  0.10147   0.956  0.000  0.000
   544H     0.04407  0.10134   0.956  0.000  0.000
   545H     0.03334  0.09126   0.967  0.000  0.000
   546H     0.02388  0.08268   0.976  0.000  0.000
   547H     0.02577  0.08381   0.974  0.000  0.000
   548H     0.03619  0.09430   0.964  0.000  0.000
   549H     0.03349  0.09232   0.967  0.000  0.000
   550H     0.16435  0.37232   0.836  0.000  0.000
   551H     0.03390  0.09180   0.966  0.000  0.000
   552H     0.04401  0.10127   0.956  0.000  0.000
   553H     0.04436  0.10162   0.956  0.000  0.000
   554H     0.03363  0.09157   0.966  0.000  0.000
   555H     0.02425  0.08304   0.976  0.000  0.000
   556H     0.02676  0.08480   0.973  0.000  0.000

Wiberg/Mayer (AO) data.
largest (>0.10) Wiberg bond orders for each atom

 ---------------------------------------------------------------------------
     #   Z sym  total        # sym  WBO       # sym  WBO       # sym  WBO
 ---------------------------------------------------------------------------
     1   6 C    3.820 --    39 C    1.386     2 C    1.375    41 H    0.995
     2   6 C    3.925 --     1 C    1.375     3 C    1.238     6 N    1.229
     3   6 C    3.842 --     4 C    1.602     2 C    1.238    42 H    0.992
     4   6 C    3.824 --     3 C    1.602     5 C    1.248    43 H    0.998
     5   6 C    3.901 --     7 C    1.342     4 C    1.248     6 N    1.232
     6   7 N    3.249 --     5 C    1.232     2 C    1.229    44 H    0.960
     7   6 C    3.842 --    16 C    1.365     5 C    1.342     8 C    1.054
     8   6 C    3.867 --    15 C    1.415     9 C    1.414     7 C    1.054
     9   6 C    3.862 --    10 C    1.464     8 C    1.414    45 H    0.986
    10   6 C    3.905 --     9 C    1.464    11 C    1.383    46 H    0.984
    11   6 C    3.906 --    14 C    1.384    10 C    1.383    12 C    1.124
    12   6 C    4.103 --    13 N    2.964    11 C    1.124
    13   7 N    2.987 --    12 C    2.964
    14   6 C    3.905 --    15 C    1.463    11 C    1.384    47 H    0.985
    15   6 C    3.857 --    14 C    1.463     8 C    1.415    48 H    0.986
    16   6 C    3.926 --     7 C    1.365    19 N    1.360    17 C    1.160
    17   6 C    3.838 --    18 C    1.695    16 C    1.160    49 H    0.997
    18   6 C    3.852 --    17 C    1.695    20 C    1.164    50 H    0.999
    19   7 N    2.570 --    20 C    1.410    16 C    1.360
    20   6 C    3.945 --    19 N    1.410    21 C    1.293    18 C    1.164
    21   6 C    3.854 --    20 C    1.293    22 C    1.293   120 C    1.212
    22   6 C    3.906 --    21 C    1.293    23 C    1.264    26 N    1.249
    23   6 C    3.836 --    24 C    1.588    22 C    1.264    51 H    0.997
    24   6 C    3.818 --    23 C    1.588    25 C    1.255    52 H    0.997
    25   6 C    3.895 --    27 C    1.345    24 C    1.255    26 N    1.225
    26   7 N    3.260 --    22 C    1.249    25 C    1.225    53 H    0.959
    27   6 C    3.830 --    36 C    1.355    25 C    1.345    28 C    1.056
    28   6 C    3.867 --    29 C    1.414    35 C    1.413    27 C    1.056
    29   6 C    3.861 --    30 C    1.464    28 C    1.414    54 H    0.986
    30   6 C    3.905 --    29 C    1.464    31 C    1.383    55 H    0.985
    31   6 C    3.905 --    30 C    1.383    34 C    1.383    32 C    1.124
    32   6 C    4.103 --    33 N    2.964    31 C    1.124
    33   7 N    2.987 --    32 C    2.964
    34   6 C    3.905 --    35 C    1.464    31 C    1.383    56 H    0.984
    35   6 C    3.857 --    34 C    1.464    28 C    1.413    57 H    0.986
    36   6 C    3.946 --    40 N    1.384    27 C    1.355    37 C    1.152
    37   6 C    3.842 --    38 C    1.709    36 C    1.152    58 H    0.998
    38   6 C    3.864 --    37 C    1.709    39 C    1.146    59 H    0.992
    39   6 C    3.967 --     1 C    1.386    40 N    1.374    38 C    1.146
    40   7 N    2.558 --    36 C    1.384    39 C    1.374
    41   1 H    1.031 --     1 C    0.995
    42   1 H    1.014 --     3 C    0.992
    43   1 H    1.029 --     4 C    0.998
    44   1 H    1.080 --     6 N    0.960
    45   1 H    1.048 --     9 C    0.986
    46   1 H    1.036 --    10 C    0.984
    47   1 H    1.036 --    14 C    0.985
    48   1 H    1.045 --    15 C    0.986
    49   1 H    1.033 --    17 C    0.997
    50   1 H    1.028 --    18 C    0.999
    51   1 H    1.024 --    23 C    0.997
    52   1 H    1.029 --    24 C    0.997
    53   1 H    1.084 --    26 N    0.959
    54   1 H    1.048 --    29 C    0.986
    55   1 H    1.036 --    30 C    0.985
    56   1 H    1.035 --    34 C    0.984
    57   1 H    1.045 --    35 C    0.986
    58   1 H    1.033 --    37 C    0.998
    59   1 H    1.017 --    38 C    0.992
    60   6 C    3.820 --    98 C    1.386    61 C    1.375   100 H    0.995
    61   6 C    3.925 --    60 C    1.375    62 C    1.239    65 N    1.229
    62   6 C    3.842 --    63 C    1.602    61 C    1.239   101 H    0.992
    63   6 C    3.824 --    62 C    1.602    64 C    1.249   102 H    0.998
    64   6 C    3.900 --    66 C    1.342    63 C    1.249    65 N    1.232
    65   7 N    3.249 --    64 C    1.232    61 C    1.229   103 H    0.960
    66   6 C    3.842 --    75 C    1.366    64 C    1.342    67 C    1.053
    67   6 C    3.867 --    74 C    1.415    68 C    1.415    66 C    1.053
    68   6 C    3.862 --    69 C    1.463    67 C    1.415   104 H    0.986
    69   6 C    3.905 --    68 C    1.463    70 C    1.383   105 H    0.984
    70   6 C    3.906 --    73 C    1.384    69 C    1.383    71 C    1.124
    71   6 C    4.103 --    72 N    2.964    70 C    1.124
    72   7 N    2.987 --    71 C    2.964
    73   6 C    3.905 --    74 C    1.463    70 C    1.384   106 H    0.985
    74   6 C    3.857 --    73 C    1.463    67 C    1.415   107 H    0.986
    75   6 C    3.926 --    66 C    1.366    78 N    1.358    76 C    1.160
    76   6 C    3.838 --    77 C    1.695    75 C    1.160   108 H    0.997
    77   6 C    3.852 --    76 C    1.695    79 C    1.164   109 H    0.999
    78   7 N    2.570 --    79 C    1.411    75 C    1.358
    79   6 C    3.944 --    78 N    1.411    80 C    1.292    77 C    1.164
    80   6 C    3.853 --    81 C    1.293    79 C    1.292   150 C    1.213
    81   6 C    3.905 --    80 C    1.293    82 C    1.264    85 N    1.249
    82   6 C    3.836 --    83 C    1.588    81 C    1.264   110 H    0.997
    83   6 C    3.818 --    82 C    1.588    84 C    1.255   111 H    0.997
    84   6 C    3.895 --    86 C    1.346    83 C    1.255    85 N    1.224
    85   7 N    3.260 --    81 C    1.249    84 C    1.224   112 H    0.959
    86   6 C    3.829 --    95 C    1.354    84 C    1.346    87 C    1.055
    87   6 C    3.867 --    94 C    1.414    88 C    1.413    86 C    1.055
    88   6 C    3.861 --    89 C    1.464    87 C    1.413   113 H    0.986
    89   6 C    3.905 --    88 C    1.464    90 C    1.383   114 H    0.985
    90   6 C    3.905 --    93 C    1.384    89 C    1.383    91 C    1.124
    91   6 C    4.103 --    92 N    2.964    90 C    1.124
    92   7 N    2.987 --    91 C    2.964
    93   6 C    3.905 --    94 C    1.463    90 C    1.384   115 H    0.984
    94   6 C    3.857 --    93 C    1.463    87 C    1.414   116 H    0.986
    95   6 C    3.946 --    99 N    1.384    86 C    1.354    96 C    1.152
    96   6 C    3.842 --    97 C    1.709    95 C    1.152   117 H    0.998
    97   6 C    3.864 --    96 C    1.709    98 C    1.146   118 H    0.992
    98   6 C    3.967 --    60 C    1.386    99 N    1.374    97 C    1.146
    99   7 N    2.558 --    95 C    1.384    98 C    1.374
   100   1 H    1.031 --    60 C    0.995
   101   1 H    1.014 --    62 C    0.992
   102   1 H    1.029 --    63 C    0.998
   103   1 H    1.080 --    65 N    0.960
   104   1 H    1.048 --    68 C    0.986
   105   1 H    1.036 --    69 C    0.984
   106   1 H    1.036 --    73 C    0.985
   107   1 H    1.045 --    74 C    0.986
   108   1 H    1.033 --    76 C    0.997
   109   1 H    1.029 --    77 C    0.999
   110   1 H    1.024 --    82 C    0.997
   111   1 H    1.029 --    83 C    0.997
   112   1 H    1.084 --    85 N    0.959
   113   1 H    1.048 --    88 C    0.986
   114   1 H    1.036 --    89 C    0.985
   115   1 H    1.035 --    93 C    0.984
   116   1 H    1.045 --    94 C    0.986
   117   1 H    1.033 --    96 C    0.998
   118   1 H    1.017 --    97 C    0.992
   119   6 C    3.804 --   120 C    2.508   121 C    1.322
   120   6 C    3.799 --   119 C    2.508    21 C    1.212   122 C    0.181
   121   6 C    3.799 --   122 C    2.505   119 C    1.322
   122   6 C    3.802 --   121 C    2.505   151 C    1.216   120 C    0.181
   123   6 C    3.799 --   124 C    2.492   125 C    1.334
   124   6 C    3.801 --   123 C    2.492   171 C    1.227   126 C    0.181
   125   6 C    3.799 --   126 C    2.492   123 C    1.334
   126   6 C    3.801 --   125 C    2.492   209 C    1.227   124 C    0.181
   127   6 C    3.799 --   128 C    2.492   129 C    1.334
   128   6 C    3.801 --   127 C    2.492   229 C    1.227   130 C    0.181
   129   6 C    3.799 --   130 C    2.492   127 C    1.334
   130   6 C    3.801 --   129 C    2.492   267 C    1.227   128 C    0.181
   131   6 C    3.799 --   132 C    2.493   133 C    1.334
   132   6 C    3.802 --   131 C    2.493   287 C    1.227   134 C    0.181
   133   6 C    3.799 --   134 C    2.493   131 C    1.334
   134   6 C    3.802 --   133 C    2.493   325 C    1.226   132 C    0.181
   135   6 C    3.799 --   136 C    2.493   137 C    1.334
   136   6 C    3.802 --   135 C    2.493   345 C    1.226   138 C    0.181
   137   6 C    3.799 --   138 C    2.493   135 C    1.334
   138   6 C    3.802 --   137 C    2.493   383 C    1.226   136 C    0.181
   139   6 C    3.799 --   140 C    2.492   141 C    1.334
   140   6 C    3.801 --   139 C    2.492   403 C    1.227   142 C    0.181
   141   6 C    3.799 --   142 C    2.492   139 C    1.334
   142   6 C    3.801 --   141 C    2.492   441 C    1.227   140 C    0.181
   143   6 C    3.799 --   144 C    2.492   145 C    1.334
   144   6 C    3.801 --   143 C    2.492   461 C    1.227   146 C    0.181
   145   6 C    3.799 --   146 C    2.492   143 C    1.334
   146   6 C    3.801 --   145 C    2.492   499 C    1.227   144 C    0.181
   147   6 C    3.798 --   148 C    2.504   149 C    1.323
   148   6 C    3.802 --   147 C    2.504   519 C    1.216   150 C    0.181
   149   6 C    3.803 --   150 C    2.507   147 C    1.323
   150   6 C    3.799 --   149 C    2.507    80 C    1.213   148 C    0.181
   151   6 C    3.833 --   189 C    1.290   152 C    1.286   122 C    1.216
   152   6 C    3.907 --   151 C    1.286   153 C    1.269   156 N    1.251
   153   6 C    3.828 --   154 C    1.581   152 C    1.269   191 H    0.998
   154   6 C    3.818 --   153 C    1.581   155 C    1.262   192 H    0.998
   155   6 C    3.887 --   157 C    1.337   154 C    1.262   156 N    1.224
   156   7 N    3.250 --   152 C    1.251   155 C    1.224   193 H    0.961
   157   6 C    3.833 --   166 C    1.372   155 C    1.337   158 C    1.053
   158   6 C    3.867 --   165 C    1.415   159 C    1.415   157 C    1.053
   159   6 C    3.857 --   160 C    1.463   158 C    1.415   194 H    0.986
   160   6 C    3.905 --   159 C    1.463   161 C    1.384   195 H    0.985
   161   6 C    3.906 --   164 C    1.384   160 C    1.384   162 C    1.124
   162   6 C    4.103 --   163 N    2.964   161 C    1.124
   163   7 N    2.987 --   162 C    2.964
   164   6 C    3.905 --   165 C    1.463   161 C    1.384   196 H    0.985
   165   6 C    3.861 --   164 C    1.463   158 C    1.415   197 H    0.986
   166   6 C    3.924 --   157 C    1.372   169 N    1.353   167 C    1.161
   167   6 C    3.838 --   168 C    1.693   166 C    1.161   198 H    0.998
   168   6 C    3.849 --   167 C    1.693   170 C    1.166   199 H    0.999
   169   7 N    2.555 --   170 C    1.417   166 C    1.353
   170   6 C    3.944 --   169 N    1.417   171 C    1.285   168 C    1.166
   171   6 C    3.833 --   170 C    1.285   172 C    1.282   124 C    1.227
   172   6 C    3.905 --   171 C    1.282   173 C    1.270   176 N    1.252
   173   6 C    3.829 --   174 C    1.579   172 C    1.270   200 H    0.998
   174   6 C    3.816 --   173 C    1.579   175 C    1.263   201 H    0.998
   175   6 C    3.887 --   177 C    1.336   174 C    1.263   176 N    1.224
   176   7 N    3.252 --   172 C    1.252   175 C    1.224   202 H    0.961
   177   6 C    3.831 --   186 C    1.372   175 C    1.336   178 C    1.054
   178   6 C    3.867 --   179 C    1.415   185 C    1.414   177 C    1.054
   179   6 C    3.857 --   180 C    1.463   178 C    1.415   203 H    0.986
   180   6 C    3.905 --   179 C    1.463   181 C    1.384   204 H    0.984
   181   6 C    3.906 --   180 C    1.384   184 C    1.383   182 C    1.124
   182   6 C    4.103 --   183 N    2.964   181 C    1.124
   183   7 N    2.987 --   182 C    2.964
   184   6 C    3.905 --   185 C    1.463   181 C    1.383   205 H    0.985
   185   6 C    3.861 --   184 C    1.463   178 C    1.414   206 H    0.986
   186   6 C    3.926 --   177 C    1.372   190 N    1.355   187 C    1.160
   187   6 C    3.839 --   188 C    1.694   186 C    1.160   207 H    0.998
   188   6 C    3.850 --   187 C    1.694   189 C    1.165   208 H    0.999
   189   6 C    3.946 --   190 N    1.413   151 C    1.290   188 C    1.165
   190   7 N    2.551 --   189 C    1.413   186 C    1.355
   191   1 H    1.024 --   153 C    0.998
   192   1 H    1.029 --   154 C    0.998
   193   1 H    1.082 --   156 N    0.961
   194   1 H    1.045 --   159 C    0.986
   195   1 H    1.036 --   160 C    0.985
   196   1 H    1.036 --   164 C    0.985
   197   1 H    1.048 --   165 C    0.986
   198   1 H    1.033 --   167 C    0.998
   199   1 H    1.029 --   168 C    0.999
   200   1 H    1.024 --   173 C    0.998
   201   1 H    1.029 --   174 C    0.998
   202   1 H    1.082 --   176 N    0.961
   203   1 H    1.045 --   179 C    0.986
   204   1 H    1.035 --   180 C    0.984
   205   1 H    1.036 --   184 C    0.985
   206   1 H    1.048 --   185 C    0.986
   207   1 H    1.033 --   187 C    0.998
   208   1 H    1.029 --   188 C    0.999
   209   6 C    3.831 --   247 C    1.284   210 C    1.281   126 C    1.227
   210   6 C    3.905 --   209 C    1.281   211 C    1.271   214 N    1.252
   211   6 C    3.829 --   212 C    1.578   210 C    1.271   249 H    0.998
   212   6 C    3.817 --   211 C    1.578   213 C    1.263   250 H    0.998
   213   6 C    3.887 --   215 C    1.336   212 C    1.263   214 N    1.223
   214   7 N    3.251 --   210 C    1.252   213 C    1.223   251 H    0.961
   215   6 C    3.831 --   224 C    1.373   213 C    1.336   216 C    1.053
   216   6 C    3.867 --   217 C    1.415   223 C    1.415   215 C    1.053
   217   6 C    3.857 --   218 C    1.463   216 C    1.415   252 H    0.986
   218   6 C    3.905 --   217 C    1.463   219 C    1.384   253 H    0.985
   219   6 C    3.906 --   218 C    1.384   222 C    1.384   220 C    1.124
   220   6 C    4.103 --   221 N    2.964   219 C    1.124
   221   7 N    2.987 --   220 C    2.964
   222   6 C    3.905 --   223 C    1.463   219 C    1.384   254 H    0.985
   223   6 C    3.861 --   222 C    1.463   216 C    1.415   255 H    0.986
   224   6 C    3.924 --   215 C    1.373   227 N    1.352   225 C    1.161
   225   6 C    3.838 --   226 C    1.693   224 C    1.161   256 H    0.998
   226   6 C    3.849 --   225 C    1.693   228 C    1.166   257 H    0.999
   227   7 N    2.553 --   228 C    1.417   224 C    1.352
   228   6 C    3.944 --   227 N    1.417   229 C    1.284   226 C    1.166
   229   6 C    3.832 --   228 C    1.284   230 C    1.282   128 C    1.227
   230   6 C    3.905 --   229 C    1.282   231 C    1.271   234 N    1.252
   231   6 C    3.829 --   232 C    1.579   230 C    1.271   258 H    0.998
   232   6 C    3.817 --   231 C    1.579   233 C    1.263   259 H    0.998
   233   6 C    3.887 --   235 C    1.336   232 C    1.263   234 N    1.224
   234   7 N    3.251 --   230 C    1.252   233 C    1.224   260 H    0.961
   235   6 C    3.832 --   244 C    1.373   233 C    1.336   236 C    1.053
   236   6 C    3.867 --   237 C    1.415   243 C    1.415   235 C    1.053
   237   6 C    3.857 --   238 C    1.463   236 C    1.415   261 H    0.986
   238   6 C    3.905 --   237 C    1.463   239 C    1.384   262 H    0.985
   239   6 C    3.906 --   238 C    1.384   242 C    1.384   240 C    1.124
   240   6 C    4.103 --   241 N    2.964   239 C    1.124
   241   7 N    2.987 --   240 C    2.964
   242   6 C    3.905 --   243 C    1.463   239 C    1.384   263 H    0.985
   243   6 C    3.861 --   242 C    1.463   236 C    1.415   264 H    0.986
   244   6 C    3.924 --   235 C    1.373   248 N    1.352   245 C    1.161
   245   6 C    3.838 --   246 C    1.693   244 C    1.161   265 H    0.998
   246   6 C    3.849 --   245 C    1.693   247 C    1.166   266 H    0.999
   247   6 C    3.944 --   248 N    1.417   209 C    1.284   246 C    1.166
   248   7 N    2.552 --   247 C    1.417   244 C    1.352
   249   1 H    1.024 --   211 C    0.998
   250   1 H    1.029 --   212 C    0.998
   251   1 H    1.082 --   214 N    0.961
   252   1 H    1.045 --   217 C    0.986
   253   1 H    1.036 --   218 C    0.985
   254   1 H    1.036 --   222 C    0.985
   255   1 H    1.048 --   223 C    0.986
   256   1 H    1.033 --   225 C    0.998
   257   1 H    1.029 --   226 C    0.999
   258   1 H    1.024 --   231 C    0.998
   259   1 H    1.029 --   232 C    0.998
   260   1 H    1.082 --   234 N    0.961
   261   1 H    1.045 --   237 C    0.986
   262   1 H    1.036 --   238 C    0.985
   263   1 H    1.036 --   242 C    0.985
   264   1 H    1.048 --   243 C    0.986
   265   1 H    1.033 --   245 C    0.998
   266   1 H    1.029 --   246 C    0.999
   267   6 C    3.833 --   305 C    1.285   268 C    1.282   130 C    1.227
   268   6 C    3.905 --   267 C    1.282   269 C    1.271   272 N    1.252
   269   6 C    3.829 --   270 C    1.579   268 C    1.271   307 H    0.998
   270   6 C    3.817 --   269 C    1.579   271 C    1.263   308 H    0.998
   271   6 C    3.887 --   273 C    1.336   270 C    1.263   272 N    1.224
   272   7 N    3.251 --   268 C    1.252   271 C    1.224   309 H    0.961
   273   6 C    3.832 --   282 C    1.373   271 C    1.336   274 C    1.053
   274   6 C    3.867 --   275 C    1.415   281 C    1.415   273 C    1.053
   275   6 C    3.857 --   276 C    1.463   274 C    1.415   310 H    0.986
   276   6 C    3.905 --   275 C    1.463   277 C    1.384   311 H    0.985
   277   6 C    3.906 --   276 C    1.384   280 C    1.384   278 C    1.124
   278   6 C    4.103 --   279 N    2.964   277 C    1.124
   279   7 N    2.987 --   278 C    2.964
   280   6 C    3.905 --   281 C    1.463   277 C    1.384   312 H    0.985
   281   6 C    3.861 --   280 C    1.463   274 C    1.415   313 H    0.986
   282   6 C    3.925 --   273 C    1.373   285 N    1.353   283 C    1.161
   283   6 C    3.838 --   284 C    1.693   282 C    1.161   314 H    0.998
   284   6 C    3.850 --   283 C    1.693   286 C    1.166   315 H    0.999
   285   7 N    2.553 --   286 C    1.417   282 C    1.353
   286   6 C    3.944 --   285 N    1.417   287 C    1.285   284 C    1.166
   287   6 C    3.833 --   286 C    1.285   288 C    1.282   132 C    1.227
   288   6 C    3.905 --   287 C    1.282   289 C    1.270   292 N    1.252
   289   6 C    3.829 --   290 C    1.579   288 C    1.270   316 H    0.998
   290   6 C    3.817 --   289 C    1.579   291 C    1.263   317 H    0.998
   291   6 C    3.887 --   293 C    1.336   290 C    1.263   292 N    1.224
   292   7 N    3.251 --   288 C    1.252   291 C    1.224   318 H    0.961
   293   6 C    3.832 --   302 C    1.372   291 C    1.336   294 C    1.053
   294   6 C    3.867 --   295 C    1.415   301 C    1.415   293 C    1.053
   295   6 C    3.857 --   296 C    1.463   294 C    1.415   319 H    0.986
   296   6 C    3.905 --   295 C    1.463   297 C    1.384   320 H    0.985
   297   6 C    3.906 --   296 C    1.384   300 C    1.384   298 C    1.124
   298   6 C    4.103 --   299 N    2.964   297 C    1.124
   299   7 N    2.987 --   298 C    2.964
   300   6 C    3.905 --   301 C    1.463   297 C    1.384   321 H    0.985
   301   6 C    3.861 --   300 C    1.463   294 C    1.415   322 H    0.986
   302   6 C    3.924 --   293 C    1.372   306 N    1.353   303 C    1.161
   303   6 C    3.838 --   304 C    1.693   302 C    1.161   323 H    0.998
   304   6 C    3.849 --   303 C    1.693   305 C    1.166   324 H    0.999
   305   6 C    3.944 --   306 N    1.417   267 C    1.285   304 C    1.166
   306   7 N    2.553 --   305 C    1.417   302 C    1.353
   307   1 H    1.024 --   269 C    0.998
   308   1 H    1.029 --   270 C    0.998
   309   1 H    1.082 --   272 N    0.961
   310   1 H    1.045 --   275 C    0.986
   311   1 H    1.036 --   276 C    0.985
   312   1 H    1.036 --   280 C    0.985
   313   1 H    1.048 --   281 C    0.986
   314   1 H    1.033 --   283 C    0.998
   315   1 H    1.029 --   284 C    0.999
   316   1 H    1.024 --   289 C    0.998
   317   1 H    1.029 --   290 C    0.998
   318   1 H    1.082 --   292 N    0.961
   319   1 H    1.045 --   295 C    0.986
   320   1 H    1.036 --   296 C    0.985
   321   1 H    1.036 --   300 C    0.985
   322   1 H    1.048 --   301 C    0.986
   323   1 H    1.033 --   303 C    0.998
   324   1 H    1.029 --   304 C    0.999
   325   6 C    3.834 --   363 C    1.285   326 C    1.282   134 C    1.226
   326   6 C    3.905 --   325 C    1.282   327 C    1.270   330 N    1.252
   327   6 C    3.830 --   328 C    1.580   326 C    1.270   365 H    0.998
   328   6 C    3.817 --   327 C    1.580   329 C    1.263   366 H    0.998
   329   6 C    3.888 --   331 C    1.336   328 C    1.263   330 N    1.224
   330   7 N    3.251 --   326 C    1.252   329 C    1.224   367 H    0.961
   331   6 C    3.832 --   340 C    1.372   329 C    1.336   332 C    1.053
   332   6 C    3.867 --   333 C    1.415   339 C    1.415   331 C    1.053
   333   6 C    3.857 --   334 C    1.463   332 C    1.415   368 H    0.986
   334   6 C    3.905 --   333 C    1.463   335 C    1.384   369 H    0.985
   335   6 C    3.906 --   334 C    1.384   338 C    1.384   336 C    1.124
   336   6 C    4.103 --   337 N    2.964   335 C    1.124
   337   7 N    2.987 --   336 C    2.964
   338   6 C    3.905 --   339 C    1.463   335 C    1.384   370 H    0.985
   339   6 C    3.861 --   338 C    1.463   332 C    1.415   371 H    0.986
   340   6 C    3.925 --   331 C    1.372   343 N    1.353   341 C    1.161
   341   6 C    3.838 --   342 C    1.693   340 C    1.161   372 H    0.998
   342   6 C    3.850 --   341 C    1.693   344 C    1.166   373 H    0.999
   343   7 N    2.554 --   344 C    1.417   340 C    1.353
   344   6 C    3.944 --   343 N    1.417   345 C    1.285   342 C    1.166
   345   6 C    3.834 --   344 C    1.285   346 C    1.282   136 C    1.226
   346   6 C    3.905 --   345 C    1.282   347 C    1.270   350 N    1.252
   347   6 C    3.830 --   348 C    1.580   346 C    1.270   374 H    0.998
   348   6 C    3.817 --   347 C    1.580   349 C    1.263   375 H    0.998
   349   6 C    3.888 --   351 C    1.336   348 C    1.263   350 N    1.224
   350   7 N    3.251 --   346 C    1.252   349 C    1.224   376 H    0.961
   351   6 C    3.832 --   360 C    1.372   349 C    1.336   352 C    1.053
   352   6 C    3.867 --   353 C    1.415   359 C    1.415   351 C    1.053
   353   6 C    3.857 --   354 C    1.463   352 C    1.415   377 H    0.986
   354   6 C    3.905 --   353 C    1.463   355 C    1.384   378 H    0.985
   355   6 C    3.906 --   354 C    1.384   358 C    1.384   356 C    1.124
   356   6 C    4.103 --   357 N    2.964   355 C    1.124
   357   7 N    2.987 --   356 C    2.964
   358   6 C    3.905 --   359 C    1.463   355 C    1.384   379 H    0.985
   359   6 C    3.861 --   358 C    1.463   352 C    1.415   380 H    0.986
   360   6 C    3.925 --   351 C    1.372   364 N    1.353   361 C    1.161
   361   6 C    3.838 --   362 C    1.693   360 C    1.161   381 H    0.998
   362   6 C    3.850 --   361 C    1.693   363 C    1.166   382 H    0.999
   363   6 C    3.944 --   364 N    1.417   325 C    1.285   362 C    1.166
   364   7 N    2.554 --   363 C    1.417   360 C    1.353
   365   1 H    1.024 --   327 C    0.998
   366   1 H    1.029 --   328 C    0.998
   367   1 H    1.081 --   330 N    0.961
   368   1 H    1.045 --   333 C    0.986
   369   1 H    1.036 --   334 C    0.985
   370   1 H    1.036 --   338 C    0.985
   371   1 H    1.048 --   339 C    0.986
   372   1 H    1.033 --   341 C    0.998
   373   1 H    1.029 --   342 C    0.999
   374   1 H    1.024 --   347 C    0.998
   375   1 H    1.029 --   348 C    0.998
   376   1 H    1.081 --   350 N    0.961
   377   1 H    1.045 --   353 C    0.986
   378   1 H    1.036 --   354 C    0.985
   379   1 H    1.036 --   358 C    0.985
   380   1 H    1.048 --   359 C    0.986
   381   1 H    1.033 --   361 C    0.998
   382   1 H    1.029 --   362 C    0.999
   383   6 C    3.833 --   421 C    1.285   384 C    1.282   138 C    1.226
   384   6 C    3.905 --   383 C    1.282   385 C    1.270   388 N    1.252
   385   6 C    3.829 --   386 C    1.579   384 C    1.270   423 H    0.998
   386   6 C    3.817 --   385 C    1.579   387 C    1.263   424 H    0.998
   387   6 C    3.887 --   389 C    1.336   386 C    1.263   388 N    1.224
   388   7 N    3.251 --   384 C    1.252   387 C    1.224   425 H    0.961
   389   6 C    3.832 --   398 C    1.372   387 C    1.336   390 C    1.053
   390   6 C    3.867 --   391 C    1.415   397 C    1.415   389 C    1.053
   391   6 C    3.857 --   392 C    1.463   390 C    1.415   426 H    0.986
   392   6 C    3.905 --   391 C    1.463   393 C    1.384   427 H    0.985
   393   6 C    3.906 --   392 C    1.384   396 C    1.384   394 C    1.124
   394   6 C    4.103 --   395 N    2.964   393 C    1.124
   395   7 N    2.987 --   394 C    2.964
   396   6 C    3.905 --   397 C    1.463   393 C    1.384   428 H    0.985
   397   6 C    3.861 --   396 C    1.463   390 C    1.415   429 H    0.986
   398   6 C    3.924 --   389 C    1.372   401 N    1.353   399 C    1.161
   399   6 C    3.838 --   400 C    1.693   398 C    1.161   430 H    0.998
   400   6 C    3.849 --   399 C    1.693   402 C    1.166   431 H    0.999
   401   7 N    2.553 --   402 C    1.417   398 C    1.353
   402   6 C    3.944 --   401 N    1.417   403 C    1.285   400 C    1.166
   403   6 C    3.833 --   402 C    1.285   404 C    1.282   140 C    1.227
   404   6 C    3.905 --   403 C    1.282   405 C    1.270   408 N    1.252
   405   6 C    3.829 --   406 C    1.579   404 C    1.270   432 H    0.998
   406   6 C    3.817 --   405 C    1.579   407 C    1.263   433 H    0.998
   407   6 C    3.887 --   409 C    1.336   406 C    1.263   408 N    1.224
   408   7 N    3.251 --   404 C    1.252   407 C    1.224   434 H    0.961
   409   6 C    3.832 --   418 C    1.373   407 C    1.336   410 C    1.053
   410   6 C    3.867 --   411 C    1.415   417 C    1.415   409 C    1.053
   411   6 C    3.857 --   412 C    1.463   410 C    1.415   435 H    0.986
   412   6 C    3.905 --   411 C    1.463   413 C    1.384   436 H    0.985
   413   6 C    3.906 --   412 C    1.384   416 C    1.384   414 C    1.124
   414   6 C    4.103 --   415 N    2.964   413 C    1.124
   415   7 N    2.987 --   414 C    2.964
   416   6 C    3.905 --   417 C    1.463   413 C    1.384   437 H    0.985
   417   6 C    3.861 --   416 C    1.463   410 C    1.415   438 H    0.986
   418   6 C    3.925 --   409 C    1.373   422 N    1.353   419 C    1.161
   419   6 C    3.838 --   420 C    1.693   418 C    1.161   439 H    0.998
   420   6 C    3.850 --   419 C    1.693   421 C    1.166   440 H    0.999
   421   6 C    3.944 --   422 N    1.417   383 C    1.285   420 C    1.166
   422   7 N    2.553 --   421 C    1.417   418 C    1.353
   423   1 H    1.024 --   385 C    0.998
   424   1 H    1.029 --   386 C    0.998
   425   1 H    1.082 --   388 N    0.961
   426   1 H    1.045 --   391 C    0.986
   427   1 H    1.036 --   392 C    0.985
   428   1 H    1.036 --   396 C    0.985
   429   1 H    1.048 --   397 C    0.986
   430   1 H    1.033 --   399 C    0.998
   431   1 H    1.029 --   400 C    0.999
   432   1 H    1.024 --   405 C    0.998
   433   1 H    1.029 --   406 C    0.998
   434   1 H    1.082 --   408 N    0.961
   435   1 H    1.045 --   411 C    0.986
   436   1 H    1.036 --   412 C    0.985
   437   1 H    1.036 --   416 C    0.985
   438   1 H    1.048 --   417 C    0.986
   439   1 H    1.033 --   419 C    0.998
   440   1 H    1.029 --   420 C    0.999
   441   6 C    3.832 --   479 C    1.284   442 C    1.282   142 C    1.227
   442   6 C    3.905 --   441 C    1.282   443 C    1.271   446 N    1.252
   443   6 C    3.829 --   444 C    1.579   442 C    1.271   481 H    0.998
   444   6 C    3.817 --   443 C    1.579   445 C    1.263   482 H    0.998
   445   6 C    3.887 --   447 C    1.336   444 C    1.263   446 N    1.224
   446   7 N    3.251 --   442 C    1.252   445 C    1.224   483 H    0.961
   447   6 C    3.832 --   456 C    1.373   445 C    1.336   448 C    1.053
   448   6 C    3.867 --   449 C    1.415   455 C    1.415   447 C    1.053
   449   6 C    3.857 --   450 C    1.463   448 C    1.415   484 H    0.986
   450   6 C    3.905 --   449 C    1.463   451 C    1.384   485 H    0.985
   451   6 C    3.906 --   450 C    1.384   454 C    1.384   452 C    1.124
   452   6 C    4.103 --   453 N    2.964   451 C    1.124
   453   7 N    2.987 --   452 C    2.964
   454   6 C    3.905 --   455 C    1.463   451 C    1.384   486 H    0.985
   455   6 C    3.861 --   454 C    1.463   448 C    1.415   487 H    0.986
   456   6 C    3.924 --   447 C    1.373   459 N    1.352   457 C    1.161
   457   6 C    3.838 --   458 C    1.693   456 C    1.161   488 H    0.998
   458   6 C    3.849 --   457 C    1.693   460 C    1.166   489 H    0.999
   459   7 N    2.552 --   460 C    1.417   456 C    1.352
   460   6 C    3.944 --   459 N    1.417   461 C    1.284   458 C    1.166
   461   6 C    3.831 --   460 C    1.284   462 C    1.281   144 C    1.227
   462   6 C    3.905 --   461 C    1.281   463 C    1.271   466 N    1.252
   463   6 C    3.829 --   464 C    1.579   462 C    1.271   490 H    0.998
   464   6 C    3.817 --   463 C    1.579   465 C    1.263   491 H    0.998
   465   6 C    3.887 --   467 C    1.336   464 C    1.263   466 N    1.223
   466   7 N    3.251 --   462 C    1.252   465 C    1.223   492 H    0.961
   467   6 C    3.831 --   476 C    1.373   465 C    1.336   468 C    1.053
   468   6 C    3.867 --   469 C    1.415   475 C    1.415   467 C    1.053
   469   6 C    3.857 --   470 C    1.463   468 C    1.415   493 H    0.986
   470   6 C    3.905 --   469 C    1.463   471 C    1.384   494 H    0.985
   471   6 C    3.906 --   470 C    1.384   474 C    1.384   472 C    1.124
   472   6 C    4.103 --   473 N    2.964   471 C    1.124
   473   7 N    2.987 --   472 C    2.964
   474   6 C    3.905 --   475 C    1.463   471 C    1.384   495 H    0.985
   475   6 C    3.861 --   474 C    1.463   468 C    1.415   496 H    0.986
   476   6 C    3.924 --   467 C    1.373   480 N    1.352   477 C    1.161
   477   6 C    3.838 --   478 C    1.693   476 C    1.161   497 H    0.998
   478   6 C    3.849 --   477 C    1.693   479 C    1.166   498 H    0.999
   479   6 C    3.944 --   480 N    1.417   441 C    1.284   478 C    1.166
   480   7 N    2.553 --   479 C    1.417   476 C    1.352
   481   1 H    1.024 --   443 C    0.998
   482   1 H    1.029 --   444 C    0.998
   483   1 H    1.082 --   446 N    0.961
   484   1 H    1.045 --   449 C    0.986
   485   1 H    1.036 --   450 C    0.985
   486   1 H    1.036 --   454 C    0.985
   487   1 H    1.048 --   455 C    0.986
   488   1 H    1.033 --   457 C    0.998
   489   1 H    1.029 --   458 C    0.999
   490   1 H    1.024 --   463 C    0.998
   491   1 H    1.029 --   464 C    0.998
   492   1 H    1.082 --   466 N    0.961
   493   1 H    1.045 --   469 C    0.986
   494   1 H    1.036 --   470 C    0.985
   495   1 H    1.036 --   474 C    0.985
   496   1 H    1.048 --   475 C    0.986
   497   1 H    1.033 --   477 C    0.998
   498   1 H    1.029 --   478 C    0.999
   499   6 C    3.833 --   537 C    1.285   500 C    1.282   146 C    1.227
   500   6 C    3.905 --   499 C    1.282   501 C    1.270   504 N    1.252
   501   6 C    3.829 --   502 C    1.579   500 C    1.270   539 H    0.998
   502   6 C    3.816 --   501 C    1.579   503 C    1.263   540 H    0.998
   503   6 C    3.887 --   505 C    1.336   502 C    1.263   504 N    1.224
   504   7 N    3.252 --   500 C    1.252   503 C    1.224   541 H    0.961
   505   6 C    3.831 --   514 C    1.373   503 C    1.336   506 C    1.053
   506   6 C    3.867 --   513 C    1.415   507 C    1.415   505 C    1.053
   507   6 C    3.857 --   508 C    1.463   506 C    1.415   542 H    0.986
   508   6 C    3.905 --   507 C    1.463   509 C    1.384   543 H    0.984
   509   6 C    3.906 --   508 C    1.384   512 C    1.384   510 C    1.124
   510   6 C    4.103 --   511 N    2.964   509 C    1.124
   511   7 N    2.987 --   510 C    2.964
   512   6 C    3.905 --   513 C    1.463   509 C    1.384   544 H    0.985
   513   6 C    3.861 --   512 C    1.463   506 C    1.415   545 H    0.986
   514   6 C    3.925 --   505 C    1.373   517 N    1.354   515 C    1.160
   515   6 C    3.839 --   516 C    1.695   514 C    1.160   546 H    0.998
   516   6 C    3.850 --   515 C    1.695   518 C    1.165   547 H    0.999
   517   7 N    2.552 --   518 C    1.414   514 C    1.354
   518   6 C    3.946 --   517 N    1.414   519 C    1.290   516 C    1.165
   519   6 C    3.832 --   518 C    1.290   520 C    1.286   148 C    1.216
   520   6 C    3.906 --   519 C    1.286   521 C    1.268   524 N    1.251
   521   6 C    3.829 --   522 C    1.581   520 C    1.268   548 H    0.998
   522   6 C    3.818 --   521 C    1.581   523 C    1.262   549 H    0.998
   523   6 C    3.887 --   525 C    1.338   522 C    1.262   524 N    1.223
   524   7 N    3.250 --   520 C    1.251   523 C    1.223   550 H    0.961
   525   6 C    3.833 --   534 C    1.372   523 C    1.338   526 C    1.052
   526   6 C    3.867 --   527 C    1.415   533 C    1.415   525 C    1.052
   527   6 C    3.857 --   528 C    1.463   526 C    1.415   551 H    0.986
   528   6 C    3.905 --   527 C    1.463   529 C    1.384   552 H    0.985
   529   6 C    3.906 --   528 C    1.384   532 C    1.384   530 C    1.124
   530   6 C    4.103 --   531 N    2.964   529 C    1.124
   531   7 N    2.987 --   530 C    2.964
   532   6 C    3.905 --   533 C    1.463   529 C    1.384   553 H    0.985
   533   6 C    3.861 --   532 C    1.463   526 C    1.415   554 H    0.986
   534   6 C    3.924 --   525 C    1.372   538 N    1.353   535 C    1.161
   535   6 C    3.838 --   536 C    1.693   534 C    1.161   555 H    0.998
   536   6 C    3.849 --   535 C    1.693   537 C    1.166   556 H    0.999
   537   6 C    3.944 --   538 N    1.417   499 C    1.285   536 C    1.166
   538   7 N    2.555 --   537 C    1.417   534 C    1.353
   539   1 H    1.024 --   501 C    0.998
   540   1 H    1.029 --   502 C    0.998
   541   1 H    1.082 --   504 N    0.961
   542   1 H    1.045 --   507 C    0.986
   543   1 H    1.036 --   508 C    0.984
   544   1 H    1.036 --   512 C    0.985
   545   1 H    1.048 --   513 C    0.986
   546   1 H    1.033 --   515 C    0.998
   547   1 H    1.029 --   516 C    0.999
   548   1 H    1.025 --   521 C    0.998
   549   1 H    1.029 --   522 C    0.998
   550   1 H    1.081 --   524 N    0.961
   551   1 H    1.045 --   527 C    0.986
   552   1 H    1.036 --   528 C    0.985
   553   1 H    1.036 --   532 C    0.985
   554   1 H    1.048 --   533 C    0.986
   555   1 H    1.033 --   535 C    0.998
   556   1 H    1.029 --   536 C    0.999
 ---------------------------------------------------------------------------

Topologies differ in total number of bonds
Writing topology from bond orders to xtbtopo.mol

 dipole moment from electron density (au)
     X       Y       Z   
-346.5706  -0.4390  -0.6049  total (Debye):  880.897


           -------------------------------------------------
          | TOTAL ENERGY            -1111.538725269510 Eh   |
          | GRADIENT NORM               0.148324997600 Eh/α |
          | HOMO-LUMO GAP               0.049312969115 eV   |
           -------------------------------------------------
########################################################################
[WARNING] Runtime exception occurred
-1- restart_readRestart: Dimension missmatch in restart file.
########################################################################

------------------------------------------------------------------------
 * finished run on 2022/07/27 at 18:16:55.713     
------------------------------------------------------------------------
 total:
 * wall-time:     0 d,  0 h,  2 min, 31.666 sec
 *  cpu-time:     0 d,  0 h,  2 min, 30.658 sec
 * ratio c/w:     0.993 speedup
 SCF:
 * wall-time:     0 d,  0 h,  2 min, 29.726 sec
 *  cpu-time:     0 d,  0 h,  2 min, 29.135 sec
 * ratio c/w:     0.996 speedup

