262
 energy: -525.213569084666 gnorm: 0.000985904626 xtb: 6.5.1 (b24c23e)
Cu          40.73040963366488       -0.00037919980878       -0.05391533761557
C           37.32546687690085       -0.03507367973091       -0.13322459162955
C           37.96622982687794       -1.25053258249109       -0.31814996319424
C           37.29639142218176       -2.50727343435095       -0.49530282998595
C           38.25903532023560       -3.45074523856546       -0.63960960850737
C           39.52673194081541       -2.77549255014976       -0.56518962978857
N           39.31815893523412       -1.44232696248800       -0.36132385027149
C           40.77559720619055       -3.39462846622879       -0.66031854235494
C           40.79656270731675       -4.85501603780741       -0.91280784246226
C           41.37226079658191       -5.72350471260555        0.01964829785600
C           41.39133648811828       -7.08743927315330       -0.20767779038071
C           40.83465596129452       -7.58777789853651       -1.38139428997811
N           40.85407735882947       -9.01878646689378       -1.62652411897418
O           40.35982766202167       -9.41603215541745       -2.65052682476997
O           41.36315840734864       -9.72097971228992       -0.79084814984289
C           40.25965784503838       -6.74020574087227       -2.32413272028481
C           40.24074505036296       -5.37835023359308       -2.08419001655599
C           42.00668863888242       -2.74630125713848       -0.53633110182108
C           43.28680444965401       -3.37346018662787       -0.70684699497382
C           44.22747735664601       -2.41230063295365       -0.52630717040988
N           42.18708231012063       -1.41574102401604       -0.26787078147670
C           43.52977533911409       -1.19238790668416       -0.25152841593355
C           44.15977617134732        0.03859551258173        0.00286465412108
C           43.49424392706771        1.25320711372298        0.24443864801643
C           44.15461128236884        2.48552177640538        0.55359704884578
C           43.18670190150643        3.42286065215099        0.71479825270718
C           41.92749788591966        2.76951121412448        0.49387369430085
N           42.14695061815064        1.44606756914852        0.21906193542695
C           40.67837044264021        3.38966522861377        0.57506238988511
C           40.65476182477610        4.84628465287438        0.84767639323119
C           40.03104296362593        5.33852167905698        1.99832323866864
C           40.00562971194936        6.69646667468577        2.25857013152429
C           40.60506970788506        7.57171484411251        1.35723615849265
N           40.57813654767359        8.99877816271968        1.62358233169423
O           40.02153591239984        9.36875022564196        2.62559210218442
O           41.11370446617356        9.72527536471974        0.82610208454410
C           41.22931542311302        7.10266669176436        0.20478464675393
C           41.25344180406547        5.74237907206879       -0.04323959309769
C           39.44831514350074        2.74568218034499        0.41757835968261
C           38.16513435211341        3.39518516342725        0.43463206113635
C           37.22981722398640        2.43427284491595        0.23600518951259
C           37.93242979448489        1.19215193815782        0.08485258099053
N           39.27663934886655        1.41034636564827        0.19479384591482
H           36.24084503302251       -0.04566752700737       -0.15984565206639
H           36.22587013453481       -2.63777944493931       -0.49602168877411
H           38.12922728849005       -4.51268157200720       -0.77242363916352
H           41.79196301908600       -5.32236199016016        0.93480524812029
H           41.82923992164982       -7.76862313325776        0.51198200541260
H           39.83731727650181       -7.15435691783132       -3.23176344306891
H           39.80697678898396       -4.70690947112265       -2.81601839437899
H           43.44245063390219       -4.41198192422895       -0.94994378626882
H           45.29985584589260       -2.50991022013071       -0.57927692002045
H           45.22224393305694        2.60620864001127        0.64296648340761
H           43.31073376417452        4.46148269388258        0.97503906693125
H           39.57854927436411        4.64587418368853        2.69837290225460
H           39.53000534125880        7.08648310200879        3.15039716069962
H           41.68484147078455        7.80497824914614       -0.48292007578847
H           41.72515540324013        5.36575104279008       -0.94334837482998
H           38.00766977409100        4.45334587846698        0.56764624525064
H           36.15818284057009        2.54379890184389        0.18452186637404
Cu          96.56111213948631        0.03918159902974       -0.02138411522898
C           99.96498108786297        0.10221366110443       -0.12326947896431
C           99.32723695758662        1.29837940245097        0.16752516423598
C          100.00012899732759        2.53080070361065        0.46386267117212
C           99.03973655476723        3.46026325333954        0.69059359133582
C           97.77026061454008        2.80563121806057        0.52196433630590
N           97.97569083603244        1.49222129233336        0.21361073589300
C           96.52295760353010        3.41598169040940        0.67617849460474
C           96.50549902123001        4.86660915804254        0.97991821247137
C           95.94275812047995        5.33121154156084        2.17264058214837
C           95.92702372382954        6.68315762494286        2.46315213987937
C           96.47397494332060        7.58013547977695        1.54985179066250
N           96.45794598115427        9.00097405785298        1.84852476038099
O           96.94445086984773        9.74692114007576        1.03765306043296
O           95.95930567637750        9.34663910429633        2.88896567935437
C           97.03614670072436        7.13874003003069        0.35532404730155
C           97.05184998588454        5.78412097612840        0.07731481457987
C           95.29066857925174        2.76750144604801        0.56572585796943
C           94.01124025674986        3.41263504727374        0.65483514935320
C           93.06880416390759        2.45231199989100        0.47908350421614
N           95.10796126749980        1.43188034702991        0.32532902256647
C           93.76465187901456        1.21761515712917        0.27463172273780
C           93.13264699107306       -0.02072390347173        0.06457547352602
C           93.79600270148420       -1.23781018168937       -0.17051141522117
C           93.13447379841556       -2.49715842111831       -0.33374291631947
C           94.10008419457094       -3.42534530034933       -0.55186253066408
C           95.35886799186405       -2.73516451558942       -0.53301261735569
N           95.14180869732758       -1.40556851602546       -0.28777607135318
C           96.60582377082503       -3.33889496241183       -0.71251801738983
C           96.62555687695513       -4.78957787859979       -1.01522889762580
C           97.26556643337581       -5.68337184601612       -0.15106740807539
C           97.28902046732236       -7.03751843952068       -0.43075002019723
C           96.67093058115312       -7.50252652477874       -1.58812892976129
N           96.69682172249901       -8.92264335476928       -1.88937755328045
O           97.26925318485239       -9.64665758564280       -1.11556023774351
O           96.14486464183054       -9.28967338731680       -2.89500832320739
C           96.02930886492312       -6.62958559710937       -2.46227945428795
C           96.00742847127157       -5.27801559433343       -2.17048945385362
C           97.83672578028013       -2.68220260435084       -0.63363610835878
C           99.11709563241712       -3.28920953859923       -0.88046830054915
C          100.05420209958911       -2.32408798756295       -0.71320201342667
C           99.35530880792160       -1.11716205952804       -0.37523150835533
N           98.01160537918322       -1.36141953035471       -0.33821274362080
H          101.04927516781187        0.12232379596449       -0.15682657124269
H          101.07108425697949        2.65229510356767        0.50047418976838
H           99.17222987448044        4.49547750709720        0.96074652937433
H           95.53063785277457        4.62163052282860        2.88061331555188
H           95.49913985184820        7.05191529785017        3.38760585504938
H           97.45110732674837        7.85766404454905       -0.34083788501762
H           97.47562136280335        5.42885835084163       -0.85476446372457
H           93.85698159193088        4.46736324301882        0.81482804096765
H           91.99629239151713        2.56204581533958        0.47944951615606
H           92.06781031501779       -2.64390634530827       -0.27813347797537
H           93.97511570859820       -4.48602317266613       -0.69749196641973
H           97.73271042738858       -5.31047698546076        0.75297607312572
H           97.77767172147284       -7.73811944877509        0.23563511863150
H           95.55908348012038       -7.01623138367562       -3.35842312800581
H           95.52243419478614       -4.58659712202511       -2.84967530548416
H           99.27162319653499       -4.31903471335051       -1.15931780498030
H          101.12462465360926       -2.40552704668024       -0.81620408787342
C           45.56526706721564        0.05410057967007        0.01608207694551
C           46.78967379184136        0.06147496019280        0.01876042656679
C           48.13240215346141        0.06484873321084        0.01955449999122
C           49.36298717079404        0.06385858539658        0.01466810730159
C           50.70081926612855        0.05935656717880        0.01047773585694
C           51.93144745762557        0.05371784675977        0.00198174873500
C           53.27391712992200        0.04927050404562       -0.00601040304524
C           54.49850957454721        0.04374299054158       -0.01507420566164
C           64.18041781832120        0.03507013976198        0.00212283070687
C           65.40515621342635        0.03411492884658        0.00117188809446
C           66.74743752298573        0.03357803553871       -0.00214962472042
C           67.97823708527460        0.03244004964715       -0.00790988472730
C           69.31575098461961        0.03019002748511       -0.01616057798996
C           70.54656449280436        0.02875166498706       -0.02430370397979
C           71.88884956606999        0.02535268805379       -0.02926429094327
C           73.11356454505082        0.02201370881299       -0.03543716665582
C           82.79461103029567       -0.00368217159100        0.06527556710841
C           84.01911985875535       -0.01304845122671        0.08194598963746
C           85.36145707037973       -0.02368071080148        0.09668453045047
C           86.59206981117222       -0.03435919509667        0.10543910087925
C           87.92982486253295       -0.04303456433113        0.10845219183593
C           89.16041414187376       -0.04937173652944        0.10682619766272
C           90.50305971781323       -0.04524039917049        0.10108215214106
C           91.72737451628645       -0.04045549504186        0.08749964974850
Cu          59.33946940303490        0.03805994296691       -0.01931040998322
C           55.90337794994298        0.04093371589960       -0.02112113750096
C           56.55086609138672       -1.20550354167647        0.05360935999852
C           55.87184117266379       -2.46047486403839        0.17408135447012
C           56.82648452509692       -3.42475179493513        0.20216566914346
C           58.09542464655544       -2.76279592428019        0.09112225692140
N           57.89514393611861       -1.41095488110376        0.01107516966882
C           59.33661453813719       -3.40385882553159        0.09252322603991
C           59.33488255867329       -4.88573190646834        0.13479200950966
C           59.92421741916771       -5.56305401104212        1.20661401657754
C           59.92337186344862       -6.94529848570244        1.25082945029126
C           59.33306536037062       -7.65743238257880        0.21056246105208
N           59.33313601682408       -9.10897491498555        0.24968574577195
O           58.80929231242470       -9.69156746895109       -0.66505985026933
O           59.85379691531571       -9.64135758494345        1.19627790272863
C           58.74302684239007       -7.00248187121276       -0.86677484803734
C           58.74404741354140       -5.61992000949988       -0.89810965358626
C           60.57904188480795       -2.76625132110363        0.05717002221470
C           61.84732606142250       -3.43571751464791       -0.00589056242938
C           62.80358048677797       -2.47299774936809       -0.03218817225731
N           60.78140666989560       -1.41226834764662        0.05288649916722
C           62.12618127607141       -1.21194824841333        0.00442779633194
C           62.77569573216740        0.03580200250754       -0.00154298896927
C           62.12764195283311        1.28424209837604       -0.01611458510994
C           62.80602944710704        2.54466474524612        0.02242037996261
C           61.85144317309490        3.50832685585573       -0.02376201142077
C           60.58329692240819        2.83995076522397       -0.09946065763542
N           60.78378206735992        1.48586372714659       -0.08253253924135
C           59.34243188187700        3.47929106334425       -0.15673026737664
C           59.34454626939449        4.95994506213355       -0.22597453134997
C           59.95294046482132        5.61388522600868       -1.30183799727038
C           59.95398873602298        6.99474708393780       -1.37616749993119
C           59.34546920357277        7.72949866521777       -0.36244624317123
N           59.34388612504612        9.17969493192340       -0.43518542655936
O           59.88735349366549        9.69127703545073       -1.38044732707159
O           58.80203062274909        9.78224896042490        0.45582918872716
C           58.73773565209406        7.09827364666042        0.71921558560421
C           58.73784021558372        5.71670759099307        0.78111824498798
C           58.10015536007435        2.84027194266782       -0.15639669535332
C           56.83244289877086        3.50250839851594       -0.27927902126355
C           55.87623029491036        2.54027000446654       -0.23883638030328
C           56.55319736583182        1.28578841321510       -0.10320386411716
N           57.89766137022490        1.48964565397295       -0.06114247314038
H           54.80198173794680       -2.57843166984659        0.23618451281994
H           56.68718155346155       -4.48869653387981        0.30457979301301
H           60.37057586477604       -4.99685237928829        2.01576490600528
H           60.37198502440400       -7.47887273698914        2.08012095698732
H           58.29376783972305       -7.57997115289679       -1.66574396624045
H           58.29823506380075       -5.09810919870940       -1.73687469857854
H           61.98548049579034       -4.50413710968864       -0.04103077918065
H           63.87353667388999       -2.59627632644674       -0.08070367284245
H           63.87534646873046        2.66700088711244        0.08526122280100
H           61.99032134092914        4.57679458619248        0.00690768183926
H           60.41244279522477        5.03001746010172       -2.09084249735912
H           60.41690800384042        7.50990811219961       -2.20922723460052
H           58.27495628549853        7.69317677480372        1.49742298784073
H           58.27844508168082        5.21371301361680        1.62402788978493
H           56.69442888842837        4.56502709173042       -0.39683720815714
H           54.80668444666380        2.65918618484940       -0.30427823609139
Cu          77.95419349972073        0.00906950085419       -0.01064780960668
C           74.51827788742798        0.01794111494022       -0.03582788025633
C           75.16324250767204       -1.22970871460790        0.04239348460787
C           74.48129591814170       -2.48362282132559        0.15717539687037
C           75.43398387214233       -3.44974982688365        0.18815642530427
C           76.70465302624061       -2.78991207852206        0.08517577300134
N           76.50729531058494       -1.43751693812608        0.00668378361341
C           77.94463546759744       -3.43316023861857        0.09205843798320
C           77.94066215928085       -4.91506398826260        0.13109016005335
C           78.52380481897582       -5.59500628369588        1.20467045406761
C           78.52206421796159       -6.97731015928092        1.24593289864843
C           77.93691363168683       -7.68688432392954        0.20100933124651
N           77.93603708481766       -9.13849160398470        0.23710349000237
O           77.41859992823512       -9.71895904170419       -0.68260619640707
O           78.45309404031367       -9.67312563869870        1.18443399866085
C           77.35287283565701       -7.02931238170376       -0.87800071237068
C           77.35470436000823       -5.64667355195139       -0.90637779416279
C           79.18829013584147       -2.79749523890047        0.06670685622238
C           80.45587421644690       -3.46884235548943        0.01022481581677
C           81.41393935284398       -2.50767479927059       -0.00284815004953
N           79.39288578601408       -1.44388436769128        0.07024512673316
C           80.73836438915814       -1.24566745980658        0.03461869007353
C           81.38996617463047        0.00096105062626        0.04278351274044
C           80.74430446468318        1.25044124975954        0.02483317214622
C           81.42415024433205        2.50973763307967        0.07307213424295
C           80.47175339746498        3.47495582901349        0.01526874164936
C           79.20351867695290        2.80866931287023       -0.07640019652726
N           79.40160544551398        1.45432351085671       -0.05776829129198
C           77.96442643077779        3.45015480031465       -0.14814968986225
C           77.97074040858851        4.93068478160058       -0.22002382048320
C           78.59282603052642        5.58057435141446       -1.29054269297645
C           78.59902552423725        6.96125025358796       -1.36770600675311
C           77.98199212568562        7.69999472194741       -0.36206268586302
N           77.98714485415793        9.15008022949516       -0.43700940493266
O           78.54231118600758        9.65793421574197       -1.37749903058583
O           77.43610542163491        9.75619445574788        0.44591034108775
C           77.36020742307723        7.07286204140084        0.71397411260142
C           77.35528237172623        5.69140818191946        0.77871931982931
C           76.72104312390404        2.81335202342960       -0.15927160662184
C           75.45549117957138        3.47755838486845       -0.29325852533907
C           74.49725163999140        2.51706204638379       -0.25844340305019
C           75.17089394163423        1.26158471135191       -0.11585479021093
N           76.51535485375371        1.46313614019792       -0.06405171461672
H           73.41091974076033       -2.59981166223623        0.21330418283952
H           75.29223799025527       -4.51364783471641        0.28764644019593
H           78.96613693016718       -5.03072694477552        2.01736984969729
H           78.96600135546956       -7.51286556966919        2.07645905609387
H           76.90754019797373       -7.60487532763614       -1.68054936729958
H           76.91357380449419       -5.12283644680741       -1.74635359837237
H           80.59252789350191       -4.53728386898745       -0.02966318970883
H           82.48402552173883       -2.63264559122301       -0.04331787433246
H           82.49282275584598        2.63021635992783        0.14923974107998
H           80.61192073768271        4.54319763587711        0.04814121270200
H           79.05922614732400        4.99362805152100       -2.07319277627270
H           79.07284594254476        7.47323776071738       -2.19658321153572
H           76.89101031939681        7.67083405449758        1.48596513224962
H           76.88521370966168        5.19167305896987        1.61767015587068
H           75.32025385425190        4.54013629657440       -0.41351193315005
H           73.42843057092078        2.63771439579756       -0.33211709479009
