262
 energy: -469.165486919919 gnorm: 0.000596254561 xtb: 6.5.1 (b24c23e)
Zn          40.30264116001724       -0.00138049878288       -0.01110361815983
C           36.89447224857498        0.05828026634519       -0.09579539437126
C           37.53059876477968        1.28346180710853        0.06263132152692
C           36.86246272710768        2.54372316203587        0.23007219094000
C           37.82575607356837        3.48802207338851        0.37099434697566
C           39.09562040105499        2.81643866916427        0.28078768595433
N           38.88117541848602        1.48168749641044        0.10166474405800
C           40.35035665231056        3.42875503260791        0.39487179688077
C           40.37117188541012        4.89985914159411        0.57685619344872
C           40.92275678430772        5.46247050010942        1.73227056339622
C           40.93886969829988        6.83318154267759        1.90270951278144
C           40.40903554670961        7.67507299133112        0.91899884341425
C           40.44060271259398        9.13431382033625        1.12230412492584
O           40.89997515927202        9.66460112376291        2.10160630053979
C           39.86013241070844        7.11483531926992       -0.23719103160374
C           39.83915707965347        5.74168892391144       -0.40414966471892
C           41.58619746084930        2.77330243078414        0.35385575082782
C           42.86980034804255        3.41657413872787        0.41615706928597
C           43.81019171183653        2.44243779177865        0.32229191538916
N           41.77165128264302        1.42439235034198        0.21024556178165
C           43.11222801541373        1.19695298217192        0.19371027767043
C           43.73661430043626       -0.05970505179580        0.05833437655735
C           43.07627411143136       -1.29543915030263       -0.09581423377786
C           43.73751540579125       -2.55716471815699       -0.25619250759886
C           42.76897801715810       -3.49946109481869       -0.38348476704969
C           41.50470579913125       -2.82188358093194       -0.29432104002331
N           41.72959601225473       -1.48167974731884       -0.12755406816048
C           40.25028953695440       -3.43313949768658       -0.40070465855453
C           40.22709106043778       -4.90729694927877       -0.55690131615463
C           39.67807442839060       -5.48913311271911       -1.70321056798802
C           39.65555523256152       -6.86459059996849       -1.84995920090977
C           40.17658338205344       -7.68794699451859       -0.84870578989406
C           40.15970289996616       -9.15585312325014       -0.97838729818189
O           40.59120221007302       -9.90735528299141       -0.14160099362210
C           40.72409437457098       -7.10649445458738        0.29990347394695
C           40.75193848518956       -5.73277978149153        0.44247753130792
C           39.01416430533575       -2.77487187496692       -0.36920422695739
C           37.72517912262234       -3.41223087328239       -0.43289087129094
C           36.78994763054781       -2.43340754348349       -0.35092820676899
C           37.49461230842271       -1.18822666113982       -0.22576001084891
N           38.83877706217559       -1.42900164585439       -0.23677973926639
H           35.80905400725341        0.07538097541588       -0.10686851053087
H           35.79199768959426        2.67596636089942        0.24488321386464
H           37.69252127967353        4.54527373328219        0.53551083668784
H           41.32295707193052        4.81232645685661        2.50210527662067
H           41.35947151629960        7.27649838927766        2.79893882926894
H           39.99968887848626        9.72039814760101        0.28771966377184
H           39.45078362052129        7.76071319395468       -1.00725940956405
H           39.42430434799537        5.31074303721819       -1.30848571484478
H           43.03000646575089        4.47889588825629        0.50532172690110
H           44.88299584501083        2.55082556460873        0.33176983749308
H           44.80677339762492       -2.69552201528926       -0.27460542277683
H           42.89772871418726       -4.55852038219007       -0.53838485230262
H           39.28399264754348       -4.85262516229425       -2.48755457997339
H           39.23304979034238       -7.30714244342617       -2.74626642864360
H           39.70951720032949       -9.52466241810387       -1.92481384020321
H           41.12294736031630       -7.75340891267132        1.07390479546586
H           41.16567003594036       -5.28565269297564        1.33935731890712
H           37.56096669090117       -4.47466590938772       -0.51569807030924
H           35.71607931641270       -2.53453148270714       -0.36457401786734
Zn          96.15671412690972       -0.03011312950654       -0.04064293558083
C           99.56578536614320       -0.07809238255852       -0.07531318991754
C           98.92975264072217       -1.31321307302211       -0.10300982409270
C           99.59781126197757       -2.58458734175587       -0.10204108475053
C           98.63441993522292       -3.53919384580311       -0.11087965663294
C           97.36474544490434       -2.86145889375590       -0.12906150665704
N           97.57917779020690       -1.51475818682586       -0.11599677334148
C           96.10950868769815       -3.48325618046325       -0.12533415070989
C           96.08813168313210       -4.96539798998066       -0.14531877470647
C           95.51388392238914       -5.67785951319761        0.91230479831264
C           95.49781596182412       -7.05899706087503        0.89716424553292
C           96.05047143090643       -7.76148056924316       -0.17908410214493
C           96.01897939799353       -9.23476592021060       -0.17356492211258
O           95.54004731923234       -9.89140800343312        0.71566989251671
C           96.62161314643018       -7.05132020170475       -1.23805975214814
C           96.64236262723595       -5.66815551605516       -1.21908447867283
C           94.87315363795732       -2.82788220998189       -0.10004747929773
C           93.59026680781523       -3.47309156399828       -0.15669339135244
C           92.64944173418310       -2.49517918494512       -0.13116411368715
N           94.68718531569051       -1.47222985215249       -0.05506083716654
C           93.34662066928860       -1.24430977285867       -0.06648632089231
C           92.72184454217900        0.01881478922356       -0.02816465867762
C           93.38197822886710        1.26348484873548        0.01442274968998
C           92.72093113285992        2.53536563109099        0.03113537812184
C           93.68952921904277        3.48568244887527        0.06127869107690
C           94.95351928094816        2.80178605271781        0.07088346089741
N           94.72863394126766        1.45178539141021        0.03387492189731
C           96.20823937474155        3.42159475233257        0.07683273411930
C           96.23107184052434        4.90254647474657        0.14308810587034
C           96.79740807299592        5.64954508587188       -0.89382076790340
C           96.82108774447822        7.03139316564826       -0.83126396762446
C           96.28379523136839        7.69531630112670        0.27435905507625
C           96.30255947460191        9.16595431557957        0.36817121648873
O           95.85793267358073        9.78339307430205        1.30207361026732
C           95.71825286862097        6.94835696537519        1.31327761706956
C           95.68930969407248        5.56889502150348        1.24677721694572
C           97.44505516044789        2.76549486451341        0.03069101156045
C           98.73365829388679        3.40482827123547        0.08127734222146
C           99.66939750844804        2.42422089897094        0.03396363946674
C           98.96529038297425        1.17433843434767       -0.03478059625692
N           97.62100986778763        1.41464716027983       -0.03238469429681
H          100.65127199483538       -0.09373882811845       -0.07051929237840
H          100.66816247370784       -2.71773812178415       -0.08715027022114
H           98.76736536464897       -4.60905308769896       -0.09310765114826
H           95.09596254220273       -5.13667888993596        1.75371382223113
H           95.05984264581241       -7.61836196606798        1.71689106887330
H           96.47945702628033       -9.70389507007551       -1.06928114341122
H           97.04857726852492       -7.58821857912114       -2.07899589005646
H           97.07456796194970       -5.12001809991758       -2.04876484115973
H           93.43117991802956       -4.53727697331881       -0.22277001058739
H           91.57696268635192       -2.60347297351747       -0.15971027403840
H           91.65185518900205        2.67537411826839        0.01486194326179
H           93.56131975178008        4.55607547420565        0.06243911950186
H           97.20443437003534        5.13787681465016       -1.75878416479559
H           97.25744487825141        7.60327684808149       -1.64383683994570
H           96.76763029132823        9.67244935566046       -0.50451721547063
H           95.30660574547515        7.47189224137142        2.16949929564368
H           95.26168851238350        4.99237608233727        2.05934034942945
H           98.89716415857141        4.46787608632740        0.15725966791482
H          100.74314485985188        2.52587814877995        0.05226876224217
C           45.14135926992931       -0.07877579839348        0.06823185187681
C           46.36613547751616       -0.08702218663223        0.07555205462132
C           47.70841068801540       -0.09336680954628        0.07919477369126
C           48.93928089329874       -0.09281797273297        0.08158210763876
C           50.27673311379400       -0.08668673026883        0.08257935866537
C           51.50766719352404       -0.07943569019502        0.07716624334330
C           52.84970607898778       -0.07356745396244        0.06906611648315
C           54.07468070497890       -0.06618696598717        0.06050262351054
C           63.76258801908434       -0.03278964965418       -0.04049416037693
C           64.98768423201156       -0.03202796311900       -0.03790785531570
C           66.32952269905688       -0.03172056157933       -0.03220266854133
C           67.56062811979196       -0.03246106980968       -0.02301013890109
C           68.89774761211572       -0.03362868721246       -0.01281653597430
C           70.12878445148520       -0.03440139353017       -0.00224996078990
C           71.47058562554345       -0.03424987902313        0.00753682076065
C           72.69563728141749       -0.03569141148022        0.01480547086351
C           82.38378520969701        0.00524913714722       -0.05959216738056
C           83.60870092490583        0.01623973355439       -0.06604339743979
C           84.95078577882197        0.02565413192938       -0.06831390024090
C           86.18171909391239        0.03508486870737       -0.06643073050937
C           87.51922532798032        0.04135374768722       -0.06231732642848
C           88.75011591977234        0.04526000652153       -0.05647641681838
C           90.09240930955275        0.04193320520366       -0.04781532409022
C           91.31703277607762        0.03596724926195       -0.03751043739309
Zn          58.91849099177198       -0.04575170392050       -0.00007124917444
C           55.47877293998677       -0.06004134119452        0.04564163235267
C           56.12238512909418        1.14529799997662        0.39310978511409
C           55.44425984142085        2.36204574986470        0.72881728074944
C           56.40019599376667        3.28447939000095        1.00939243552647
C           57.67197126817029        2.63501250705179        0.85598374473941
N           57.46631603081344        1.33763231429309        0.47074714998679
C           58.91888012233047        3.24210193309916        1.04468397685253
C           58.91989839121778        4.65497402696618        1.49519385230890
C           59.48540059596762        5.65305763096106        0.69564623039990
C           59.48576961785860        6.96862265048124        1.11722733971168
C           58.92627349260074        7.31657889147969        2.35126914603839
C           58.94384243057915        8.72630178510797        2.78142606684471
O           59.41762576661326        9.62002685452688        2.12748261849884
C           58.36259736106805        6.32019585589822        3.15201641516136
C           58.35704660001700        5.00393873955700        2.72609311682578
C           60.16553393849273        2.63739174640950        0.84834612822998
C           61.43748957274242        3.25619083223434        1.09799391286601
C           62.39315898012279        2.34000238075331        0.79746627586214
N           60.37105508639181        1.35453417850952        0.41663596072851
C           61.71480297800944        1.15201280323372        0.37104571389751
C           62.35863934369835       -0.03486939476709       -0.03475678464110
C           61.71419850107036       -1.22468079848170       -0.43110656092853
C           62.39103568687358       -2.40670195305033       -0.87584248756102
C           61.43521629359015       -3.32946405931380       -1.15555210607502
C           60.16507209825949       -2.72098062915300       -0.87372201473134
N           60.37126483653275       -1.43694287795867       -0.44596975955830
C           58.91872121933071       -3.33686242872942       -1.03506868449359
C           58.91842082629067       -4.75232327989750       -1.47682942399177
C           59.51845500298998       -5.73776999248454       -0.68766823483199
C           59.51515744265588       -7.06025092299684       -1.09374850144301
C           58.91583831234559       -7.42380427815136       -2.30219356493133
C           58.90003514123425       -8.82542198541124       -2.75814489226809
O           58.39645857783650       -9.18806205501155       -3.79049935347872
C           58.31857478033584       -6.43756285170180       -3.09438693285009
C           58.31737566901442       -5.11806680800724       -2.68526496288452
C           57.67225277580194       -2.73932141775855       -0.81523953054486
C           56.40209954591152       -3.39946846124780       -0.93313175239030
C           55.44647459097319       -2.48365390504586       -0.63123537725752
C           56.12330810440062       -1.26058057546519       -0.31644322214116
N           57.46630350350195       -1.44254647488036       -0.42788519851136
H           54.37353563781748        2.48925861196165        0.73944698860313
H           56.25776583298407        4.31734880210775        1.28340582291532
H           59.90950433526500        5.38817289402853       -0.26634293107952
H           59.91726652667256        7.74941470818855        0.50012018998617
H           58.47842274500388        8.90579507393325        3.77412919328805
H           57.92971889782936        6.58081258386497        4.11241658545775
H           57.93002421707914        4.23095410333135        3.35518384971086
H           61.58031407180980        4.25857527859169        1.46801826355595
H           63.46385852398706        2.44980870245265        0.86273640707619
H           63.46063159966677       -2.50792827486398       -0.96784651916596
H           61.57657280621001       -4.32954889933372       -1.53240458536134
H           59.97307011704083       -5.46050691458314        0.25682499465957
H           59.97768111613425       -7.81937122564215       -0.47127169076105
H           59.39727423168015       -9.53616213658768       -2.06395253431334
H           57.85928518333864       -6.72831284107525       -4.03309076911372
H           57.86435915604070       -4.35438493544378       -3.30737201496483
H           56.26049483465605       -4.43425845655460       -1.19999098816224
H           54.37691925647698       -2.61946023572391       -0.61395568395570
Zn          77.53959011731698       -0.01956383078039       -0.01003315506669
C           74.09960817587937       -0.03322770314787        0.01529914938393
C           74.74150890957911        1.16988702352496        0.37369115288793
C           74.06154222667963        2.38463330355479        0.71320619483835
C           75.01595771652255        3.30535227867634        1.00411836857221
C           76.28859481978255        2.65718029643457        0.85204977549350
N           76.08487256339791        1.36165328890650        0.45921286506764
C           77.53431368154386        3.26477325886008        1.04525715487094
C           77.53247242434045        4.67566215302152        1.50210104149495
C           78.09397034991564        5.67888163431375        0.70624288783048
C           78.09051865680971        6.99263120000621        1.13346319908200
C           77.53132927659310        7.33345410829854        2.36961559490712
C           77.54411161217125        8.74156248616563        2.80538718894898
O           78.01200221260090        9.63986155514177        2.15356192327893
C           76.97195751287256        6.33184313034681        3.16682068069317
C           76.96996243742599        5.01743441646731        2.73514826323165
C           78.78206610423153        2.66311416746326        0.84580365531519
C           80.05298857475265        3.28422853917417        1.09460743528356
C           81.01021298204610        2.37150619006464        0.78852723701400
N           78.98959990063624        1.38210837808090        0.40988919733521
C           80.33383999560012        1.18287037634270        0.36080709144792
C           80.97962919783566       -0.00237436077830       -0.04655475810429
C           80.33735451593418       -1.19486984622561       -0.43776887540288
C           81.01611164004888       -2.37743266012941       -0.87793052999595
C           80.06183474937943       -3.30303738524465       -1.15366626291672
C           78.79064120764144       -2.69521462899983       -0.87527662403588
N           78.99459000458795       -1.40949189379155       -0.45213874533552
C           77.54512292080024       -3.31285386692229       -1.03838981876947
C           77.54794470958964       -4.73052843645254       -1.47299115426638
C           78.14550707732228       -5.71086585913714       -0.67557696323566
C           78.14466561876689       -7.03575244082116       -1.07364414919891
C           77.55036724486175       -7.40699780612724       -2.28225469613927
C           77.53687225834065       -8.81141496384761       -2.72937196675538
O           77.03728843752471       -9.18096318786586       -3.76125456220867
C           76.95601306021788       -6.42585408631435       -3.08293059486997
C           76.95241785417142       -5.10388722126415       -2.68182510863794
C           76.29750895656596       -2.71491132533897       -0.82734052478983
C           75.02771590273609       -3.37449856881052       -0.95276911708788
C           74.07052565252179       -2.45716778520210       -0.66063014605409
C           74.74595636234838       -1.23400038272286       -0.34302967468580
N           76.08948203107586       -1.41707062829167       -0.44411586399518
H           72.99076462574456        2.51166028041397        0.71962449099328
H           74.87210284899473        4.33646080588893        1.28395341720912
H           78.51775013474230        5.41946612923181       -0.25737343235601
H           78.51867722813410        7.77747407525861        0.51918311982605
H           77.08079803247702        8.91508023071763        3.80012983314363
H           76.53934703292649        6.58693837154706        4.12882531343819
H           76.54581641657668        4.24039125801086        3.36118919302135
H           80.19412587936743        4.28578563199151        1.46747931871133
H           82.08076144678923        2.48379478903107        0.85172367206295
H           82.08590309674847       -2.47733284238573       -0.96917761420090
H           80.20480118230293       -4.30451032286651       -1.52621668803829
H           78.59621120876979       -5.42758172032688        0.26900185867519
H           78.60509097740699       -7.79083270130301       -0.44473440618761
H           78.03176480018283       -9.51750206991978       -2.02876599751648
H           76.50083472391098       -6.72251717883856       -4.02178847714795
H           76.50178101376598       -4.34426885561696       -3.31059136879669
H           74.88719281296945       -4.40985042876731       -1.21804108548459
H           73.00074742857554       -2.59208293068154       -0.65092925251424
