302
 energy: -527.951260397919 gnorm: 4.158621255337 xtb: 6.5.1 (b24c23e)
C           27.81079600000000       -0.00278000000000       -0.00108600000000
C           28.54523000000000       -1.37993800000000       -0.07297200000000
C           27.95808400000000       -2.62360200000000       -0.13788900000000
C           29.01000200000000       -3.57950000000000       -0.18779000000000
C           30.19845500000000       -2.88231500000000       -0.15140200000000
N           29.90676200000000       -1.54663600000000       -0.08167500000000
C           31.62981000000000       -3.50063700000000       -0.18368700000000
C           32.75237100000000       -2.75583000000000       -0.14480400000000
C           34.03735699999999       -3.40829600000000       -0.17887400000000
C           34.97464100000000       -2.46706800000000       -0.12973600000000
N           32.97420200000000       -1.41361300000000       -0.07472800000000
C           34.32358100000000       -1.16920000000000       -0.06197500000000
C           35.02034200000000       -0.00144800000000       -0.00101500000000
C           34.24567700000000        1.39084000000000        0.07167200000000
C           34.80925600000000        2.65137800000000        0.13748600000000
C           33.75123200000000        3.59553600000000        0.18677400000000
C           32.57332000000000        2.88560700000000        0.14970200000000
N           32.87866900000000        1.54847100000000        0.07989400000000
C           31.14052300000000        3.51016900000000        0.18230000000000
C           30.02300300000000        2.76056100000000        0.14316500000000
C           28.71923400000000        3.38528200000000        0.17577100000000
C           27.80275100000000        2.42122900000000        0.12544500000000
C           28.49680499999999        1.15559200000000        0.05938200000000
N           29.83288700000000        1.41681800000000        0.07302100000000
H           26.72808000000000        0.00543700000000       -0.00066000000000
H           26.89740800000000       -2.82126900000000       -0.14820600000000
H           28.91073799999999       -4.65256300000000       -0.24380600000000
H           30.58678700000000       -0.79059700000000       -0.04221200000000
H           31.70785300000000       -4.58007000000000       -0.24004600000000
H           34.20231800000000       -4.46921100000000       -0.23426500000000
H           36.03267999999999       -2.65446600000000       -0.13952400000000
H           35.86462999999999        2.87615400000000        0.14922600000000
H           33.83965900000000        4.66963200000000        0.24285200000000
H           32.19996600000000        0.79062900000000        0.04032800000000
H           31.05929100000000        4.58904800000000        0.23861700000000
H           28.53325900000000        4.44243800000000        0.23095300000000
H           26.73586900000000        2.55062900000000        0.13219600000000
C          148.97824600000001       -0.00013700000000       -0.00125600000000
C          148.24381299999999        1.35640000000000       -0.24933200000000
C          148.83095800000001        2.58144100000000       -0.47335800000000
C          147.77904000000001        3.52302500000000       -0.64555400000000
C          146.59058799999997        2.83627900000000       -0.51997000000000
N          146.88227999999998        1.52060100000000       -0.27936100000000
C          145.15923200000000        3.44534000000000       -0.63136100000000
C          144.03667100000001        2.71168700000000       -0.49719000000000
C          142.75168500000001        3.35438200000000       -0.61473400000000
C          141.81440100000000        2.42724800000000       -0.44517900000000
N          143.81484000000000        1.38957100000000       -0.25539500000000
C          142.46546200000000        1.14881700000000       -0.21137300000000
C          141.76870000000000       -0.00144800000000       -0.00101500000000
C          142.54336499999999       -1.37288600000000        0.24979700000000
C          141.97978599999999       -2.61454800000000        0.47687900000000
C          143.03781000000001       -3.54456700000000        0.64696000000000
C          144.21572200000000       -2.84527000000000        0.51906200000000
N          143.91037299999996       -1.52815800000000        0.27818500000000
C          145.64851899999999       -3.46048000000000        0.63156400000000
C          146.76604000000000       -2.72209800000000        0.49652700000000
C          148.06980899999999       -3.33746500000000        0.60905800000000
C          148.98629199999996       -2.38784800000000        0.43539400000000
C          148.29223700000000       -1.14116300000000        0.20741000000000
N          146.95615500000000       -1.39847700000000        0.25447000000000
H          150.06096199999999       -0.00823100000000        0.00022100000000
H          149.89163400000001        2.77614800000000       -0.50896400000000
H          147.87830500000001        4.58001900000000       -0.83885400000000
H          146.20225499999998        0.77588300000000       -0.14317300000000
H          145.08118999999996        4.50860800000000       -0.82581900000000
H          142.58672400000000        4.39940800000000       -0.80585500000000
H          140.75636200000000        2.61184000000000       -0.47894200000000
H          140.92441199999996       -2.83595700000000        0.51737600000000
H          142.94938399999998       -4.60257800000000        0.84045400000000
H          144.58907600000001       -0.78166500000000        0.14166400000000
H          145.72975099999999       -4.52320500000000        0.82591000000000
H          148.25578300000001       -4.37879100000000        0.79948800000000
H          150.05317299999999       -2.51531100000000        0.45870000000000
C           38.25321700000000        0.00766400000000        0.00535900000000
C           39.71144300000000       -0.01417200000000       -0.01251500000000
C           40.84537100000000       -0.03492600000000       -0.01400500000000
C           42.20675300000000       -0.04751600000000       -0.01619600000000
C           43.48097200000000       -0.03721000000000       -0.02096200000000
C           44.66943400000000       -0.01841100000000       -0.02711800000000
C           46.02179499999999        0.00637300000000       -0.01125000000000
C           47.12206199999999        0.00766400000000        0.00535900000000
C           56.52058099999999        0.00766400000000        0.00535900000000
C           57.97880800000000       -0.01417200000000       -0.01251500000000
C           59.11273599999999       -0.03492600000000       -0.01400500000000
C           60.47411699999999       -0.04751600000000       -0.01619600000000
C           61.74833599999999       -0.03721000000000       -0.02096200000000
C           62.93679899999999       -0.01841100000000       -0.02711800000000
C           64.28915900000000        0.00637300000000       -0.01125000000000
C           65.38942700000000        0.00766400000000        0.00535900000000
C           74.78794600000001        0.00766400000000        0.00535900000000
C           76.24617200000000       -0.01417200000000       -0.01251500000000
C           77.38010000000000       -0.03492600000000       -0.01400500000000
C           78.74148200000000       -0.04751600000000       -0.01619600000000
C           80.01570100000001       -0.03721000000000       -0.02096200000000
C           81.20416299999999       -0.01841100000000       -0.02711800000000
C           82.55652399999998        0.00637300000000       -0.01125000000000
C           83.65679099999998        0.00766400000000        0.00535900000000
C           93.05531000000001        0.00766400000000        0.00535900000000
C           94.51353700000000       -0.01417200000000       -0.01251500000000
C           95.64746499999998       -0.03492600000000       -0.01400500000000
C           97.00884700000000       -0.04751600000000       -0.01619600000000
C           98.28306499999998       -0.03721000000000       -0.02096200000000
C           99.47152800000001       -0.01841100000000       -0.02711800000000
C          100.82388899999998        0.00637300000000       -0.01125000000000
C          101.92415599999998        0.00766400000000        0.00535900000000
C          111.32267500000000        0.00766400000000        0.00535900000000
C          112.78090100000000       -0.01417200000000       -0.01251500000000
C          113.91482899999998       -0.03492600000000       -0.01400500000000
C          115.27621100000000       -0.04751600000000       -0.01619600000000
C          116.55042999999999       -0.03721000000000       -0.02096200000000
C          117.73889199999999       -0.01841100000000       -0.02711800000000
C          119.09125299999998        0.00637300000000       -0.01125000000000
C          120.19151999999998        0.00766400000000        0.00535900000000
C          129.59003999999999        0.00766400000000        0.00535900000000
C          131.04826600000001       -0.01417200000000       -0.01251500000000
C          132.18219400000001       -0.03492600000000       -0.01400500000000
C          133.54357600000000       -0.04751600000000       -0.01619600000000
C          134.81779499999999       -0.03721000000000       -0.02096200000000
C          136.00625700000001       -0.01841100000000       -0.02711800000000
C          137.35861800000001        0.00637300000000       -0.01125000000000
C          138.45888500000001        0.00766400000000        0.00535900000000
C           48.20509600000000       -0.00144800000000       -0.00101200000000
C           48.98513599999999        1.38608700000000       -0.01833700000000
C           48.43303100000000        2.65218800000000       -0.03416000000000
C           49.50164800000000        3.58481200000000       -0.04579300000000
C           50.67255600000000        2.86118400000000       -0.03673300000000
N           50.35386299999999        1.52815700000000       -0.02009100000000
C           52.10492799999999        3.47585100000000       -0.04438000000000
C           53.23055300000000        2.73779900000000       -0.03517200000000
C           54.51085000000000        3.40119700000000       -0.04342600000000
C           55.45530099999999        2.46622400000000       -0.03176400000000
N           53.46054199999999        1.39730800000000       -0.01846500000000
C           54.81227400000000        1.16375400000000       -0.01554000000000
C           55.51448800000000       -0.00144800000000       -0.00101200000000
C           54.73444800000000       -1.38898400000000        0.01627000000000
C           55.28655300000000       -2.65508700000000        0.03200600000000
C           54.21793599999999       -3.58771000000000        0.04364200000000
C           53.04702800000000       -2.86408100000000        0.03467000000000
N           53.36572100000000       -1.53105300000000        0.01806700000000
C           51.61465600000000       -3.47874800000000        0.04236200000000
C           50.48903199999999       -2.74069500000000        0.03316000000000
C           49.20873400000000       -3.40409200000000        0.04145800000000
C           48.26428300000000       -2.46912000000000        0.02979500000000
C           48.90730899999999       -1.16665000000000        0.01352600000000
N           50.25904200000000       -1.40020400000000        0.01642700000000
H           47.37982800000000        2.88741000000000       -0.03711500000000
H           49.42501800000000        4.66131200000000       -0.05924000000000
H           51.01867599999999        0.75754800000000       -0.01046400000000
H           52.18181600000000        4.55719000000000       -0.05785400000000
H           54.66799700000000        4.46474100000000       -0.05667800000000
H           56.51219399999999        2.66042700000000       -0.03417300000000
H           56.33975500000000       -2.89031000000000        0.03490000000000
H           54.29456499999999       -4.66421100000000        0.05703500000000
H           52.70090800000000       -0.76044300000000        0.00848300000000
H           51.53776800000000       -4.56008600000000        0.05586400000000
H           49.05158800000000       -4.46763600000000        0.05473900000000
H           47.20738900000000       -2.66332300000000        0.03223200000000
C           66.47246100000000       -0.00144800000000       -0.00101200000000
C           67.25250000000000        1.38608700000000       -0.01833700000000
C           66.70039600000000        2.65218800000000       -0.03416000000000
C           67.76901299999999        3.58481200000000       -0.04579300000000
C           68.93992000000000        2.86118400000000       -0.03673300000000
N           68.62122700000000        1.52815700000000       -0.02009100000000
C           70.37229200000000        3.47585100000000       -0.04438000000000
C           71.49791699999999        2.73779900000000       -0.03517200000000
C           72.77821500000000        3.40119700000000       -0.04342600000000
C           73.72266499999999        2.46622400000000       -0.03176400000000
N           71.72790700000000        1.39730800000000       -0.01846500000000
C           73.07963899999999        1.16375400000000       -0.01554000000000
C           73.78185300000000       -0.00144800000000       -0.00101200000000
C           73.00181300000000       -1.38898400000000        0.01627000000000
C           73.55391800000000       -2.65508700000000        0.03200600000000
C           72.48530000000000       -3.58771000000000        0.04364200000000
C           71.31439299999998       -2.86408100000000        0.03467000000000
N           71.63308599999999       -1.53105300000000        0.01806700000000
C           69.88202099999998       -3.47874800000000        0.04236200000000
C           68.75639600000000       -2.74069500000000        0.03316000000000
C           67.47609799999999       -3.40409200000000        0.04145800000000
C           66.53164800000000       -2.46912000000000        0.02979500000000
C           67.17467400000000       -1.16665000000000        0.01352600000000
N           68.52640599999998       -1.40020400000000        0.01642700000000
H           65.64719300000000        2.88741000000000       -0.03711500000000
H           67.69238300000001        4.66131200000000       -0.05924000000000
H           69.28604100000000        0.75754800000000       -0.01046400000000
H           70.44918099999998        4.55719000000000       -0.05785400000000
H           72.93536100000000        4.46474100000000       -0.05667800000000
H           74.77955900000001        2.66042700000000       -0.03417300000000
H           74.60711999999998       -2.89031000000000        0.03490000000000
H           72.56193000000000       -4.66421100000000        0.05703500000000
H           70.96827200000000       -0.76044300000000        0.00848300000000
H           69.80513200000000       -4.56008600000000        0.05586400000000
H           67.31895299999999       -4.46763600000000        0.05473900000000
H           65.47475400000000       -2.66332300000000        0.03223200000000
C           84.73982500000000       -0.00144800000000       -0.00101200000000
C           85.51986499999998        1.38608700000000       -0.01833700000000
C           84.96775999999998        2.65218800000000       -0.03416000000000
C           86.03637699999999        3.58481200000000       -0.04579300000000
C           87.20728500000000        2.86118400000000       -0.03673300000000
N           86.88859200000000        1.52815700000000       -0.02009100000000
C           88.63965700000000        3.47585100000000       -0.04438000000000
C           89.76528199999998        2.73779900000000       -0.03517200000000
C           91.04558000000000        3.40119700000000       -0.04342600000000
C           91.99002999999999        2.46622400000000       -0.03176400000000
N           89.99527200000000        1.39730800000000       -0.01846500000000
C           91.34700300000000        1.16375400000000       -0.01554000000000
C           92.04921700000000       -0.00144800000000       -0.00101200000000
C           91.26917700000000       -1.38898400000000        0.01627000000000
C           91.82128200000000       -2.65508700000000        0.03200600000000
C           90.75266499999999       -3.58771000000000        0.04364200000000
C           89.58175699999998       -2.86408100000000        0.03467000000000
N           89.90045099999999       -1.53105300000000        0.01806700000000
C           88.14938599999999       -3.47874800000000        0.04236200000000
C           87.02376099999999       -2.74069500000000        0.03316000000000
C           85.74346299999999       -3.40409200000000        0.04145800000000
C           84.79901200000000       -2.46912000000000        0.02979500000000
C           85.44203899999999       -1.16665000000000        0.01352600000000
N           86.79377099999999       -1.40020400000000        0.01642700000000
H           83.91455800000000        2.88741000000000       -0.03711500000000
H           85.95974699999999        4.66131200000000       -0.05924000000000
H           87.55340499999998        0.75754800000000       -0.01046400000000
H           88.71654499999998        4.55719000000000       -0.05785400000000
H           91.20272600000000        4.46474100000000       -0.05667800000000
H           93.04692399999999        2.66042700000000       -0.03417300000000
H           92.87448499999999       -2.89031000000000        0.03490000000000
H           90.82929400000000       -4.66421100000000        0.05703500000000
H           89.23563700000000       -0.76044300000000        0.00848300000000
H           88.07249700000000       -4.56008600000000        0.05586400000000
H           85.58631699999999       -4.46763600000000        0.05473900000000
H           83.74211900000000       -2.66332300000000        0.03223200000000
C          103.00718999999999       -0.00144800000000       -0.00101200000000
C          103.78722999999998        1.38608700000000       -0.01833700000000
C          103.23512499999998        2.65218800000000       -0.03416000000000
C          104.30374199999999        3.58481200000000       -0.04579300000000
C          105.47464900000000        2.86118400000000       -0.03673300000000
N          105.15595600000000        1.52815700000000       -0.02009100000000
C          106.90702100000000        3.47585100000000       -0.04438000000000
C          108.03264600000000        2.73779900000000       -0.03517200000000
C          109.31294400000000        3.40119700000000       -0.04342600000000
C          110.25739499999999        2.46622400000000       -0.03176400000000
N          108.26263600000000        1.39730800000000       -0.01846500000000
C          109.61436800000000        1.16375400000000       -0.01554000000000
C          110.31658200000000       -0.00144800000000       -0.00101200000000
C          109.53654200000000       -1.38898400000000        0.01627000000000
C          110.08864699999999       -2.65508700000000        0.03200600000000
C          109.02003000000001       -3.58771000000000        0.04364200000000
C          107.84912199999998       -2.86408100000000        0.03467000000000
N          108.16781500000000       -1.53105300000000        0.01806700000000
C          106.41674999999999       -3.47874800000000        0.04236200000000
C          105.29112499999999       -2.74069500000000        0.03316000000000
C          104.01082799999999       -3.40409200000000        0.04145800000000
C          103.06637700000000       -2.46912000000000        0.02979500000000
C          103.70940299999999       -1.16665000000000        0.01352600000000
N          105.06113499999999       -1.40020400000000        0.01642700000000
H          102.18192200000000        2.88741000000000       -0.03711500000000
H          104.22711200000001        4.66131200000000       -0.05924000000000
H          105.82076999999998        0.75754800000000       -0.01046400000000
H          106.98390999999998        4.55719000000000       -0.05785400000000
H          109.47009000000000        4.46474100000000       -0.05667800000000
H          111.31428799999999        2.66042700000000       -0.03417300000000
H          111.14184899999999       -2.89031000000000        0.03490000000000
H          109.09665900000000       -4.66421100000000        0.05703500000000
H          107.50300100000000       -0.76044300000000        0.00848300000000
H          106.33986200000000       -4.56008600000000        0.05586400000000
H          103.85368200000001       -4.46763600000000        0.05473900000000
H          102.00948300000000       -2.66332300000000        0.03223200000000
C          121.27455399999999       -0.00144800000000       -0.00101200000000
C          122.05459399999998        1.38608700000000       -0.01833700000000
C          121.50248900000000        2.65218800000000       -0.03416000000000
C          122.57110600000000        3.58481200000000       -0.04579300000000
C          123.74201400000000        2.86118400000000       -0.03673300000000
N          123.42332100000000        1.52815700000000       -0.02009100000000
C          125.17438600000000        3.47585100000000       -0.04438000000000
C          126.30001100000000        2.73779900000000       -0.03517200000000
C          127.58030900000000        3.40119700000000       -0.04342600000000
C          128.52475899999999        2.46622400000000       -0.03176400000000
N          126.53000100000000        1.39730800000000       -0.01846500000000
C          127.88173300000000        1.16375400000000       -0.01554000000000
C          128.58394600000000       -0.00144800000000       -0.00101200000000
C          127.80390599999998       -1.38898400000000        0.01627000000000
C          128.35601100000000       -2.65508700000000        0.03200600000000
C          127.28739400000001       -3.58771000000000        0.04364200000000
C          126.11648699999999       -2.86408100000000        0.03467000000000
N          126.43518000000000       -1.53105300000000        0.01806700000000
C          124.68411500000001       -3.47874800000000        0.04236200000000
C          123.55849000000001       -2.74069500000000        0.03316000000000
C          122.27819199999999       -3.40409200000000        0.04145800000000
C          121.33374200000000       -2.46912000000000        0.02979500000000
C          121.97676800000001       -1.16665000000000        0.01352600000000
N          123.32850000000001       -1.40020400000000        0.01642700000000
H          120.44928700000000        2.88741000000000       -0.03711500000000
H          122.49447700000000        4.66131200000000       -0.05924000000000
H          124.08813399999998        0.75754800000000       -0.01046400000000
H          125.25127399999998        4.55719000000000       -0.05785400000000
H          127.73745500000000        4.46474100000000       -0.05667800000000
H          129.58165299999999        2.66042700000000       -0.03417300000000
H          129.40921399999999       -2.89031000000000        0.03490000000000
H          127.36402400000000       -4.66421100000000        0.05703500000000
H          125.77036600000000       -0.76044300000000        0.00848300000000
H          124.60722600000000       -4.56008600000000        0.05586400000000
H          122.12104600000001       -4.46763600000000        0.05473900000000
H          120.27684800000000       -2.66332300000000        0.03223200000000
302
 energy: -529.887342838121 gnorm: 1.702029356561 xtb: 6.5.1 (b24c23e)
C           27.81674311367774       -0.01380797341257       -0.00166163366620
C           28.54224757231673       -1.37159699817831       -0.07253663228715
C           27.95939795642518       -2.62652384180479       -0.13804157492761
C           29.00699923160604       -3.57860011747700       -0.18774308471923
C           30.20693344974682       -2.88482025687341       -0.15153264494981
N           29.90671750184218       -1.54630546415141       -0.08165777253006
C           31.61802794870553       -3.49555242985389       -0.18342169398680
C           32.75485275296447       -2.75434207605616       -0.14472693779324
C           34.03835493624691       -3.41031868614763       -0.17897956603899
C           34.97727488821135       -2.46694230020990       -0.12972940180902
N           32.97171440841414       -1.41181509412284       -0.07463421243114
C           34.32364927476475       -1.16963964638361       -0.06199552922847
C           35.01054024123953        0.00936456215881       -0.00045945159720
C           34.24936412088476        1.38183556836278        0.07120333180255
C           34.80832964158342        2.65354608196134        0.13759917483323
C           33.75442222459802        3.59454705284900        0.18672232143461
C           32.56476779477199        2.88763579420964        0.14980760188086
N           32.87846575344057        1.54860307870154        0.07990122569399
C           31.15203668001332        3.50509384937574        0.18203492571053
C           30.02069439848514        2.75900592160767        0.14308374186530
C           28.71802832218600        3.38749466930839        0.17588649305184
C           27.80053138676091        2.42233043420344        0.12550249612725
C           28.49823712759356        1.15787721811546        0.05950117025214
N           29.83516915735274        1.41438412779005        0.07289413822576
H           26.72936732824914        0.00415336272928       -0.00072697349151
H           26.89773642403170       -2.82161565232706       -0.14822408336477
H           28.91037117998675       -4.65229732852793       -0.24379212344658
H           30.58646454591695       -0.79090311865111       -0.04222798046407
H           31.70652663309130       -4.57884739857978       -0.23998198341750
H           34.20203563337950       -4.47015549124810       -0.23431430032376
H           36.03387620674941       -2.65363099305965       -0.13948032563653
H           35.86441855876163        2.87622120838961        0.14922950025190
H           33.84002624801912        4.66934091430658        0.24283679740831
H           32.20037750043047        0.79105880279861        0.04035039601127
H           31.06071627000411        4.58785350038739        0.23855481285325
H           28.53349707724038        4.44345865549467        0.23100628330597
H           26.73486900723899        2.55034162587280        0.13218099826667
C          148.97228840930896        0.01076471391724       -0.00324961152266
C          148.24680937749037        1.34813411076900       -0.24782045457174
C          148.82963767587358        2.58434849716036       -0.47388980981188
C          147.78207550391707        3.52213268488752       -0.64539091616338
C          146.58207029592660        2.83873343040464       -0.52041858674020
N          146.88231394722663        1.52028128613881       -0.27930251657017
C          145.17104029574438        3.44032860723668       -0.63044466279836
C          144.03416638576854        2.71016519170190       -0.49691330552783
C          142.75067780757115        3.35635177327510       -0.61509447449099
C          141.81174626988800        2.42719202877439       -0.44516793586055
N          143.81728890102431        1.38773833898134       -0.25506146368043
C          142.46493800315758        1.14918994010931       -0.21143441545601
C          141.77818832262400       -0.01194207239843        0.00089747802963
C          142.53939798647215       -1.36410748791405        0.24819625388170
C          141.98068801064548       -2.61674232513811        0.47728048869600
C          143.03460249144177       -3.54357627542668        0.64677862997294
C          144.22428559700316       -2.84728576549515        0.51942964930857
N          143.91049851909776       -1.52817071549399        0.27818707009959
C          145.63697928076925       -3.45546747262429        0.63064697350382
C          146.76834954983386       -2.72054084897134        0.49624204859351
C          148.07102014822144       -3.33964634142709        0.60945685643628
C          148.98851128034599       -2.38893873395110        0.43559346626080
C          148.29077412138744       -1.14341801506653        0.20782208311905
N          146.95388174608624       -1.39608699694673        0.25403343615418
H          150.05967334102684       -0.00696493231155       -0.00001046069802
H          149.89130570527948        2.77649099727996       -0.50902670940917
H          147.87867353066153        4.57975642769497       -0.83880597285116
H          146.20258066862490        0.77618581731593       -0.14322838077065
H          145.08251480516540        4.50739820409655       -0.82559725022436
H          142.58700344745938        4.40032946705860       -0.80602355228452
H          140.75516536724967        2.61098113791681       -0.47878467871897
H          140.92462412291320       -2.83601324563477        0.51738642976993
H          142.94901464584348       -4.60228435678278        0.84040027280661
H          144.58867092835575       -0.78207201207066        0.14173834912461
H          145.72831923350375       -4.52202415122784        0.82569458051504
H          148.25554512083141       -4.37979691904341        0.79967196572142
H          150.05417327169704       -2.51502833764026        0.45864830407020
C           38.26796926596364        0.00743785008773        0.00516845296340
C           39.66965758892383       -0.01356477870100       -0.01226428335178
C           40.87652057684767       -0.03536225239922       -0.01404286268162
C           42.19739997215177       -0.04753593701807       -0.01621268319572
C           43.46746032494723       -0.03740300845551       -0.02097467324782
C           44.67906772054445       -0.01832856436341       -0.02711414044778