122
 energy: -221.481557921865 gnorm: 0.426406885329 xtb: 6.5.1 (b24c23e)
Cu          14.65681800000000       -0.01224800000000       -0.01498600000000
C           11.27111200000000        0.13007500000000        0.03289000000000
C           11.93660700000000        0.91987800000000        0.88041100000000
C           11.28900200000000        1.80540700000000        1.84114500000000
C           12.23351400000000        2.45338100000000        2.49783300000000
C           13.53803600000000        2.01481800000000        1.98244600000000
N           13.35639000000000        1.03730100000000        0.95778700000000
C           14.73140800000000        2.48824700000000        2.38871400000000
C           14.77282000000000        3.50212400000000        3.41892200000000
C           14.80984900000000        4.34734200000000        4.27766300000000
C           14.85475900000000        5.35565400000000        5.30244400000000
C           16.06035200000000        6.00081400000000        5.60172200000000
C           16.08220300000000        6.97739300000000        6.60106900000000
N           14.94115700000000        7.29260700000000        7.27192200000000
C           13.75864600000000        6.67808600000000        6.99745700000000
C           13.69321900000000        5.69607600000000        6.00539600000000
C           16.02630900000000        2.03331900000000        1.82294100000000
C           17.31762400000000        2.65303000000000        2.14386300000000
C           18.25397300000000        1.99096700000000        1.49590900000000
N           16.16672400000000        1.02941300000000        1.01146800000000
C           17.56853700000000        0.93788800000000        0.75554500000000
C           18.16457000000000       -0.00020200000000        0.00005600000000
C           17.40758200000000       -1.04744400000000       -0.72609600000000
C           17.96046400000000       -2.12832000000000       -1.26283000000000
C           16.91401700000000       -2.85053500000000       -1.95796700000000
C           15.78744000000000       -2.16466100000000       -1.80066100000000
N           16.00918900000000       -0.99204200000000       -1.01364900000000
C           14.48997400000000       -2.53574500000000       -2.41981500000000
C           14.48327800000000       -3.54596200000000       -3.45604400000000
C           14.47814100000000       -4.38769700000000       -4.31907000000000
C           14.47184200000000       -5.39203900000000       -5.34877100000000
C           15.66491900000000       -6.01627400000000       -5.72940700000000
C           15.63705300000000       -6.98889100000000       -6.73250800000000
N           14.46013200000000       -7.32080600000000       -7.32831600000000
C           13.28878300000000       -6.72707700000000       -6.97385100000000
C           13.27264800000000       -5.74947100000000       -5.97525900000000
C           13.32691100000000       -1.97317300000000       -2.04866500000000
C           12.00721800000000       -2.28966800000000       -2.59279800000000
C           11.14507100000000       -1.56192900000000       -1.90967300000000
C           11.90452900000000       -0.77867700000000       -0.93607100000000
N           13.17749800000000       -1.01126500000000       -1.00697600000000
H           10.18766700000000        0.15365700000000        0.05196000000000
H           10.22465300000000        1.92426100000000        1.99857200000000
H           12.05111800000000        3.18511400000000        3.27445800000000
H           16.97108300000000        5.75196800000000        5.06923800000000
H           17.00675200000000        7.48480400000000        6.84343800000000
H           12.86897700000000        6.95184600000000        7.54935000000000
H           12.74968800000000        5.20870100000000        5.78907100000000
H           17.49229600000000        3.50115500000000        2.79303400000000
H           19.31318100000000        2.20797000000000        1.53194500000000
H           19.00227900000000       -2.41542900000000       -1.21706100000000
H           17.03970200000000       -3.76679100000000       -2.52028800000000
H           16.60404400000000       -5.75438000000000       -5.25677500000000
H           16.55159700000000       -7.48002700000000       -7.03732200000000
H           12.36960800000000       -7.01378600000000       -7.46716600000000
H           12.33779200000000       -5.27860100000000       -5.69543100000000
H           11.75989900000000       -2.98338500000000       -3.38609700000000
H           10.07237000000000       -1.55850900000000       -2.05187600000000
Cu          31.12890600000000        0.01889000000000        0.00267100000000
C           34.51461200000000       -0.09525900000000       -0.09488900000000
C           33.84911600000000       -1.22803300000000       -0.33759000000000
C           34.49672200000000       -2.50710500000000       -0.60432200000000
C           33.55221000000000       -3.40330200000000       -0.82327700000000
C           32.24768700000000       -2.73586900000000       -0.71149400000000
N           32.42933300000000       -1.35471500000000       -0.39863800000000
C           31.05431600000000       -3.32755800000000       -0.90921500000000
C           31.01290300000000       -4.73213900000000       -1.25042700000000
C           30.97587400000000       -5.90299000000000       -1.53492400000000
C           30.93096500000000       -7.30005800000000       -1.87414600000000
C           29.72537200000000       -7.88809100000000       -2.27416600000000
C           29.70352100000000       -9.24704100000000       -2.59921200000000
N           30.84456600000000       -9.98456800000000       -2.52532900000000
C           32.02707700000000       -9.43355700000000       -2.13886400000000
C           32.09250400000000       -8.07807100000000       -1.80541700000000
C           29.75941500000000       -2.60848500000000       -0.80925500000000
C           28.46810000000000       -3.20202700000000       -1.17632500000000
C           27.53175000000000       -2.30609300000000       -0.94079600000000
N           29.61900000000000       -1.39673300000000       -0.36431100000000
C           28.21718600000000       -1.13012200000000       -0.41714800000000
C           27.62115400000000       -0.00020200000000        0.00005600000000
C           28.37814200000000        1.16057500000000        0.52599000000000
C           27.82526000000000        2.17606600000000        1.17802900000000
C           28.87170700000000        3.14337100000000        1.44095600000000
C           29.99828300000000        2.65627300000000        0.93311400000000
N           29.77653500000000        1.37890400000000        0.33082700000000
C           31.29574900000000        3.37811500000000        0.93371700000000
C           31.30244600000000        4.78598500000000        1.26869700000000
C           31.30758300000000        5.95872500000000        1.54800600000000
C           31.31388100000000        7.35797600000000        1.88129400000000
C           30.12080400000000        8.00508600000000        2.22159200000000
C           30.14867100000000        9.36522400000000        2.54131000000000
N           31.32559100000000       10.04692200000000        2.52028500000000
C           32.49694000000000        9.43793300000000        2.19273200000000
C           32.51307600000000        8.07910300000000        1.86641700000000
C           32.45881200000000        2.77080100000000        0.64146800000000
C           33.77850500000000        3.40023800000000        0.63373900000000
C           34.64065200000000        2.44040500000000        0.35990300000000
C           33.88119400000000        1.20279400000000        0.18754900000000
N           32.60822500000000        1.38304600000000        0.35074900000000
H           35.59805600000000       -0.12373100000000       -0.10533600000000
H           35.56107100000000       -2.70322000000000       -0.62550200000000
H           33.73460600000000       -4.44542300000000       -1.05254000000000
H           28.81464000000000       -7.30338000000000       -2.33397000000000
H           28.77897200000000       -9.71552100000000       -2.91023500000000
H           32.91674700000000      -10.04771400000000       -2.09047600000000
H           33.03603500000000       -7.64222700000000       -1.49821900000000
H           28.29342800000000       -4.19452300000000       -1.57090200000000
H           26.47254200000000       -2.44841900000000       -1.10852200000000
H           26.78344500000000        2.28417900000000        1.44791400000000
H           28.74602200000000        4.09631000000000        1.93858800000000
H           29.18167900000000        7.46504000000000        2.23947300000000
H           29.23412700000000        9.87893700000000        2.80630900000000
H           33.41611600000000       10.00846700000000        2.18552900000000
H           33.44793200000000        7.59723500000000        1.60598300000000
H           34.02582399999999        4.43715300000000        0.82181700000000
H           35.71335300000000        2.56068400000000        0.28396700000000
C           23.49678200000000        0.00110900000000        0.00848800000000
C           22.28784300000000       -0.01234600000000        0.00004100000000
C           20.86631400000000       -0.00352700000000       -0.01194200000000
C           19.65464400000000        0.00391200000000       -0.00107900000000
C           24.91338600000000       -0.00556600000000        0.00902100000000
C           26.13408200000000        0.00391200000000       -0.00107900000000
122
 energy: -221.570704113330 gnorm: 0.232047536036 xtb: 6.5.1 (b24c23e)
Cu          14.65869062289887       -0.00307016148528       -0.01261922364140
C           11.27075118523705        0.11536133557289        0.01702509396510
C           11.94067770419269        0.91955021801040        0.88071942011356
C           11.28976641915160        1.79964260857408        1.83462786068825
C           12.24706604944606        2.45525472985935        2.49926410010403
C           13.53592664405992        2.01144911835253        1.98092525393205
N           13.33149406870121        1.05487542138032        0.97990973798383
C           14.75270225125359        2.49214162000857        2.39147467779955
C           14.78393341786205        3.49757315182768        3.40856089690603
C           14.81319146068099        4.34587700423234        4.27778001516740
C           14.85444369479968        5.34821367637856        5.29472170970519
C           16.05314744759968        5.99953091608226        5.60296643134102
C           16.05817565264818        6.96822339878280        6.59893989583987
N           14.94104965124081        7.29171286470672        7.27099371920353
C           13.78201985558426        6.67502669150478        6.98700168107613
C           13.70022529235618        5.69691817868041        6.00349279102258
C           16.02203580866308        2.05106063198210        1.84016491728575
C           17.30066607954280        2.66611797111130        2.15785255255935
C           18.24841927562867        1.98602043617142        1.49444753810210
N           16.18497516597634        1.03982982710477        1.00757645396160
C           17.57214316656065        0.93960805419059        0.75555519790402
C           18.17390799782527       -0.01924996485553       -0.00728028295073
C           17.40826685312964       -1.03570151594621       -0.73084695386589
C           17.97062037580195       -2.15253396016769       -1.28491310358792
C           16.94638408065886       -2.85604579834177       -1.96186146592449
C           15.78684293914683       -2.14813520882056       -1.79964699290850
N           16.02426881507462       -1.00225546860561       -1.01097461156550
C           14.51452450028008       -2.52722658459248       -2.41446538140135
C           14.49997917698841       -3.53483030302414       -3.43927538902553
C           14.48486839853358       -4.38274879578532       -4.31250724810628
C           14.47234446250990       -5.38208276101447       -5.33839404572539
C           15.65757998905629       -6.01416214344603       -5.72886782466312
C           15.61309264758193       -6.97947084316642       -6.72793276568299
N           14.45998853365322       -7.31899626788828       -7.32646424440371
C           13.31273067471975       -6.72261226569310       -6.96402725942338
C           13.28019974734501       -5.74856529897111       -5.97255903603972
C           13.32633574723914       -1.96901686051466       -2.04771424208791
C           12.01625591274282       -2.28702267208552       -2.58732246067569
C           11.12929110901512       -1.55104654782835       -1.89844913754369
C           11.87843802828741       -0.77331981891312       -0.92920867959745
N           13.17136927242312       -1.01824175808086       -1.01978640934504
H           10.18780160572484        0.14469032465522        0.03988169364358
H           10.22521072714980        1.91160201020848        1.98532332026616
H           12.07525708929409        3.18686476414604        3.27581527732635
H           16.96662869942773        5.75312740392531        5.07193304372207
H           16.98260481084152        7.48337984413039        6.84925834080522
H           12.89322136087490        6.95652909175350        7.54686888838589
H           12.75414221444149        5.21085571266594        5.78996259314196
H           17.47273235795011        3.51076278252878        2.80413592454745
H           19.30879146411279        2.19271494078217        1.51995769021316
H           19.00851762736145       -2.43263058883408       -1.22551756774142
H           17.05557187204522       -3.77265316081835       -2.51871533976737
H           16.60002685487830       -5.75530459094616       -5.25865823862543
H           16.52711600074742       -7.47854972704905       -7.04112886762944
H           12.39396899026942       -7.01747040719843       -7.46567312769265
H           12.34195263847501       -5.27999255915304       -5.69601371743215
H           11.78281295982968       -2.98171038612559       -3.38253581981793
H           10.06107745888458       -1.54696559344069       -2.04056909554952
Cu          31.12694365695556        0.01209536198257       -0.00401667015551
C           34.51496909998691       -0.07409320890650       -0.09040731403547
C           33.84503503986173       -1.22812863210325       -0.33715092763775
C           34.49593492743608       -2.49855342638155       -0.60272240275922
C           33.53861584104762       -3.40548225336109       -0.82415041372052
C           32.24974169177367       -2.73280478096163       -0.70937728318518
N           32.45421458750558       -1.38270809462295       -0.40235645963927
C           31.03289669995836       -3.33182207153701       -0.91110196548568
C           31.00173175544821       -4.72084979404868       -1.25182626968860
C           30.97251698940794       -5.90229616806881       -1.53358932277021
C           30.93128201697711       -7.28958654658943       -1.87172210725008
C           29.73258026268939       -7.88849035540170       -2.27242372628578
C           29.72755047246844       -9.24049956041495       -2.59243408915815
N           30.84467458615740       -9.98330621249005       -2.52503694386909
C           32.00370262408545       -9.42300600646544       -2.14160461026567
C           32.08549658674742       -8.07685860043726       -1.80711550149693
C           29.76344942898674       -2.63223275463570       -0.81562611664863
C           28.48494753960239       -3.22077667129783       -1.18038233333180
C           27.53696589986984       -2.30248855215827       -0.93733390446883
N           29.60007281569029       -1.39848884409202       -0.37537529141812
C           28.21259244018983       -1.13108462136281       -0.41874360986812
C           27.61038656279808        0.01596058342455        0.01252798887945
C           28.37746966643257        1.15847990983632        0.51331168606503
C           27.81522726296554        2.20730414880857        1.18747767894950
C           28.83938982458588        3.14948415408112        1.44365916011028
C           29.99891096820108        2.64687704383784        0.91940723945950
N           29.76144637018799        1.38181932865497        0.34082810928411
C           31.27120411833629        3.36914236476081        0.92914353097071
C           31.28574679826171        4.76587247831345        1.26775566214799
C           31.30085098613769        5.95054573029082        1.54713718949455
C           31.31337816392035        7.34395827459619        1.87807235163307
C           30.12814353361866        8.00353860380173        2.22005484375006
C           30.17263128052281        9.35646122399542        2.53557418932078
N           31.32573487651084       10.04440354140399        2.51968203329991
C           32.47299256004501        9.42720936299407        2.19394316453972
C           32.50552369003217        8.07631988801506        1.86702452321057
C           32.45938918737968        2.76784178217525        0.63838201689985
C           33.76946452061707        3.39417487871797        0.63427741526623
C           34.65642782273690        2.42517926135382        0.35632508753185
C           33.90727552263238        1.19414988191829        0.18647112058622
N           32.61433714946085        1.39760488824932        0.35014661798409
H           35.59791900345920       -0.10876463222491       -0.10384167266692
H           35.56049464659656       -2.68535625789843       -0.62144158071970
H           33.71044042877046       -4.44747871754312       -1.05334470909375
H           28.81909482217662       -7.30628519475971       -2.33358066781477
H           28.80312134894165       -9.71978024860779       -2.90602335273252
H           32.89250099003278      -10.04798369306673       -2.09576774726071
H           33.03158222656649       -7.64409443510461       -1.49960905347506
H           28.31302838975835       -4.20902153171405       -1.57345617289790
H           26.47668644186601       -2.43049288114109       -1.10166540832559
H           26.77729703918165        2.30021461875218        1.45830807586619
H           28.73016578611947        4.09792221571049        1.94440309269278
H           29.18569648989433        7.46713058933399        2.23929969878817
H           29.25860788013694        9.88144538247302        2.80308699508850
H           33.39175472804838       10.00907666760959        2.18945696463990
H           33.44377121633072        7.59844902725069        1.60687785475434
H           34.00290813760655        4.43323226455652        0.82220750456183
H           35.72464237511778        2.54505009446918        0.27986516358575
C           23.51003220924667        0.00164440299399        0.00773306717687
C           22.27692149434746       -0.01297121546532        0.00042850852719
C           20.87365621448625       -0.01063935033707       -0.01786654435546
C           19.64417977558319       -0.01458059623332       -0.01493646503013
C           24.91135636775758        0.00099330714077        0.00606053608392
C           26.14108625133957        0.02853893141249        0.01381738207079
122
 energy: -221.615903855863 gnorm: 0.064754508205 xtb: 6.5.1 (b24c23e)
Cu          14.66921182872248        0.00713654916534       -0.01371127515835
C           11.27885782930782        0.10095128898609        0.00165347429781
C           11.94977817408235        0.92270166203653        0.88648913396692
C           11.29266440530064        1.79435762156057        1.82905034958263
C           12.26151116553304        2.45578044962958        2.50027536900339
C           13.52981547404091        2.00501212070311        1.97750828053354
N           13.30679193791910        1.07525855306534        1.00316319754830
C           14.77620479317624        2.49409279834331        2.38922806953464
C           14.79465180773464        3.49165147306309        3.39698993502487
C           14.81552881579959        4.33953300358742        4.26970784638873
C           14.85380118034863        5.33454757056619        5.28149968568035
C           16.04734844060567        5.99574292296000        5.60145265243936
C           16.03688478573667        6.95857345112706        6.59542917007169
N           14.94093618398879        7.29102229720767        7.27036184725430
C           13.80258486052378        6.67074517935862        6.97605056287464
C           13.70558074274240        5.69493661434126        5.99927154089045
C           16.01831270455764        2.06773770679549        1.85428035942612
C           17.28556543931525        2.67028475110829        2.16954224558498
C           18.23963844632705        1.97911767220135        1.49230697570801
N           16.20883177650632        1.04438919424998        0.99548998780968
C           17.57331163871077        0.94519201405368        0.75351510960273
C           18.19196405484714       -0.04085474042444       -0.02011773372713
C           17.41601464673180       -1.02441421812043       -0.73403750536490
C           17.98075107749990       -2.17734353434220       -1.31453863779975
C           16.98693881273774       -2.85428671302568       -1.96815742539339
C           15.79020808336413       -2.12990397838652       -1.79726270656597
N           16.05351249728573       -1.02070652560185       -1.00893140318699
C           14.54883888789541       -2.51633269887703       -2.40377493548585
C           14.52474961249076       -3.52362532716331       -3.41800378969547
C           14.49372507761050       -4.36934011046254       -4.29611813197242
C           14.47302109785576       -5.36409932154990       -5.31944472221158
C           15.65143900661931       -6.00815180330502       -5.72404796246579
C           15.59167258373636       -6.96797386256851       -6.72074642855759
N           14.45974634576801       -7.31618051355425       -7.32357514786917
C           13.33434875836639       -6.71509931654736       -6.95159007025028
C           13.28696698259334       -5.74309485672792       -5.96527434396576
C           13.32602036406123       -1.95826747839989       -2.04180349970816
C           12.02998651373898       -2.28039685120476       -2.57792200097200
C           11.12194083015959       -1.54390282954493       -1.88577165569977
C           11.85478858204357       -0.76630373109371       -0.92174198923515
N           13.17415517373673       -1.02487764908648       -1.03677700349719
H           10.19447659724278        0.14135988818830        0.02980953535572
H           10.22735639480723        1.89760456962114        1.97057361669988
H           12.10351514613155        3.18815965283666        3.27677361925067
H           16.96323336526077        5.75329564050437        5.07342952153577
H           16.95936415132482        7.48129908892547        6.85413754052282
H           12.91647558000646        6.96028680117047        7.54364195416600
H           12.75732500898889        5.21198416868427        5.78989259125335
H           17.45367656053533        3.51530006376219        2.81355655515290
H           19.30167548846485        2.17548874243572        1.50662331890973
H           19.01824305688559       -2.44772795477163       -1.23468136480007
H           17.06970177536817       -3.77632329189047       -2.51855065917044
H           16.59744122826580       -5.75464990195529       -5.25859693755472
H           16.50318634391327       -7.47509629890391       -7.04276392192213
H           12.41785985380771       -7.01846549375702       -7.46153193945401
H           12.34503703538062       -5.27914065150743       -5.69448392042040
H           11.81136391525856       -2.97664832740680       -3.37558205702471
H           10.05529207397116       -1.53829727903127       -2.02920181693018
Cu          31.11651241428107        0.00784333405489       -0.01333030005539
C           34.50685456280413       -0.05350862985844       -0.08593332429745
C           33.83590707595664       -1.23469836333730       -0.33689161034028
C           34.49299900150874       -2.49106014443853       -0.60105457712253
C           33.52413542440543       -3.40662436936564       -0.82408633276225
C           32.25581481601747       -2.72657342861782       -0.70561750319293
N           32.47888421229739       -1.41312628627852       -0.40789820091464
C           31.00935073556173       -3.33085649735707       -0.91396548203043
C           30.99095308019687       -4.70785927492929       -1.25264177652840
C           30.97014647424593       -5.89207106536939       -1.53229491771402
C           30.93192229585739       -7.27119620341833       -1.86677552508358
C           29.73838246021376       -7.88523209459374       -2.26994624245720
C           29.74884433713882       -9.23251948477845       -2.58595070818133
N           30.84479011991404       -9.98239720412093       -2.52476549769400
C           31.98313658932328       -9.41139291546982       -2.14354936344290
C           32.08013726433077       -8.07219918106214       -1.80757963432851
C           29.76716785636410       -2.65282839579923       -0.82278366841019
C           28.50001245113326       -3.23284048701947       -1.17804395161657
C           27.54568450443154       -2.29702599253808       -0.93246194325097
N           29.57638360784813       -1.39046854774799       -0.38544069983736
C           28.21157104353517       -1.13253499053468       -0.42378391794078
C           27.59331761878327        0.03685486298408        0.02708359600988
C           28.37036206248171        1.15504765587261        0.50280316813460
C           27.80528033430675        2.24545254590067        1.19353599191095
C           28.79887900997046        3.15405512394991        1.43888657863956
C           29.99564526118632        2.63560322166842        0.90496176205759
N           29.73250943815852        1.38963734363682        0.35776938766089
C           31.23694892577248        3.35444089388607        0.92526957679334
C           31.26101342325192        4.74190202976878        1.26907106161366
C           31.29199996154381        5.92962148786098        1.54405772316548
C           31.31270194916309        7.31848135160971        1.87236848859369
C           30.13428293713350        7.99632521255913        2.21736961171805
C           30.19404949267934        9.34439869174597        2.52939521056676
N           31.32597667903085       10.04048492386540        2.51874719895936
C           32.45137484680021        9.41268635739254        2.19387783768062
C           32.49875704246725        8.06726920556765        1.86606748717525
C           32.45975019375493        2.75728432309689        0.63218772554479
C           33.75577135527787        3.38271869028051        0.63341272902456
C           34.66380793093144        2.41063709188611        0.35669658044694
C           33.93095171039509        1.18415141780205        0.18428508827383
N           32.61159350331284        1.41562918120252        0.34714840445727
H           35.59123679682171       -0.09842368023009       -0.10616088692824
H           35.55831345443249       -2.66551768562880       -0.61700480427485
H           33.68216640756149       -4.44896579334101       -1.05396917885042
H           28.82248865569328       -7.30764963871377       -2.33295656826299
H           28.82636550638437       -9.72288788599436       -2.90172904541898
H           32.86924512051700      -10.04712825450939       -2.10064615073285
H           33.02840055729571       -7.64460354462848       -1.50061265960269
H           28.33201922908153       -4.21935181135569       -1.57257563899581
H           26.48368277856341       -2.41017804383625       -1.09364977499757
H           26.76771561740601        2.31568524333040        1.46651825140313
H           28.71600512990072        4.09970802759788        1.94760266470487
H           29.18828265936436        7.46674569847473        2.23876799507502
H           29.28253557832871        9.88108045053930        2.79928332741738
H           33.36786440082916       10.00603888543595        2.19243504169327
H           33.44068589666956        7.59670383891195        1.60693025694305
H           33.97438303837279        4.42467706331985        0.82142816627179
H           35.73045280113824        2.53084322794487        0.27825466009188
C           23.51445739223975        0.00390323249331        0.00493582869871
C           22.26992281342543       -0.01320836324613       -0.00567388057893
C           20.88422488724459       -0.01957951703199       -0.02188943493798
C           19.64416881690017       -0.04599229827209       -0.02483872658692
C           24.90133649228894        0.01413369264559        0.01349613140103
C           26.14067197004569        0.05243451512510        0.02881533524600
122
 energy: -221.626863459956 gnorm: 0.032446593097 xtb: 6.5.1 (b24c23e)
Cu          14.69274292393039        0.01473624834887       -0.02077748940045
C           11.28552211556955        0.10204099500011       -0.00101311768671
C           11.95567773995210        0.92685141820069        0.89167118405172
C           11.30008970256588        1.79430568386175        1.83107810942930
C           12.27528910082801        2.45604722846631        2.50310212776233
C           13.53399747774700        2.00116251986822        1.97565608191533
N           13.30819825274907        1.07727595566915        1.00607672886933
C           14.79152665536708        2.48989671002502        2.37996061217400
C           14.80623350524516        3.48964496405470        3.38232695587876
C           14.82150324905922        4.33294038696601        4.25814923159514
C           14.85562507660118        5.32412563653616        5.27050251384168
C           16.04660657396793        5.98830586663424        5.59523711648652
C           16.03294964158554        6.95064080326211        6.58920110166718
N           14.94036617017344        7.28637408250947        7.26582114761961