268
 energy: -410.315343913107 gnorm: 42.746959461050 xtb: 6.5.1 (b24c23e)
Fe          58.57434099999999        1.98275200000000        1.61350900000000
C           54.82324999999999        0.08926900000000       -0.04613100000000
C           55.47288300000000        0.94247000000000        0.75097700000000
C           54.80817600000000        1.86110900000000        1.66731800000000
C           55.73838099999999        2.57426800000000        2.27458200000000
C           57.05061199999999        2.15327800000000        1.76446700000000
N           56.88881400000000        1.10910200000000        0.80357600000000
C           58.23602500000000        2.68356700000000        2.13104700000000
C           58.26988800000000        3.79705000000000        3.10693800000000
C           57.78208600000000        5.06415600000000        2.75626800000000
C           57.83028500000000        6.11600900000000        3.67497700000000
C           58.37134199999999        5.92155800000000        4.95575800000000
N           58.40779700000000        7.02488000000000        5.87975200000000
C           58.94920900000000        6.92733500000000        7.23127400000000
C           58.86676300000000        4.64927900000000        5.30124600000000
C           58.81716100000000        3.59751100000000        4.38186200000000
C           59.53516399999999        2.20504800000000        1.58943400000000
C           60.81196700000000        2.89913000000000        1.79725100000000
C           61.75641999999999        2.18939500000000        1.21398000000000
N           59.69132299999999        1.11540900000000        0.90192800000000
C           61.08943000000000        1.03487600000000        0.62473200000000
C           61.69621200000000        0.02350300000000       -0.01749500000000
C           60.94559199999999       -1.10997300000000       -0.60198800000000
C           61.48732499999999       -2.27739800000000       -0.92537700000000
C           60.45525900000000       -3.06869200000000       -1.56679600000000
C           59.35229800000000       -2.32961700000000       -1.59709100000000
N           59.57196600000000       -1.05661300000000       -0.98741000000000
C           58.08174500000000       -2.74529400000000       -2.24471200000000
C           58.12029700000000       -3.84632100000000       -3.23792400000000
C           58.86601400000000       -3.70294400000000       -4.41658600000000
C           58.92304599999999       -4.74374500000000       -5.34793500000000
C           58.23715800000000       -5.95050700000000       -5.11071600000000
N           58.27589900000000       -7.04085600000000       -6.04990000000000
C           59.01262400000000       -6.99520900000000       -7.30861800000000
C           57.49958800000000       -6.09161200000000       -3.92474500000000
C           57.44388400000000       -5.05088600000000       -2.99389800000000
C           56.91298100000000       -2.14302300000000       -1.95233400000000
C           55.61260399999999       -2.43979400000000       -2.55088500000000
C           54.74030599999999       -1.66353800000000       -1.93732000000000
C           55.47505900000000       -0.86283500000000       -0.95940400000000
N           56.74194000000000       -1.13385300000000       -0.95929600000000
H           53.73965100000000        0.09224700000000       -0.02766100000000
H           53.74273500000000        1.95055400000000        1.83640100000000
H           55.53901700000000        3.33327300000000        3.01966500000000
H           57.36635799999999        5.23620400000000        1.77095200000000
H           57.44650200000000        7.08657000000000        3.38668800000000
H           58.02821800000000        7.95062300000000        5.57653900000000
H           60.02152300000000        6.64253400000000        7.18949900000000
H           58.37920800000000        6.17316400000000        7.81353300000000
H           58.86323800000000        7.90897000000000        7.74334600000000
H           59.29327500000000        4.46138300000000        6.27700500000000
H           59.20425899999999        2.62573600000000        4.66336800000000
H           60.97182300000000        3.82803300000000        2.32875000000000
H           62.80859399999999        2.44034400000000        1.19467400000000
H           62.51405299999999       -2.58015500000000       -0.76914200000000
H           60.57457700000000       -4.06625700000000       -1.96930600000000
H           59.40107600000000       -2.78221700000000       -4.61518600000000
H           59.50439900000000       -4.59872300000000       -6.24811700000000
H           57.75088200000000       -7.91738000000000       -5.82840200000000
H           58.62425300000000       -6.17210500000000       -7.94452400000000
H           58.88608799999999       -7.95411600000000       -7.85424700000000
H           60.09389200000000       -6.84171200000000       -7.10861500000000
H           56.96832700000000       -7.01246400000000       -3.71931600000000
H           56.87680499999999       -5.18430500000000       -2.08071500000000
H           55.38228900000000       -3.14542100000000       -3.33816100000000
H           53.67707900000000       -1.63180500000000       -2.13600900000000
Fe          89.93627499999998       -1.99570800000000       -1.57365000000000
C           93.68736699999999        0.03709900000000       -0.08792400000000
C           93.03773400000000       -0.92697000000000       -0.74663800000000
C           93.70244099999999       -2.02167700000000       -1.44319700000000
C           92.77223499999998       -2.76992000000000       -2.00666700000000
C           91.46000400000000       -2.18023700000000       -1.70712800000000
N           91.62180299999999       -1.01466000000000       -0.89777800000000
C           90.27459100000000       -2.65369200000000       -2.14465200000000
C           90.24072900000000       -3.84903000000000       -3.01836600000000
C           90.72853000000001       -3.78329100000000       -4.33145600000000
C           90.68033100000000       -4.90937700000000       -5.15750200000000
C           90.13927500000000       -6.11686700000000       -4.68827100000000
N           90.10281900000000       -7.25934100000000       -5.56339200000000
C           89.56140700000000       -8.55701200000000       -5.17329600000000
C           89.64385399999999       -6.17642000000000       -3.37126300000000
C           89.69345500000000       -5.04969400000000       -2.54544700000000
C           88.97545300000000       -2.02071800000000       -1.79584200000000
C           87.69864999999999       -2.37497500000000       -2.42785500000000
C           86.75419700000000       -1.65089500000000       -1.86249000000000
N           88.81929400000000       -1.11201800000000       -0.88247300000000
C           87.42118699999999       -0.82392900000000       -0.86436400000000
C           86.81440499999999        0.02350300000000       -0.01749500000000
C           87.56502500000001        0.84123600000000        0.96113300000000
C           87.02329199999998        1.41156400000000        2.02986500000000
C           88.05535799999998        2.21018700000000        2.66213500000000
C           89.15831799999999        2.07848700000000        1.93425900000000
N           88.93865099999999        1.20572800000000        0.82496000000000
C           90.42887200000000        2.80120300000000        2.19860900000000
C           90.39031900000001        4.01072600000000        3.05638700000000
C           89.64460300000000        5.12970400000000        2.65928200000000
C           89.58757100000000        6.26571300000000        3.47178400000000
C           90.27345900000000        6.29752500000000        4.70122900000000
N           90.23471800000000        7.45199200000000        5.56037500000000
C           89.49799299999999        8.67042000000000        5.24117700000000
C           91.01102800000000        5.17091900000000        5.09771200000000
C           91.06673300000000        4.03541700000000        4.28517400000000
C           91.59763599999999        2.38445600000000        1.67464700000000
C           92.89801199999999        3.03333900000000        1.83366300000000
C           93.77030999999999        2.26518000000000        1.20999100000000
C           93.03555700000000        1.13611500000000        0.64196200000000
N           91.76867600000000        1.19514500000000        0.90647300000000
H           94.77096500000000        0.01842500000000       -0.08680000000000
H           94.76788100000000       -2.20620300000000       -1.49359300000000
H           92.97160000000000       -3.66266400000000       -2.58480700000000
H           91.14425900000001       -2.85925700000000       -4.71435300000000
H           91.06411400000000       -4.83981000000000       -6.16758000000000
H           90.48239900000000       -7.16543000000000       -6.53298900000000
H           88.48909300000000       -8.45410100000000       -4.90447300000000
H           90.13140900000000       -8.96068300000000       -4.31025000000000
H           89.64737900000000       -9.27093800000000       -6.01954400000000
H           89.21734200000000       -7.08766900000000       -2.97498500000000
H           89.30635699999999       -5.11237700000000       -1.53566400000000
H           87.53879399999998       -3.09635300000000       -3.21840200000000
H           85.70202299999998       -1.68681100000000       -2.11160500000000
H           85.99656400000001        1.32515500000000        2.35941700000000
H           87.93603899999999        2.82066800000000        3.54783500000000
H           89.10954099999999        5.12261600000000        1.71740600000000
H           89.00621700000001        7.11256000000000        3.13383700000000
H           90.75973500000001        7.42708800000000        6.46411000000000
H           89.88636399999999        9.11140200000000        4.29915200000000
H           89.62452799999998        9.41213500000000        6.05792300000000
H           88.41672500000000        8.44174300000000        5.13502000000000
H           91.54228899999998        5.17137000000000        6.04120000000000
H           91.63381099999999        3.17334900000000        4.61463400000000
H           93.12832699999998        3.95561300000000        2.35050400000000
H           94.83353800000000        2.45215700000000        1.13566900000000
C           63.45023200000000        0.02350300000000       -0.01749500000000
C           64.67214900000000        0.02350300000000       -0.01749500000000
C           73.64434900000001        0.02350300000000       -0.01749500000000
C           74.86626699999999        0.02350300000000       -0.01749500000000
C           83.83846699999999        0.02350300000000       -0.01749500000000
C           85.06038500000000        0.02350300000000       -0.01749500000000
Fe          69.48801599999999       -2.02884600000000       -1.58914600000000
C           65.72436399999999       -0.02495000000000        0.01857200000000
C           66.38132600000000       -0.98352900000000       -0.65983800000000
C           65.73963900000000       -2.08945000000000       -1.37449400000000
C           66.67860800000000       -2.79990100000000       -1.96692000000000
C           67.97780600000000       -2.19254700000000       -1.66357200000000
N           67.79946200000001       -1.04405900000000       -0.83158600000000
C           69.16148399999999       -2.63458400000000       -2.13513000000000
C           69.18789099999999       -3.80665700000000       -3.03480600000000
C           69.27239000000000       -5.10014000000000       -2.50379800000000
C           69.30229400000000       -6.20794100000000       -3.35525900000000
C           69.25085099999998       -6.03983500000000       -4.74861200000000
N           69.28269500000000       -7.20064800000000       -5.59966300000000
C           69.23287800000000       -7.13323100000000       -7.05640800000000
C           69.16929500000001       -4.73594000000000       -5.27647100000000
C           69.13795599999999       -3.62878200000000       -4.42366000000000
C           70.46191000000000       -2.00403900000000       -1.79854300000000
C           71.73633799999999       -2.37670900000000       -2.42522800000000
C           72.68940300000000       -1.67095500000000       -1.85155600000000
N           70.62801600000000       -1.10822100000000       -0.87597500000000
C           72.03042100000000       -0.84299700000000       -0.84949400000000
C           72.64555100000000       -0.02495000000000        0.01857200000000
C           71.89680999999999        0.77741400000000        1.00945900000000
C           72.43402900000000        1.31924900000000        2.09517700000000
C           71.40099999999998        2.10798900000000        2.73756500000000
C           70.30306899999999        1.99673400000000        1.99863200000000
N           70.52569099999999        1.14980400000000        0.87198900000000
C           69.04360399999999        2.73645400000000        2.25306100000000
C           69.10179599999999        3.96274800000000        3.08511800000000
C           68.44200200000000        4.01661000000000        4.32169300000000
C           68.51230700000001        5.16899600000000        5.11000700000000
C           69.25026900000000        6.28647300000000        4.67415700000000
N           69.33994699999998        7.48905200000000        5.46069600000000
C           68.69561899999999        7.65295200000000        6.75963800000000
C           69.91619399999999        6.22215200000000        3.44022400000000
C           69.84673100000001        5.06908500000000        2.65383600000000
C           67.86898200000000        2.33003400000000        1.73409600000000
C           66.58897500000000        3.01722900000000        1.87048800000000
C           65.70023399999999        2.26066500000000        1.26036700000000
C           66.40101300000001        1.08824200000000        0.72494300000000
N           67.66923800000001        1.12435100000000        0.99571700000000
H           64.68194800000001       -2.30976800000000       -1.43180600000000
H           66.49387800000000       -3.67764900000000       -2.57277500000000
H           69.31408799999998       -5.24954800000000       -1.43154000000000
H           69.36572899999999       -7.20069800000000       -2.92715800000000
H           69.34485700000000       -8.14733300000000       -5.16135400000000
H           68.28975199999999       -6.64500500000000       -7.38084100000000
H           70.10549799999998       -6.56266300000000       -7.43863500000000
H           69.26597500000000       -8.15854200000000       -7.48223300000000
H           69.12981000000001       -4.56565000000000       -6.34372000000000
H           69.07663200000000       -2.63239400000000       -4.84470800000000
H           71.88984599999999       -3.10278200000000       -3.21248000000000
H           73.74282200000000       -1.72647900000000       -2.09120500000000
H           73.45778299999999        1.21982900000000        2.43005900000000
H           71.51781500000000        2.70489400000000        3.63270300000000
H           67.87592699999999        3.16368900000000        4.67597000000000
H           67.99080300000000        5.17849500000000        6.05712700000000
H           69.89248600000001        8.29493100000000        5.08949400000000
H           69.08446100000000        6.89604200000000        7.47271000000000
H           68.91193600000000        8.66473700000000        7.16329100000000
H           67.59623400000000        7.54286300000000        6.65265700000000
H           70.49234199999999        7.06798100000000        3.08618700000000
H           70.36931599999998        5.04007100000000        1.70540400000000
H           66.38292199999999        3.96041100000000        2.35903800000000
H           64.64714100000000        2.49152100000000        1.17497300000000
Fe          79.68213400000000       -2.02884600000000       -1.58914600000000
C           75.91848200000000       -0.02495000000000        0.01857200000000
C           76.57544400000000       -0.98352900000000       -0.65983800000000
C           75.93375700000000       -2.08945000000000       -1.37449400000000
C           76.87272600000000       -2.79990100000000       -1.96692000000000
C           78.17192400000000       -2.19254700000000       -1.66357200000000
N           77.99357999999998       -1.04405900000000       -0.83158600000000
C           79.35560199999999       -2.63458400000000       -2.13513000000000
C           79.38200900000000       -3.80665700000000       -3.03480600000000
C           79.46650800000000       -5.10014000000000       -2.50379800000000
C           79.49641200000001       -6.20794100000000       -3.35525900000000
C           79.44496900000000       -6.03983500000000       -4.74861200000000
N           79.47681299999999       -7.20064800000000       -5.59966300000000
C           79.42699599999999       -7.13323100000000       -7.05640800000000
C           79.36341299999999       -4.73594000000000       -5.27647100000000
C           79.33207400000001       -3.62878200000000       -4.42366000000000
C           80.65602800000001       -2.00403900000000       -1.79854300000000
C           81.93045600000001       -2.37670900000000       -2.42522800000000
C           82.88352100000000       -1.67095500000000       -1.85155600000000
N           80.82213400000001       -1.10822100000000       -0.87597500000000
C           82.22453899999999       -0.84299700000000       -0.84949400000000
C           82.83966800000000       -0.02495000000000        0.01857200000000
C           82.09092800000001        0.77741400000000        1.00945900000000
C           82.62814700000000        1.31924900000000        2.09517700000000
C           81.59511800000000        2.10798900000000        2.73756500000000
C           80.49718700000000        1.99673400000000        1.99863200000000
N           80.71980900000000        1.14980400000000        0.87198900000000
C           79.23772200000001        2.73645400000000        2.25306100000000
C           79.29591400000000        3.96274800000000        3.08511800000000
C           78.63612000000001        4.01661000000000        4.32169300000000
C           78.70642499999998        5.16899600000000        5.11000700000000
C           79.44438700000001        6.28647300000000        4.67415700000000
N           79.53406500000000        7.48905200000000        5.46069600000000
C           78.88973700000000        7.65295200000000        6.75963800000000
C           80.11031100000000        6.22215200000000        3.44022400000000
C           80.04084899999999        5.06908500000000        2.65383600000000
C           78.06309999999999        2.33003400000000        1.73409600000000
C           76.78309299999999        3.01722900000000        1.87048800000000
C           75.89435200000000        2.26066500000000        1.26036700000000
C           76.59513099999998        1.08824200000000        0.72494300000000
N           77.86335600000000        1.12435100000000        0.99571700000000
H           74.87606599999998       -2.30976800000000       -1.43180600000000
H           76.68799600000000       -3.67764900000000       -2.57277500000000
H           79.50820600000000       -5.24954800000000       -1.43154000000000
H           79.55984700000000       -7.20069800000000       -2.92715800000000
H           79.53897499999999       -8.14733300000000       -5.16135400000000
H           78.48386999999998       -6.64500500000000       -7.38084100000000
H           80.29961600000000       -6.56266300000000       -7.43863500000000
H           79.46009300000000       -8.15854200000000       -7.48223300000000
H           79.32392800000000       -4.56565000000000       -6.34372000000000
H           79.27075000000001       -2.63239400000000       -4.84470800000000
H           82.08396399999999       -3.10278200000000       -3.21248000000000
H           83.93694000000001       -1.72647900000000       -2.09120500000000
H           83.65190100000000        1.21982900000000        2.43005900000000
H           81.71193299999999        2.70489400000000        3.63270300000000
H           78.07004499999999        3.16368900000000        4.67597000000000
H           78.18492100000000        5.17849500000000        6.05712700000000
H           80.08660399999999        8.29493100000000        5.08949400000000
H           79.27857899999998        6.89604200000000        7.47271000000000
H           79.10605400000000        8.66473700000000        7.16329100000000
H           77.79035099999999        7.54286300000000        6.65265700000000
H           80.68646000000000        7.06798100000000        3.08618700000000
H           80.56343400000000        5.04007100000000        1.70540400000000
H           76.57704000000000        3.96041100000000        2.35903800000000
H           74.84125899999999        2.49152100000000        1.17497300000000
268
 energy: -431.971127810430 gnorm: 11.507290820896 xtb: 6.5.1 (b24c23e)
Fe          58.52779595366201        1.86148589571501        1.54269904503639
C           54.82331931702051        0.08876196656125       -0.04661707633168
C           55.47327575032831        0.94268297698670        0.75118813029117
C           54.80799860697149        1.86078611936376        1.66702357874786
C           55.73877887455443        2.57451116832243        2.27478519532116
C           57.04376149415260        2.15255573057629        1.76416910680038
N           56.88818631522945        1.10966807356089        0.80411987547230
C           58.18858835678648        2.78374973832802        2.20548490936640
C           58.26937471448541        3.79790698588275        3.10747607931504
C           57.78212217327112        5.06430832013982        2.75649870907327
C           57.83030277963502        6.11592024666546        3.67492308294058
C           58.37137040951693        5.92190024307831        4.95608935084782
N           58.40767993721859        7.02476638970028        5.87936504024446
C           58.94921421837073        6.92732260992013        7.23127764912574
C           58.86674191466579        4.64925408602776        5.30114389085375
C           58.81711879345453        3.59771594886180        4.38192137632385
C           59.63348393069803        2.22847357557118        1.58752796205178
C           60.81259362806089        2.89942804173242        1.79734873222879
C           61.75664359726881        2.18910610426250        1.21376938908451
N           59.69365322123048        1.11260460870014        0.89967321637297
C           61.08945640003854        1.03518529225696        0.62496859270822
C           61.69713907144705        0.02288183018960       -0.01780538220799
C           60.94523957173728       -1.10903570523360       -0.60181057022491
C           61.48739603823737       -2.27840959080685       -0.92581335657783
C           60.45629087600683       -3.06894491561085       -1.56662828216248
C           59.35149153670400       -2.32890392533429       -1.59709693999652
N           59.57227921594881       -1.05696266901256       -0.98749615599941
C           58.08228443993357       -2.74520304015408       -2.24455398933018
C           58.12035563872475       -3.84631498318959       -3.23787036739314
C           58.86597607714462       -3.70313260431619       -4.41660954555799
C           58.92298888181200       -4.74372826773668       -5.34783553214106
C           58.23719159623610       -5.95079240440494       -5.11100451308860
N           58.27574490980410       -7.04078125718705       -6.04956793075297
C           59.01262295956236       -6.99519917886782       -7.30860843996238
C           57.49961445916211       -6.09151223132408       -3.92471218250745
C           57.44392670165247       -5.05092267720700       -2.99407543973448
C           56.91268892175068       -2.14279770694545       -1.95216071972254
C           55.61292142992970       -2.43997407606004       -2.55100181993152
C           54.73994724479275       -1.66326111445940       -1.93710901119971
C           55.47453392558004       -0.86257336271969       -0.95920006962827
N           56.74216628420226       -1.13418899579225       -0.95958424013525
H           53.73964687126358        0.09224017500639       -0.02767927461333
H           53.74275165792594        1.95050438564316        1.83635810431283
H           55.53911437125645        3.33328398297928        3.01966185841673
H           57.36635238793522        5.23619314513094        1.77095224304038
H           57.44650341064239        7.08658565108304        3.38669766578439
H           58.02835210760001        7.95026397789586        5.57662073961517
H           60.02139870769957        6.64255457509522        7.18952790348117
H           58.37929480600416        6.17324487015968        7.81348208220442
H           58.86323560773177        7.90883336982116        7.74323681322300
H           59.29327672275742        4.46139720676305        6.27701674562169
H           59.20425406600420        2.62572076070601        4.66336777450327
H           60.97173426147518        3.82805383553624        2.32878088307464
H           62.80856913883086        2.44027136591240        1.19462491927039
H           62.51404215548590       -2.58017793971694       -0.76913820521350
H           60.57459873721518       -4.06625185144972       -1.96928155175754
H           59.40107079624359       -2.78221708793216       -4.61517753553947
H           59.50439909887137       -4.59873659901825       -6.24813474125520
H           57.75106842861741       -7.91703768948186       -5.82845623768961
H           58.62432225913324       -6.17219374400528       -7.94446626466544
H           58.88608695962255       -7.95398314298346       -7.85413889405347
H           60.09377517860244       -6.84171626996929       -7.10866354193173
H           56.96832787346624       -7.01248204057438       -3.71932421657460
H           56.87681034054454       -5.18429657084930       -2.08071318893377
H           55.38237127241167       -3.14542174125356       -3.33814719604072
H           53.67707199702141       -1.63175782681410       -2.13596421340853
Fe          89.98281146447580       -1.90015264547533       -1.47076192047396
C           93.68729623467956        0.03768858424358       -0.08753219378924
C           93.03734567986461       -0.92722730903237       -0.74680212779714
C           93.70262061311797       -2.02131264438909       -1.44294137803574
C           92.77182896412401       -2.77017290347335       -2.00686160358496
C           91.46687104023364       -2.17978717580935       -1.70648761235410
N           91.62242735994472       -1.01531832513610       -0.89821581793351
C           90.32202840539905       -2.74819132756096       -2.22617355998751
C           90.24124191175059       -3.84974365663326       -3.01908578241051
C           90.72849302446386       -3.78354905880043       -4.33155280883343
C           90.68031257308564       -4.90930643803059       -5.15742742939429
C           90.13924737221342       -6.11726090401517       -4.68852897090558
N           90.10293439473656       -7.25894168036541       -5.56336891533239
C           89.56140360494564       -8.55701209573145       -5.17328341340284
C           89.64387514998874       -6.17631586318399       -3.37126321940982
C           89.69349789224898       -5.04979408827062       -2.54563430737328
C           88.87712989094636       -2.02396391562987       -1.81911576190942
C           87.69803327396784       -2.37514293227452       -2.42813000749742
C           86.75397999061370       -1.65061577040075       -1.86224189445861
N           88.81696165981070       -1.10920876637562       -0.88023194883635
C           87.42115780668453       -0.82422789477591       -0.86462089871938
C           86.81348510220552        0.02394762728328       -0.01694857977480
C           87.56536063298834        0.84084819184931        0.96025516151999
C           87.02321449579622        1.41221074858798        2.03075853319828
C           88.05432403041108        2.21007464756770        2.66241810917402
C           89.15912651984154        2.07833788880531        1.93355886960747
N           88.93835411358937        1.20589126161729        0.82528166949627
C           90.42832948015509        2.80103485189595        2.19855803087328
C           90.39026067855724        4.01066962433610        3.05639115663807
C           89.64463779143149        5.12977140913338        2.65946143033439
C           89.58762757566572        6.26561060866380        3.47178594015982
C           90.27342457614695        6.29787503111001        4.70144967020722
N           90.23487353514429        7.45164682934585        5.56036944767595
C           89.49799152140172        8.67040974199690        5.24116923785428
C           91.01100276215433        5.17086264988680        5.09762127687447
C           91.06669289019543        4.03559932114157        4.28517262735458
C           91.59793252990804        2.38423354265246        1.67446292577067
C           92.89769330272701        3.03349180187273        1.83381322940790
C           93.77066908026264        2.26491259295737        1.20976633852302
C           93.03608899423693        1.13585824616750        0.64174908562190
N           91.76844466135502        1.19550134903938        0.90674046111008
H           94.77096907864548        0.01844419165813       -0.08679741623029
H           94.76786427069754       -2.20615022057812       -1.49355406765268
H           92.97150265416856       -3.66266340246656       -2.58481855334052
H           91.14426465139388       -2.85925517607343       -4.71434224415091
H           91.06411272337175       -4.83982305454978       -6.16759325593106
H           90.48226564213003       -7.16543174019195       -6.53262047922149
H           88.48921660443840       -8.45413397445413       -4.90448651885195