176
 energy: -301.132073597735 gnorm: 3.567025926877 xtb: 6.5.1 (b24c23e)
C           19.62789600000000       -0.01679000000000       -0.01427900000000
C           20.35585100000000        1.35881700000000        0.08169700000000
C           19.74809600000000        2.59334300000000        0.06324700000000
C           20.77045500000000        3.56237500000000        0.23548600000000
C           21.96766600000000        2.88469800000000        0.36143200000000
N           21.70839300000000        1.54537900000000        0.21207000000000
C           23.38922300000000        3.52131100000000        0.65340700000000
C           23.42599700000000        4.93582700000000        1.08594900000000
C           23.71337200000000        5.94760200000000        0.17129400000000
C           23.72491500000000        7.25508700000000        0.62501200000000
N           23.47086300000000        7.61958700000000        1.90389700000000
C           23.19665900000000        6.61107700000000        2.76491300000000
C           23.16124300000000        5.27330400000000        2.41163800000000
C           24.52043300000000        2.77283200000000        0.55439300000000
C           25.82477300000000        3.30996300000000        0.88510100000000
C           26.72763900000000        2.35056600000000        0.71925900000000
N           24.71728900000000        1.46929600000000        0.18319800000000
C           26.04896300000000        1.15399700000000        0.26235800000000
C           26.71688600000000       -0.00082300000000       -0.00035400000000
C           25.93742200000000       -1.27934100000000       -0.52447900000000
C           26.47197300000000       -2.31237000000000       -1.26914500000000
C           25.44650700000000       -3.26985700000000       -1.46969000000000
C           24.31230200000000       -2.78962700000000       -0.85037600000000
N           24.60607400000000       -1.55306800000000       -0.32614500000000
C           22.90639800000000       -3.51844900000000       -0.77302300000000
C           22.88188700000000       -4.98909300000000       -0.91732300000000
C           23.27850500000000       -5.80417300000000        0.14046500000000
C           23.25321700000000       -7.17568300000000       -0.04545100000000
N           22.86889700000000       -7.78240600000000       -1.19340900000000
C           22.49096100000000       -6.96043100000000       -2.20033500000000
C           22.48194800000000       -5.57900000000000       -2.11550600000000
C           21.77998900000000       -2.79097400000000       -0.55771000000000
C           20.46077500000000       -3.39070700000000       -0.45874500000000
C           19.57434700000000       -2.41941600000000       -0.26119000000000
C           20.29311400000000       -1.16997800000000       -0.21338600000000
N           21.61318800000000       -1.44526400000000       -0.38758800000000
H           18.55118700000000       -0.03085900000000        0.10568200000000
H           18.68984600000000        2.77521700000000       -0.04457500000000
H           20.64159700000000        4.63301700000000        0.28755900000000
H           22.40864699999999        0.80778400000000        0.20329900000000
H           23.92560000000000        5.70457300000000       -0.86428500000000
H           23.94738100000000        8.07116100000000       -0.05458600000000
H           22.99774900000000        6.91501000000000        3.78739000000000
H           22.93674499999999        4.50061400000000        3.13899600000000
H           26.03837400000000        4.30859100000000        1.22214700000000
H           27.78125600000000        2.46601800000000        0.89694500000000
H           27.49051600000000       -2.37934100000000       -1.62032700000000
H           25.52904900000000       -4.20602300000000       -2.00107500000000
H           23.92636400000000       -0.92181700000000        0.09005500000000
H           23.59577400000000       -5.36630000000000        1.08072700000000
H           23.55343800000000       -7.84426200000000        0.75474300000000
H           22.18307200000000       -7.45744000000000       -3.11436900000000
H           22.16932000000000       -4.96170800000000       -2.95096200000000
H           20.23199700000000       -4.43883500000000       -0.52824500000000
H           18.51228700000000       -2.53826000000000       -0.14524200000000
C           60.29596500000000        0.01975000000000       -0.00542000000000
C           59.56800900000000       -1.24705300000000       -0.55013800000000
C           60.17576400000000       -2.33603300000000       -1.13195900000000
C           59.15340499999999       -3.27634000000000       -1.42267000000000
C           57.95619400000000       -2.73160400000000       -1.00033100000000
N           58.21546799999999       -1.47260800000000       -0.51968900000000
C           56.53463699999999       -3.43124700000000       -1.03235200000000
C           56.49786400000000       -4.88678600000000       -1.29570100000000
C           56.21048900000000       -5.36728600000000       -2.57218100000000
C           56.19894500000000       -6.73737800000000       -2.76768500000000
N           56.45299800000000       -7.64713800000000       -1.79776400000000
C           56.72720200000000       -7.14497300000000       -0.57046100000000
C           56.76261699999999       -5.79395900000000       -0.27179700000000
C           55.40342800000000       -2.72053800000000       -0.77756200000000
C           54.09908700000000       -3.34948600000000       -0.72958900000000
C           53.19622200000000       -2.42067400000000       -0.43760500000000
N           55.20657199999999       -1.39175100000000       -0.51050900000000
C           53.87489699999999       -1.14772300000000       -0.29573000000000
C           53.20697400000000       -0.00082300000000       -0.00035400000000
C           53.98643900000000        1.37576700000000        0.11929500000000
C           53.45188700000000        2.63513900000000       -0.06954200000000
C           54.47735299999999        3.57814700000000        0.19071800000000
C           55.61155900000000        2.86759800000000        0.52130800000000
N           55.31778700000000        1.52825900000000        0.42097200000000
C           57.01746299999999        3.48005500000000        0.92387600000000
C           57.04197400000000        4.85347400000000        1.46916500000000
C           56.64535500000000        5.09356400000000        2.78279600000000
C           56.67064300000000        6.39791800000000        3.24568600000000
N           57.05496300000000        7.46303600000000        2.50309200000000
C           57.43289900000000        7.19352000000000        1.23151600000000
C           57.44191300000000        5.92664600000000        0.67422200000000
C           58.14387200000000        2.73475200000000        0.78209000000000
C           59.46308500000000        3.22255800000000        1.14474700000000
C           60.34951299999999        2.26864800000000        0.87550600000000
C           59.63074600000000        1.13606800000000        0.34575100000000
N           58.31067299999999        1.46056800000000        0.31697700000000
H           61.37267400000000       -0.02268700000000        0.10766300000000
H           61.23401500000000       -2.44832700000000       -1.31110700000000
H           59.28226400000000       -4.25193600000000       -1.86674000000000
H           57.51521400000000       -0.81290700000000       -0.18966400000000
H           55.99826000000000       -4.67694400000000       -3.38145000000000
H           55.97648000000000       -7.15156700000000       -3.74558000000000
H           56.92611200000000       -7.88345500000000        0.19926500000000
H           56.98711600000000       -5.44021100000000        0.72868400000000
H           53.88548699999999       -4.39158500000000       -0.88734900000000
H           52.14260400000000       -2.60468700000000       -0.33252900000000
H           52.43334400000000        2.85551600000000       -0.35105200000000
H           54.39481200000000        4.65372900000000        0.14711400000000
H           55.99749700000000        0.77648700000000        0.50183600000000
H           56.32808700000000        4.27367300000000        3.41809300000000
H           56.37042300000000        6.62575700000000        4.26323000000000
H           57.74078900000000        8.05396900000000        0.64662000000000
H           57.75454100000000        5.76054800000000       -0.35118000000000
H           59.69186299999999        4.18612200000000        1.56301400000000
H           61.41157400000000        2.32119000000000        1.03300900000000
C           32.82468400000000        0.00004700000000        0.00820000000000
C           31.61574500000000       -0.01340800000000       -0.00024700000000
C           30.19421600000000       -0.00458800000000       -0.01223000000000
C           28.98254600000000        0.00285000000000       -0.00136700000000
C           34.24128800000000       -0.00662800000000        0.00873400000000
C           35.46198400000000        0.00285000000000       -0.00136700000000
C           48.30669500000000        0.00004700000000        0.00820000000000
C           47.09775600000000       -0.01340800000000       -0.00024700000000
C           45.67622700000000       -0.00458800000000       -0.01223000000000
C           44.46455700000000        0.00285000000000       -0.00136700000000
C           49.72329900000000       -0.00662800000000        0.00873400000000
C           50.94399500000000        0.00285000000000       -0.00136700000000
C           36.38197700000000        0.00104300000000        0.00102400000000
C           37.17775800000000       -1.24445600000000        0.57213500000000
C           36.67736400000000       -2.23981500000000        1.38465500000000
C           37.71556500000000       -3.18565800000000        1.58539900000000
C           38.81904900000000       -2.73495500000000        0.89182100000000
N           38.50382300000000       -1.51739000000000        0.34451000000000
C           40.20762000000000       -3.48045700000000        0.74583600000000
C           40.20026400000000       -4.95713200000000        0.82393600000000
C           40.61791600000000       -5.60802000000000        1.98408200000000
C           40.57662200000000       -6.99141900000000        2.01001200000000
N           40.15210900000000       -7.75970200000000        0.97941300000000
C           39.75272700000000       -7.09478800000000       -0.13050900000000
C           39.75605300000000       -5.71597200000000       -0.25640700000000
C           41.34320499999999       -2.77116200000000        0.51660800000000
C           42.63022100000000       -3.40724700000000        0.32271000000000
C           43.53880500000000       -2.45941200000000        0.11872400000000
N           41.55142200000000       -1.42505800000000        0.40492900000000
C           42.87657200000000       -1.17205000000000        0.17159000000000
C           43.54028500000000        0.00104300000000        0.00102400000000
C           42.74316500000000        1.36752100000000        0.07003500000000
C           43.23616599999999        2.59089200000000        0.47362900000000
C           42.19832799999999        3.54291800000000        0.30405600000000
C           41.10225599999999        2.86860900000000       -0.19075800000000
N           41.42066200000000        1.53557000000000       -0.25740400000000
C           39.71707300000000        3.50559000000000       -0.61085300000000
C           39.72883400000000        4.89914400000000       -1.10414300000000
C           39.33290000000000        5.94838700000000       -0.27693500000000
C           39.37584900000000        7.23486900000000       -0.78539600000000
N           39.78181900000000        7.54491800000000       -2.03850100000000
C           40.16070300000000        6.50177900000000       -2.81385800000000
C           40.15463800000000        5.18091400000000       -2.40020300000000
C           38.58039400000000        2.76402300000000       -0.55541100000000
C           37.29422900000000        3.28257700000000       -0.97351600000000
C           36.38496299999999        2.32828000000000       -0.80732400000000
C           37.04609000000000        1.15333100000000       -0.27659800000000
N           38.37069000000000        1.47501400000000       -0.15248800000000
H           35.67395799999999       -2.29207500000000        1.77447300000000
H           37.65826500000000       -4.09919600000000        2.15485300000000
H           39.16271600000000       -0.89249400000000       -0.11292300000000
H           40.96768400000000       -5.03546100000000        2.83675400000000
H           40.89416800000000       -7.53438800000000        2.89343400000000
H           39.41545400000000       -7.72107400000000       -0.95031300000000
H           39.42502700000000       -5.23086200000000       -1.16783900000000
H           42.82740900000000       -4.46449700000000        0.33007000000000
H           44.58381100000000       -2.63768000000000       -0.05764000000000
H           44.23585300000000        2.78292800000000        0.83127000000000
H           42.25108400000000        4.60250600000000        0.50357000000000
H           40.76664699999999        0.78648200000000       -0.46459100000000
H           38.99809600000000        5.74990300000000        0.73532800000000
H           39.07376300000000        8.07861000000000       -0.17393000000000
H           40.48277000000000        6.76213400000000       -3.81632200000000
H           40.46884000000000        4.37986500000000       -3.06035900000000
H           37.09798800000000        4.26640300000000       -1.36121300000000
H           35.33987700000000        2.42903800000000       -1.03658400000000
176
 energy: -302.086056437500 gnorm: 0.619148420524 xtb: 6.5.1 (b24c23e)
C           19.63545735884312       -0.00298443720991       -0.01322457135875
C           20.35232661334513        1.34872571994702        0.08075662003922
C           19.74959860888689        2.59679509885421        0.06430917589664
C           20.76766263945230        3.56142396665376        0.23600828907072
C           21.97755153851358        2.88749686410636        0.36289110797895
N           21.70855661237345        1.54527335528646        0.21254836043867
C           23.37592887197859        3.51384488218373        0.65034487002880
C           23.42449598634136        4.93329051144385        1.08464231114640
C           23.71331400820403        5.94767151903885        0.17253656167735
C           23.72460576507696        7.25633042193623        0.62726760296440
N           23.47078006388202        7.61456861487496        1.90239986178738
C           23.19717883553663        6.61335050896144        2.76373960513854
C           23.16130822194064        5.27407531286176        2.41061122482287
C           24.52332513626692        2.77000751799478        0.55418363352765
C           25.82546319096276        3.31280793974768        0.88604261069020
C           26.73093420095579        2.35126834392767        0.71974158958374
N           24.71453650613884        1.46614705976348        0.18266060440255
C           26.05158571251031        1.15467520898246        0.26305905343638
C           26.71731725897379       -0.01147948765777       -0.00648592764551
C           25.94414980503356       -1.26990619517170       -0.52124320580344
C           26.47127961452144       -2.31527722952808       -1.26915890920488
C           25.44923636916143       -3.26897095877271       -1.46901854054379
C           24.30296038670570       -2.79272681814875       -0.84938251441267
N           24.60665648853711       -1.55284468414945       -0.32532506939559
C           22.91909185005769       -3.51055177889665       -0.77326922115605
C           22.88349506492614       -4.98621125171275       -0.91783412698800
C           23.27841896337343       -5.80455868812339        0.13925869937583
C           23.25251227365635       -7.17731931280415       -0.04731654357290
N           22.86895842196182       -7.77720514762848       -1.19285413171936
C           22.49144764727922       -6.96239883086474       -2.19878273688841
C           22.48199508663257       -5.57953248461071       -2.11442299587709
C           21.77736690202224       -2.78877227637423       -0.55662101706677
C           20.45996681332344       -3.39399706664952       -0.45910682525835
C           19.57171802793549       -2.42106503504769       -0.26104680910832
C           20.29528780002724       -1.17264615273009       -0.21344910160013
N           21.61664478091981       -1.44274083615436       -0.38746354925305
H           18.55313508271318       -0.02890304254982        0.10521158773096
H           18.69037543536385        2.77574651692401       -0.04452652838936
H           20.64128248971749        4.63262952159218        0.28746872107283
H           22.40827696861883        0.80824064958265        0.20335671226761
H           23.92545483641338        5.70497275265411       -0.86383576556222
H           23.94733838910594        8.07134559014336       -0.05448851800513
H           22.99776732424775        6.91521522951445        3.78739566841017
H           22.93678400077981        4.50118884576893        3.13882116533368
H           26.03768043026079        4.30999451567081        1.22244033078805
H           27.78286447074039        2.46488674951252        0.89677745397953
H           27.49016314452185       -2.37966135833010       -1.62021315687950
H           25.52941058480171       -4.20556705965642       -2.00090498418187
H           23.92690381710237       -0.92221469263360        0.08987895236320
H           23.59569834218802       -5.36675184962814        1.08035828612756
H           23.55340441835537       -7.84444818709429        0.75467475148214
H           22.18312293469961       -7.45764208092136       -3.11436120052746
H           22.16950834417528       -4.96224794796148       -2.95072353709478
H           20.23262482579096       -4.44038786836367       -0.52855474050765
H           18.51100358524541       -2.53789276788462       -0.14509278116334
C           60.28840476410890        0.00699737087585       -0.01080444662118
C           59.57153376136029       -1.23765487279870       -0.54635394012579
C           60.17426234127721       -2.33958467889230       -1.13259474734488
C           59.15619315696937       -3.27573446146261       -1.42177031276787
C           57.94631395838516       -2.73476011904087       -1.00031604755285
N           58.21530479360653       -1.47273418604328       -0.51921499247264
C           56.54792275614741       -3.42320579936051       -1.03165262487714
C           56.49936453650438       -4.88393213566927       -1.29570048619528
C           56.21054708064187       -5.36791711712264       -2.57110823910398
C           56.19925447623518       -6.73951620573870       -2.76624916450004
N           56.45308070011312       -7.64199160184262       -1.79679674724910
C           56.72668233980477       -7.14645647111754       -0.57254519180940
C           56.76255168661750       -5.79417452219602       -0.27306329019818
C           55.40053781932936       -2.71793608914664       -0.77645713863911
C           54.09839793506805       -3.35244689033767       -0.73005547348675
C           53.19292345445912       -2.42152141602889       -0.43749563170574
N           55.20930740331480       -1.38869086137543       -0.50954464509834
C           53.87225652697725       -1.14865050368467       -0.29541329382513
C           53.20646025674322        0.01150394172687       -0.00084610114654
C           53.97971472316028        1.36591682500068        0.11784080350367
C           53.45258089975803        2.63772652895070       -0.06822427927495
C           54.47462941987718        3.57705301960836        0.19091035562498
C           55.62089603249109        2.86990186545758        0.52360847425252
N           55.31720276664881        1.52768228240183        0.42159280697220
C           57.00477266416952        3.47314858619773        0.92004158202040
C           57.04036626715749        4.85114557914435        1.46739148371351
C           56.64544098039249        5.09445977502245        2.78190051948346
C           56.67134750426894        6.40022694287225        3.24477661030057
N           57.05490212418923        7.45815854182092        2.50120351880440
C           57.43241209362347        7.19455837498153        1.23379711170990
C           57.44186603470143        5.92662309615305        0.67542862083423
C           58.14649304905202        2.73229821180135        0.78204958060577
C           59.46389335073649        3.22564841439698        1.14593213666520
C           60.35214203031812        2.27004864828306        0.87638863317167
C           59.62857311480573        1.13846813960921        0.34691643793584
N           58.30721587430041        1.45826686659153        0.31593175022079
H           61.37072609236148       -0.02421022014150        0.10634924325994
H           61.23348558301268       -2.44881971031519       -1.31130631035888
H           59.28257822358259       -4.25155045602246       -1.86664270212626
H           57.51558421106564       -0.81333931986336       -0.18982180224939
H           55.99840518660309       -4.67750508176705       -3.38123372228065
H           55.97652257305097       -7.15177585841298       -3.74557809893757
H           56.92609368043365       -7.88364015877366        0.19917605455117
H           56.98707696756421       -5.44064196818218        0.72826513376391
H           53.88618033296211       -4.39296730239878       -0.88773110279206
H           52.14099514707551       -2.60360661478724       -0.33216017713335
H           52.43369594957534        2.85574692897853       -0.35080312427135
H           54.39445050681347        4.65324568727741        0.14705674714525
H           55.99695697922716        0.77692095383387        0.50186149485710
H           56.32816256242134        4.27424345708293        3.41797225028008
H           56.37045650890366        6.62595378999841        4.26325476566956
H           57.74073795732198        8.05414500803585        0.64671949364919
H           57.75435259669543        5.76091878419625       -0.35072063739147
H           59.69123524091564        4.18764434449523        1.56344987842546
H           61.41285743019435        2.32079522618685        1.03297345188257
C           32.82720015107317        0.00026404856460        0.00800446574079
C           31.60510937850518       -0.01316965282942       -0.00033257557328
C           30.19486429259362       -0.00471874413054       -0.01199439377506
C           28.96942919131512        0.00250344140401       -0.00158100907854
C           34.18295687014103       -0.00793334749051        0.00910837525598
C           35.31558216442799       -0.00673388074198       -0.00153937701735
C           48.31726912188979       -0.00014838396640        0.00819378512986
C           47.09516154486147       -0.01348030234985       -0.00023300917625
C           45.73664107975409       -0.00417008143489       -0.01296484617947
C           44.60610510632575        0.01267916114535       -0.00491568754853
C           49.72486831681976       -0.00639896417140        0.00869583157383
C           50.95497444668484        0.00301563287974       -0.00134278369366
C           36.54221867940805       -0.00734345039751        0.00697413607611
C           37.19007257442493       -1.24419067620450        0.57326582084093
C           36.67837014079294       -2.24146780258748        1.38392440777420
C           37.71381775386782       -3.18535302785484        1.58430819215854
C           38.82779419451555       -2.73909564649775        0.89140681910177
N           38.50655822534322       -1.51964700670188        0.34388077232607
C           40.19653220812008       -3.47281480471733        0.74656470944159
C           40.19893239842965       -4.95428172465523        0.82462446600314
C           40.61778885615568       -5.60850151640187        1.98299789394100
C           40.57598719983974       -6.99325135871787        2.00835238401520
N           40.15215924810163       -7.75447702769705        0.97908713188932
C           39.75344198083548       -7.09649621414647       -0.12873302844865
C           39.75616855349007       -5.71643784836921       -0.25520182400808
C           41.34496553831045       -2.77185030770283        0.51607232849580
C           42.63043653732560       -3.41118284256759        0.32301366629955
C           43.54084502785152       -2.45869828132599        0.11835130578985
N           41.54563499815372       -1.42424235560573        0.40526086846531
C           42.84528300138550       -1.18884918154638        0.17339929630842
C           43.38234458422795        0.01072099390366        0.00376566422027
C           42.73106062363171        1.36757853025763        0.07125770730699
C           43.23527812041308        2.59214383840794        0.47231307896561
C           42.20010541680499        3.54235549036830        0.30320335434440
C           41.09358197151686        2.87224447477074       -0.19276935503157
N           41.41807603085500        1.53759398050271       -0.25871548308976
C           39.72805001546067        3.49872082331926       -0.60732868784842
C           39.73015004990448        4.89676626564709       -1.10245806783373
C           39.33301769968304        5.94844772771648       -0.27808667139596
C           39.37641683733941        7.23602458593241       -0.78759101841364
N           39.78175729571867        7.54001867412794       -2.03681480529713
C           40.16003038317515        6.50403593162455       -2.81285803100964
C           40.15452077229020        5.18173809733696       -2.39927130365385
C           38.57866767114440        2.76452709980358       -0.55619128749071
C           37.29402809530945        3.28635588647863       -0.97471261224004
C           36.38289490583482        2.32742041584613       -0.80738839714619
C           37.07777369767824        1.16973643774272       -0.28121443821673
N           38.37652469159685        1.47438608673520       -0.15189268455275
H           35.67411350311318       -2.29208216118103        1.77430920455893
H           37.65781759855746       -4.09896913303548        2.15475115379586
H           39.16239241041698       -0.89305481726857       -0.11267533715724
H           40.96747664421290       -5.03599322983749        2.83646416540693
H           40.89415263295300       -7.53461671061779        2.89345499451489
H           39.41549596967955       -7.72122545770416       -0.95022973196522
H           39.42508601931630       -5.23130618735010       -1.16753587443697
H           42.82686707856499       -4.46597787083476        0.33030984806582
H           44.58517052460247       -2.63626331430757       -0.05798296708966
H           44.23555338182931        2.78284513794084        0.83105864717374
H           42.25150803234662        4.60207689296352        0.50354046464570
H           40.76691322042550        0.78704038469835       -0.46455545639922
H           38.99827020768336        5.75027867602396        0.73491696220938
H           39.07379272952008        8.07879672968910       -0.17400149840753
H           40.48276623951281        6.76233262108932       -3.81639539512454
H           40.46877626778453        4.38041325074084       -3.06023313683401
H           37.09852926427273        4.26785897814183       -1.36155453398697
H           35.33850537368608        2.42757275801806       -1.03637746288058
176
 energy: -302.277461880948 gnorm: 0.385176421888 xtb: 6.5.1 (b24c23e)
C           19.66419706167076        0.02876387096863       -0.01126542673165
C           20.35145238178185        1.33410103558589        0.07920265610666
C           19.75587788249296        2.60086394535661        0.07019394305414
C           20.76638394324813        3.55717736630503        0.24166216826600
C           21.99431573423892        2.88812830369016        0.36455349277919
N           21.71048613736117        1.54397570202059        0.21470376767471
C           23.34533160100855        3.48534508841876        0.64065673327124
C           23.41140076326227        4.91795486009422        1.07678412214134
C           23.71191476776522        5.94308792731207        0.17606549673301
C           23.72478469725688        7.25420648330066        0.63081146275753
N           23.47050153171497        7.60144242246238        1.89838130141012
C           23.19883179935454        6.61357284356927        2.75996610387405
C           23.15987553499658        5.27279170939508        2.40445120917771
C           24.52503962439985        2.75584613566924        0.55322888277991
C           25.82703415444015        3.31643878980158        0.88772868163947
C           26.74148512246226        2.35211269237671        0.72047769131007
N           24.71632923087343        1.45038046943090        0.18356115727271
C           26.06500891424265        1.14786369608977        0.26240908288965
C           26.72480190835669       -0.03584973842689       -0.03116381242356
C           25.96092531912919       -1.25222003340056       -0.51645935231850
C           26.47176411463765       -2.32061413149547       -1.26320411401560
C           25.45350263714646       -3.26589013949244       -1.46121429244579
C           24.29068675478533       -2.79113788965900       -0.84562292042249
N           24.61421698531791       -1.54929371591596       -0.32073113888360
C           22.95136229463296       -3.48278876876334       -0.77238163261058
C           22.89788201814179       -4.96980316535919       -0.92104839143446
C           23.28000850686825       -5.80151190313260        0.13401011247215
C           23.25042740364808       -7.17632154504293       -0.05052380944508
N           22.86920209690581       -7.76357066745421       -1.19155130363752