115
 energy: -209.283363272788 gnorm: 5.470427961317 xtb: 6.5.1 (b24c23e)
Ni          15.38527200000000        0.02991000000000        0.03061100000000
C           12.01161500000000       -0.07972200000000       -0.07944200000000
C           12.68452100000000       -0.89450500000000       -0.89789300000000
C           12.05582000000000       -1.82492900000000       -1.83242100000000
C           13.01664300000000       -2.46623400000000       -2.47660300000000
C           14.29976500000000       -1.97252500000000       -1.98074900000000
N           14.10557900000000       -0.97696400000000       -0.98077100000000
C           15.48800300000000       -2.40339700000000       -2.41350900000000
C           16.78768800000000       -1.91197900000000       -1.91986300000000
C           18.06737000000000       -2.41017200000000       -2.41998700000000
C           19.02312000000000       -1.76893300000000       -1.77587600000000
N           16.94130600000000       -1.00304100000000       -1.00704300000000
C           18.35259400000000       -0.85319300000000       -0.85635300000000
C           18.96132400000000       -0.00678100000000       -0.00625300000000
C           18.21351000000000        0.89915000000000        0.90348500000000
C           18.78491500000000        1.74613400000000        1.75408400000000
C           17.72282400000000        2.44349300000000        2.45448300000000
C           16.57646600000000        1.97737100000000        1.98639100000000
N           16.78894000000000        0.98075300000000        0.98546700000000
C           15.26117200000000        2.44777800000000        2.45897300000000
C           14.09429800000000        1.99035700000000        1.99964100000000
C           12.78648200000000        2.43966100000000        2.45112500000000
C           11.90545500000000        1.74502500000000        1.75351000000000
C           12.65236300000000        0.85623500000000        0.86064000000000
N           13.93371200000000        0.99301500000000        0.99785900000000
H           10.92850400000000       -0.10224600000000       -0.10199400000000
H           10.99440300000000       -1.97464100000000       -1.98274800000000
H           12.86297800000000       -3.22220700000000       -3.23590600000000
H           15.50770100000000       -3.16788200000000       -3.18135000000000
H           18.21825000000000       -3.16630300000000       -3.17928200000000
H           20.08479300000000       -1.91571800000000       -1.92307500000000
H           19.84454600000000        1.89838600000000        1.90697900000000
H           17.84263200000000        3.20260200000000        3.21689700000000
H           15.24454100000000        3.21266700000000        3.22726200000000
H           12.56274300000000        3.18674000000000        3.20159300000000
H           10.82979700000000        1.82798100000000        1.83700800000000
Ni          43.89438700000000       -0.05872800000000       -0.00366700000000
C           47.26804499999999        0.09642400000000       -0.01132400000000
C           46.59513900000000        1.24987500000000       -0.06863900000000
C           47.22383900000000        2.56697600000000       -0.13402500000000
C           46.26301700000000        3.47483600000000       -0.17912900000000
C           44.97989499999999        2.77596600000000       -0.14445800000000
N           45.17408000000000        1.36664000000000       -0.07447400000000
C           43.79165600000000        3.38589800000000       -0.17472800000000
C           42.49197199999999        2.69020900000000       -0.14014900000000
C           41.21229000000000        3.39526800000000       -0.17496200000000
C           40.25653999999999        2.48750600000000       -0.12986600000000
N           42.33835400000000        1.40360900000000       -0.07636600000000
C           40.92706600000000        1.19136400000000       -0.06570200000000
C           40.31833499999999       -0.00678100000000       -0.00625300000000
C           41.06615000000000       -1.28908300000000        0.05727300000000
C           40.49474499999999       -2.48798600000000        0.11670500000000
C           41.55683600000000       -3.47513800000000        0.16568600000000
C           42.70319300000000       -2.81535800000000        0.13299300000000
N           42.49072000000000       -1.40461300000000        0.06302100000000
C           44.01848800000000       -3.48132900000000        0.16612500000000
C           45.18536199999999       -2.83387900000000        0.13405800000000
C           46.49317800000000       -3.47004300000000        0.16578000000000
C           47.37420500000000       -2.48678000000000        0.11702700000000
C           46.62729600000000       -1.22850700000000        0.05444800000000
N           45.34594700000000       -1.42202100000000        0.06393900000000
H           48.35115600000000        0.12826100000000       -0.01285400000000
H           48.28525700000000        2.77887700000000       -0.14451300000000
H           46.41668199999999        4.54498300000000       -0.23225200000000
H           43.77195900000000        4.46808600000000       -0.22844100000000
H           41.06141000000000        4.46552700000000       -0.22797400000000
H           39.19486700000000        2.69513600000000       -0.14001000000000
H           39.43511300000000       -2.70349400000000        0.12738400000000
H           41.43702700000000       -4.54969800000000        0.21900100000000
H           44.03511799999999       -4.56411800000000        0.21989700000000
H           46.71691700000000       -4.52766600000000        0.21835100000000
H           48.44986300000000       -2.60432900000000        0.12298700000000
C           22.51157900000000        0.00704700000000       -0.00341800000000
C           21.25930899999999       -0.01213400000000       -0.00776700000000
C           23.82524700000000        0.00628100000000       -0.00148600000000
C           25.32838100000000       -0.01213400000000       -0.00776700000000
C           35.27498700000000        0.00704700000000       -0.00341800000000
C           34.02271600000000       -0.01213400000000       -0.00776700000000
C           36.58865500000000        0.00628100000000       -0.00148600000000
C           38.09178799999999       -0.01213400000000       -0.00776700000000
Ni          29.60189900000000       -0.03749900000000       -0.03357500000000
C           26.16844700000000        0.01672300000000        0.01463900000000
C           26.83498000000000        0.89015600000000        0.79186900000000
C           26.21066700000000        1.88214700000000        1.67455800000000
C           27.16903900000000        2.56071400000000        2.27843600000000
C           28.45024800000000        2.04048500000000        1.81556900000000
N           28.25815700000000        0.98490700000000        0.87625400000000
C           29.63263300000000        2.50553700000000        2.22944400000000
C           30.94230800000000        2.00235000000000        1.78171100000000
C           32.20895100000000        2.54727700000000        2.26672000000000
C           33.18113100000000        1.88184500000000        1.67455300000000
N           31.11828500000000        1.04290800000000        0.92785700000000
C           32.53350000000000        0.90418700000000        0.80445500000000
C           33.16254900000000        0.01672300000000        0.01463900000000
C           32.43262600000000       -0.94881300000000       -0.84466700000000
C           33.01936900000000       -1.83961200000000       -1.63754000000000
C           31.96929800000000       -2.58693700000000       -2.30254700000000
C           30.81511800000000       -2.10354600000000       -1.87221300000000
N           31.00942900000000       -1.04741600000000       -0.93228100000000
C           29.51004000000000       -2.61353100000000       -2.32588700000000
C           28.33085700000000       -2.14586000000000       -1.90963600000000
C           27.04374500000000       -2.64780700000000       -2.35616600000000
C           26.13717600000000       -1.93217200000000       -1.71937100000000
C           26.84486600000000       -0.96976500000000       -0.86311300000000
N           28.13237100000000       -1.09184800000000       -0.97181800000000
H           25.15329699999999        2.05287100000000        1.82642400000000
H           27.01377500000000        3.36104600000000        2.99060900000000
H           29.63904200000000        3.31520200000000        2.94993900000000
H           32.34009600000000        3.34969700000000        2.98084000000000
H           34.23893500000000        2.05123600000000        1.82534100000000
H           34.08167400000000       -1.99071300000000       -1.77211700000000
H           32.10188900000000       -3.38951700000000       -3.01682100000000
H           29.51156900000000       -3.42364600000000       -3.04674800000000
H           26.84924500000000       -3.44327600000000       -3.06393500000000
H           25.06781400000000       -2.05314600000000       -1.82694400000000
115
 energy: -210.841214610472 gnorm: 0.784439576614 xtb: 6.5.1 (b24c23e)
Ni          15.38739152557098        0.02904587136519        0.02974118623007
C           12.01187074500115       -0.07549894965512       -0.07520018048452
C           12.68798478008182       -0.89558372152803       -0.89897667150138
C           12.05497517686297       -1.82350164280908       -1.83098733652408
C           13.01872751581417       -2.46674937642009       -2.47712062843371
C           14.29815488909882       -1.97007996501843       -1.97829301865106
N           14.10150131388949       -0.97941878050682       -0.98323575391913
C           15.49394828299609       -2.40293301446818       -2.41304402635348
C           16.78419014560697       -1.91609280175260       -1.92399625046935
C           18.06391734573552       -2.41193492946259       -2.42175703148018
C           19.02400025422612       -1.76697927648396       -1.77391560667869
N           16.94263596653401       -1.00034752151261       -1.00433091917676
C           18.35460174362041       -0.85312176416483       -0.85627732499197
C           18.96418627806033       -0.00362562012460       -0.00312649708065
C           18.21209078234086        0.89363934462500        0.89795497223700
C           18.78504474661769        1.75188161907619        1.75985583739734
C           17.73145166153757        2.44399464707520        2.45498670910345
C           16.56937685489536        1.97428157691528        1.98328896412246
N           16.78965204112905        0.98187143389732        0.98659363258549
C           15.26621609538877        2.44634050944389        2.45752815868470
C           14.09322769575792        1.98962781653553        1.99890870742253
C           12.78885673207936        2.44011994121806        2.45158579082980
C           11.90309752502330        1.74257163209308        1.75104586972854
C           12.64610430189469        0.85345509729677        0.85784838983426
N           13.93697516366096        0.99451709366824        0.99936790048557
H           10.92857297447162       -0.10188588622849       -0.10163225929554
H           10.99441907446779       -1.97395539551081       -1.98205941297149
H           12.86396363463506       -3.22215922876610       -3.23585815516921
H           15.50825271998273       -3.16780400251719       -3.18127149654007
H           18.21740218093770       -3.16641753418207       -3.17939710872205
H           20.08475443009323       -1.91481714186181       -1.92216968948139
H           19.84448906244578        1.89850271058139        1.90709613903665
H           17.84315366710688        3.20246901235583        3.21676325522128
H           15.24533296114516        3.21241842893228        3.22701212070297
H           12.56371655074444        3.18662312546350        3.20147539087892
H           10.82965261393667        1.82736684991480        1.83639100201077
Ni          43.89228403502155       -0.05750105758073       -0.00372881571213
C           47.26778682224322        0.09045193791612       -0.01102739969850
C           46.59168345254125        1.25139969467460       -0.06871519525570
C           47.22468350239912        2.56495780791291       -0.13392477955082
C           46.26093364640230        3.47556441414661       -0.17916602849579
C           44.98151559691419        2.77249207949247       -0.14428466435260
N           45.17815052555044        1.37011556584635       -0.07464523177535
C           43.78568005805674        3.38523126889311       -0.17469209571037
C           42.49547766759131        2.69607620527409       -0.14044353428448
C           41.21574765144913        3.39776809500876       -0.17508891112509
C           40.25565753012464        2.48476402498691       -0.12972737672587
N           42.33695060358074        1.39969028320948       -0.07618088408292
C           40.92500670552388        1.19139990783332       -0.06569898998878
C           40.31488827134122       -0.01113187420363       -0.00598670746579
C           41.06744372040570       -1.28138977450011        0.05688664804214
C           40.49460162425268       -2.49613746332820        0.11711179658471
C           41.54822038735375       -3.47584397980107        0.16572056676957
C           42.71025260760385       -2.81098618637664        0.13277833546772
N           42.48997502233593       -1.40613840038732        0.06309547068906
C           44.01345882614354       -3.47928851534446        0.16602335504783
C           45.18641985757451       -2.83285294938148        0.13400690564001
C           46.49081318625735       -3.47069097016395        0.16581202317727
C           47.37655904680801       -2.48331773310778        0.11685516929954
C           46.63354523015518       -1.22457271142446        0.05425304940302
N           45.34268830866292       -1.42413640371929        0.06404409227446
H           48.35108474553113        0.12775142414781       -0.01282861799690
H           48.28523835803605        2.77790579406694       -0.14446471014717
H           46.41569517355244        4.54491282023122       -0.23224861981106
H           43.77140411944537        4.46797033033420       -0.22843497392296
H           41.06225513137130        4.46568215492711       -0.22798194944711
H           39.19489683991118        2.69384926395635       -0.13994118978333
H           39.43516132610411       -2.70365428228922        0.12738828699830
H           41.43650424533859       -4.54950298020727        0.21899096924987
H           44.03432418004512       -4.56376244378978        0.21987918540339
H           46.71594313518025       -4.52749840120794        0.21834253817549
H           48.45000461205821       -2.60345905996559        0.12294370182123
C           22.50780152520180        0.00711306692517       -0.00334826322155
C           21.25266643652288       -0.01213675888929       -0.00775036883982
C           23.82242297564607        0.00586442045361       -0.00174405406931
C           25.12166848369822       -0.02062966008845       -0.01479994445462
C           35.31422797428767        0.00622444195548       -0.00391142216456
C           34.18570279233762       -0.02033122274882       -0.01475479663076
C           36.61372896597926        0.00617825039396       -0.00152690205607
C           38.07809054461624       -0.01207347301680       -0.00775320921855
Ni          29.60334342433369       -0.03722867213964       -0.03333419157993
C           26.33369726784174        0.01840823189813        0.01557014035649
C           26.86081339953572        0.90147563475173        0.80190188082557
C           26.20942922201732        1.87815708483883        1.67100636256636
C           27.17293017338850        2.56169593931150        2.27930990588851
C           28.44763913791145        2.03900996382632        1.81425660218844
N           28.25592768721317        0.98893369774215        0.87984019132502
C           29.63942489321808        2.50521103402518        2.22915468834015
C           30.93844425064658        2.00887840512110        1.78752534277967
C           32.20379413679076        2.54950957321476        2.26870539886362
C           33.18194012920164        1.87779624239055        1.67094876737928
N           31.11898813413257        1.04108478575813        0.92623855496846
C           32.51018025007762        0.91443507426568        0.81353381093870
C           33.00112138241337        0.01787873939615        0.01531529542181
C           32.41320152264672       -0.94968256078757       -0.84542883761798
C           33.01954000984573       -1.84451361374432       -1.64190842270049
C           31.97734664923883       -2.58756757248228       -2.30311063444036
C           30.80772888214128       -2.10102641294904       -1.86997133692970
N           31.00900300515485       -1.04956301320693       -0.93419211774879
C           29.51544912859179       -2.61204678328356       -2.32456788162701
C           28.32941473467651       -2.14559470425169       -1.90939689835869
C           27.04687768918191       -2.64844579890826       -2.35673457768714
C           26.13440721877769       -1.92829523147029       -1.71592215269430
C           26.85447508797944       -0.97408440152300       -0.86699237979379
N           28.13764308232417       -1.09476432884882       -0.97440407435368
H           25.15314490208151        2.05166499577545        1.82535017235219
H           27.01474370523563        3.36095646426534        2.99052933960381
H           29.63952563690050        3.31514076260841        2.94988406587031
H           32.33925282421271        3.34980474225953        2.98093517299130
H           34.23886420696215        2.05010431996492        1.82433418260645
H           34.08160255578067       -1.99069255073582       -1.77209908362902
H           32.10243902990659       -3.38936517305529       -3.01668554662549
H           29.51228974453584       -3.42338014992057       -3.04651078439843
H           26.85017379697380       -3.44308828081645       -3.06376824552217
H           25.06750421358087       -2.05215055183885       -1.82605882620188
115
 energy: -211.075493368544 gnorm: 0.490091163269 xtb: 6.5.1 (b24c23e)
Ni          15.39798196028916        0.02203984550889        0.02271127460102
C           12.01305389954506       -0.06417829290717       -0.06383130875715
C           12.69435992543426       -0.89433577828810       -0.89772509503050
C           12.05600353055443       -1.81770717302543       -1.82516924907424
C           13.02725403071380       -2.46551785464506       -2.47588685168630
C           14.29962806766562       -1.96417341573592       -1.97236124195096
N           14.08893912474507       -0.98644235503057       -0.99028348877206
C           15.51100165569343       -2.39944450736551       -2.40954134657167
C           16.77800929056165       -1.92335078768595       -1.93129137362760
C           18.05271517028763       -2.41587512971618       -2.42571778333197
C           19.02224671590358       -1.76175740325750       -1.76866630971188
N           16.95355132965621       -0.99367155820625       -0.99763503993560
C           18.36833553714967       -0.84764064460412       -0.85074839107822
C           18.98424695626157        0.00858107732767        0.00916209398504
C           18.21422527443873        0.88344702264393        0.88773443492081
C           18.78688703188181        1.76552020031498        1.77355456986752
C           17.75368057416043        2.44282920410518        2.45381294260210
C           16.56206053380069        1.96339878344544        1.97236039750311
N           16.79477017210128        0.98053977259247        0.98525860500925
C           15.28450665856444        2.43697029694800        2.44811238807019
C           14.09563108471467        1.98506130852398        1.99431908425691
C           12.79557189671355        2.43574877181139        2.44719129388346
C           11.89602514794790        1.73328611052992        1.74171550123749
C           12.63112625016762        0.84638226998033        0.85074195098529
N           13.94188755889063        0.99595044438047        1.00079960281551
H           10.92966898754470       -0.09724162656822       -0.09696949020109
H           10.99516254622890       -1.96696523092923       -1.97504066490520
H           12.87424525376701       -3.22116266954359       -3.23486004986333
H           15.51555770488599       -3.16556066996570       -3.17901725745302
H           18.20879079326333       -3.16871454683710       -3.18170795138188
H           20.08346474600713       -1.90712791267844       -1.91445026548444
H           19.84611123174139        1.90264934034854        1.91126111662644
H           17.85077608123041        3.20148173145544        3.21576659057981
H           15.25709885661139        3.20611522643913        3.22067735042392
H           12.57365591374099        3.18370431031070        3.19853842166779
H           10.82566181356462        1.82123276091739        1.83022593930166
Ni          43.88164297774049       -0.04758759230933       -0.00422811179535
C           47.26658289272213        0.07446345342922       -0.01024410573897
C           46.58533577100876        1.24963233235809       -0.06863933418238
C           47.22365008551323        2.55677718457443       -0.13352979622096
C           46.25239641710144        3.47380333318781       -0.17909043450220
C           44.98002369412395        2.76402426548882       -0.14387340173503
N           45.19067447123837        1.38004326137153       -0.07513643106185
C           43.76844384944201        3.38011400261586       -0.17444419283696
C           42.50150543879159        2.70613340382002       -0.14096285189886
C           41.22687804269488        3.40335500544148       -0.17537549478416
C           40.25716543265590        2.47762756476760       -0.12937296207921
N           42.32532500908543        1.38978123068737       -0.07570037917302
C           40.91014380815464        1.18362975692698       -0.06529961215318
C           40.29232530603226       -0.02838333677374       -0.00504401678359
C           41.06425080998913       -1.26699974213886        0.05615494803669
C           40.49246096717102       -2.51566003011432        0.11807745772772
C           41.52592673673587       -3.47413976560775        0.16562865149353
C           42.71738927768137       -2.79537264092992        0.13200061620594
N           42.48431108110219       -1.40388660966917        0.06298376997124
C           43.99511257871300       -3.46590701862281        0.16535021548200
C           45.18397863284283       -2.82635497146454        0.13367349875146
C           46.48410520991528       -3.46449426004154        0.16549388849984
C           47.38361062197865       -2.47019762146006        0.11619276511120
C           46.64848612609392       -1.21456188198721        0.05374474110027
N           45.33776716127741       -1.42610644155626        0.06412989367386
H           48.34996469606799        0.12118879316341       -0.01251444681093
H           48.28447617107219        2.76802134800271       -0.14398649049221
H           46.40539169526635        4.54348039410218       -0.23219026551657
H           43.76401840007166        4.46467068924234       -0.22828067749106
H           41.07087730951069        4.46892422699781       -0.22815485162539
H           39.19599759620706        2.68300912149306       -0.13940910749708
H           39.43333513097423       -2.70961653816009        0.12767173739411
H           41.42890196907649       -4.54804358502053        0.21890907969530
H           44.02251636692901       -4.55475281919660        0.21942134458679
H           46.70600000022409       -4.52334545530821        0.21812452922615
H           48.45396814259423       -2.59476885191290        0.12249998062600
C           22.46588117472108        0.00667554741756       -0.00353819437244
C           21.21722534437334       -0.00917003653970       -0.00545779363379
C           23.82849366854644        0.00397101598321       -0.00245839592004
C           25.04135419364223       -0.02902609347633       -0.02251241980205
C           35.44544213649554        0.00231443156511       -0.00536500354002
C           34.19846597514774       -0.03397202804132       -0.02871409357719
C           36.77513438082236        0.00495524042448       -0.00206453894497
C           38.05936442863305       -0.01256457474796       -0.00717657281810
Ni          29.60562838097612       -0.03363847551310       -0.03013481132245
C           26.29346603050792        0.00181433049768        0.00053601452683
C           26.87317655875945        0.91330541501533        0.81240995907212
C           26.21204835671716        1.87508806567962        1.66830505734660
C           27.18221632966972        2.56298020848948        2.28045328912357
C           28.45220924543436        2.03958937795080        1.81477216809623
N           28.25425173817065        1.00564404853337        0.89462972771232
C           29.65405338795837        2.50979639308341        2.23325133645843
C           30.92176298162607        2.02927317997981        1.80568642651855
C           32.18848446882279        2.55837245211210        2.27656648932991
C           33.17004583969719        1.87445427579090        1.66788251981937
N           31.10085506900252        1.05003590959576        0.93422519724280
C           32.47493103281182        0.92853995439775        0.82625395680535
C           32.97173786469052        0.00081588509475        0.00061067640669
C           32.37319867714702       -0.95310604417840       -0.84828158843859
C           33.01201922008567       -1.86061733389696       -1.65632169415384
C           31.99613891203578       -2.58965740331204       -2.30497966062376
C           30.79282679826479       -2.09770281654895       -1.86700544868764
N           30.98993420718910       -1.06016596960079       -0.94358260910824
C           29.53235650819648       -2.60788850804481       -2.32085981503249
C           28.33528950396239       -2.14624010448894       -1.90996128966471
C           27.05407803440799       -2.64502100186747       -2.35368416186367
C           26.12877770334980       -1.91946630127875       -1.70806474741987
C           26.84831418584344       -0.97563640151315       -0.86843221420440
N           28.15478465467964       -1.10449177696029       -0.98310002962148
H           25.15399258359774        2.04255484044430        1.81724208519205
H           27.02430707756680        3.36122984592883        2.99077022289994
H           29.64520937593879        3.31768335416629        2.95215696873440
H           32.33172453013636        3.35464260773896        2.98523908601127
H           34.23232286718682        2.03952243949124        1.81491289797042
H           34.07823723401399       -1.99240330916803       -1.77363506733477
H           32.11087082959775       -3.38999410608778       -3.01725122571148
H           29.52297056642415       -3.42012479950912       -3.04361070655669
H           26.85914148547193       -3.44029155412793       -3.06127788493899
H           25.06387927344885       -2.04384830646962       -1.81867366469836
115
 energy: -211.198794235364 gnorm: 0.350872722152 xtb: 6.5.1 (b24c23e)
Ni          15.41724480119912        0.01348297854247        0.01408306718096
C           12.01627391960536       -0.05163663115877       -0.05123387948213
C           12.70275994636435       -0.89337178566671       -0.89675456213133
C           12.05984965818406       -1.81015147256688       -1.81758036416045
C           13.03927003613217       -2.46244109935013       -2.47279873635372
C           14.30175952876273       -1.95654512791245       -1.96469696150303
N           14.07569398576241       -0.99427963512512       -0.99814281761075
C           15.53232199207737       -2.39190173174539       -2.40196391931434
C           16.77412202041855       -1.92817472448861       -1.93614295643895
C           18.04124119681691       -2.41710044549349       -2.42695637840047
C           19.01881168655797       -1.75558031018851       -1.76244400865398
N           16.97162428303141       -0.98224812620601       -0.98616646031218
C           18.38660820546784       -0.84154348079135       -0.84457107906507
C           19.01831663185377        0.02342396472860        0.02423542874693
C           18.22640144291636        0.87169127503455        0.87597120730745
C           18.79097381980780        1.78181038516106        1.78992887674159
C           17.78183388961521        2.43863339875156        2.44959658204106
C           16.55960005603515        1.94783887065289        1.95673552406090
N           16.81042495264368        0.97727032008109        0.98197676516938
C           15.31142669399145        2.42083374628666        2.43190308759891
C           14.09954683501413        1.97539584593634        1.98461246827671
C           12.80562454377552        2.42700149661076        2.43840344713188
C           11.89155982420446        1.72219798831907        1.73057614364158
C           12.61537974501584        0.83819207644874        0.84251797379393
N           13.94922462426774        0.99668163152956        1.00154269263116
H           10.93243594680252       -0.09177492131641       -0.09147833893422
H           10.99814086354847       -1.95610281520069       -1.96413144403589
H           12.89076662599864       -3.21849529246767       -3.23218378584343
H           15.52622948982448       -3.15967315252270       -3.17310000633467
H           18.19659436175054       -3.16990737963341       -3.18291491262278
H           20.08095678628694       -1.89655681635540       -1.90383337867144
H           19.85113241137039        1.90847479662292        1.91711749257038
H           17.85979228397688        3.19863134492085        3.21289703179063
H           15.27788095400982        3.19269314257137        3.20719362741007
H           12.58991639237143        3.17682126276282        3.19162052298512