242
 energy: -440.839114880461 gnorm: 0.000800255390 xtb: 6.5.1 (b24c23e)
Ni          46.73341549431512       -0.02773143265152       -0.07711313279222
C           43.34378053614459       -0.06506867856902       -0.28992353649869
C           43.99870958883585       -1.27566961167660       -0.20729872099298
C           43.31904012877778       -2.53412562387151       -0.16825579169333
C           44.27183330032528       -3.48478797767124       -0.02766004082713
C           45.53500695475394       -2.80708484772605       -0.00423233126693
N           45.35620190945639       -1.44963338495674       -0.10507003958381
C           46.75634359608621       -3.45685113582251        0.11503945876067
C           46.77009021555651       -4.93649475352299        0.22760207588300
C           46.31223884813401       -5.73395376102311       -0.82097859910022
C           46.32668779779860       -7.11652396880576       -0.71685171897757
C           46.79685743481541       -7.71689893660325        0.44865546616009
O           46.82506454810542       -9.06686528812466        0.59417341710518
C           47.25560984352051       -6.93084316266660        1.50413429228898
C           47.24419549558234       -5.55210856492740        1.38815960716834
C           47.96884560315327       -2.78106466408373        0.11507818599259
C           49.23869758442216       -3.44129368690201        0.14566197872483
C           50.18448191801903       -2.47424472444843        0.08084896004872
N           48.13643653294427       -1.41712382727853        0.02862539130031
C           49.49113817531957       -1.22733105207475        0.01439884698881
C           50.14783993150098        0.00393122745117       -0.03774141525053
C           49.46951614892647        1.22430696293556       -0.06067080739238
C           50.14087781032975        2.48450190627600       -0.08957285252207
C           49.17834379756318        3.43708342207699       -0.09507876926714
C           47.92015872938093        2.75467518621811       -0.06824522574199
N           48.11162041462872        1.39113791653380       -0.05603967206486
C           46.69496182084369        3.40700631282728       -0.09740142550859
C           46.68084573151486        4.89051931658950       -0.09956719452859
C           47.18196817365185        5.60834869519068        0.98867372378484
C           47.16997641848894        6.99204338014943        0.99011579243941
C           46.65924771372130        7.68022957948951       -0.10893547146932
O           46.66642461837115        9.03781355785645       -0.07622519117407
C           46.15987324517067        6.97741225938135       -1.20287209928015
C           46.17004443983466        5.59112679583876       -1.19237398068605
C           45.48446727877391        2.72828075531711       -0.14977491129643
C           44.20789756018295        3.38003727676422       -0.18394206995941
C           43.27184189639755        2.40586394569881       -0.26264411043503
C           43.97546193174686        1.16015848240906       -0.25435348546655
N           45.33041937183402        1.36432271306296       -0.17682836735853
H           42.26225700790570       -0.07669518917346       -0.35966178288833
H           42.24873375091088       -2.65242671123708       -0.22710259237667
H           44.14323472887144       -4.55137696819390        0.05949439679474
H           45.95716722107346       -5.26784974856354       -1.73335858925637
H           45.97541984040058       -7.73247307454695       -1.53777898858998
H           46.48283490721143       -9.51299315225806       -0.19208891830362
H           47.61571200755782       -7.41141453144085        2.40536471142553
H           47.59242214166472       -4.93962464603969        2.21229766955628
H           49.37759972655785       -4.50891342319121        0.19434871690644
H           51.25738589066927       -2.57928783213231        0.07724407355704
H           51.21172630371289        2.60761490279906       -0.10659654016148
H           49.29937581880985        4.50740525505897       -0.12924813664283
H           47.57002431578535        5.07275387378539        1.84782974672564
H           47.55198652380707        7.55172775462101        1.83492658815036
H           46.28938816777960        9.41183521039593       -0.88387502091226
H           45.76722579643468        7.51689338969594       -2.05812571059235
H           45.79294087153065        5.04510667487940       -2.04995529476072
H           44.05943891265282        4.44686191401353       -0.14424033567571
H           42.19862658677824        2.50107062655332       -0.30909796292283
Ni          87.01148004355248       -0.00787157489054       -0.05296075799704
C           90.39951516575790        0.01710252741138       -0.23743195789811
C           89.73374575667441        1.21311958271633       -0.40601787164031
C           90.40008601091087        2.45963175835728       -0.62852874312187
C           89.44363285203694        3.41719718818157       -0.62128261017594
C           88.19074595987314        2.75260133873214       -0.41160535196266
N           88.37830157952628        1.39784249075575       -0.29340215708738
C           86.97782002131706        3.41513353632506       -0.27304168258067
C           86.96244835417322        4.89742776322284       -0.34657684011512
C           87.30440823727852        5.55340713259476       -1.52877135319629
C           87.28820257461065        6.93812765680970       -1.59958120356790
C           86.93273157297509        7.68335795958823       -0.47791504419434
O           86.90668724513959        9.04098076219729       -0.50238544518443
C           86.59115973228725        7.03937271498215        0.70990823665370
C           86.60394864695373        5.65699869838213        0.76916038718870
C           85.77620429731645        2.74751292867428       -0.07928019366123
C           84.50890513042035        3.40802953333066        0.00475892920192
C           83.56510779815721        2.43869220652193        0.06940254378726
N           85.60881548226808        1.38069188470147       -0.05023424405133
C           84.25660333785635        1.18999203295040        0.02417369006946
C           83.60026185068546       -0.04345544021482       -0.00345580005213
C           84.28281874100968       -1.26254471709904       -0.01433247785260
C           83.61957162658950       -2.52703730162755       -0.03185681118382
C           84.58421072903506       -3.47292625990334        0.06842173982428
C           85.83505868717623       -2.78175676258475        0.14911903588507
N           85.63915414788040       -1.42152256853147        0.06481615848127
C           87.05848728282702       -3.41989962431321        0.30643830958070
C           87.07374378646493       -4.89253102963834        0.47771622650014
C           86.43927546300256       -5.48520798356805        1.57223221924384
C           86.45129273508635       -6.85845945725541        1.73994500300205
C           87.09628303933644       -7.66366973465975        0.80282080286033
O           87.08503225602985       -9.00778996940153        0.99537979937976
C           87.72947522192246       -7.08712148770479       -0.29572521137872
C           87.71846344101495       -5.70955626506571       -0.45132631057390
C           88.26675980369465       -2.73456720772247        0.29211497600445
C           89.54446930885568       -3.36361713000559        0.45665016168040
C           90.48090883733794       -2.40233231285683        0.27924654262772
C           89.77485619491983       -1.18339855252411        0.02931762482719
N           88.41849682440029       -1.38876892525093        0.06717921755890
H           91.48175093424328        0.02523237267375       -0.29544011931457
H           91.46565552519013        2.56906268535071       -0.75348916131158
H           89.56473474645016        4.48227218327436       -0.73406543605970
H           87.56967735337270        4.97394775101128       -2.40606425271096
H           87.54925837463536        7.44352712178474       -2.52323022280763
H           87.16068634465800        9.38255819124955       -1.37022741547370
H           86.31986397465707        7.63179410458246        1.57493904633052
H           86.34789072355213        5.15550714338792        1.69572905369827
H           84.36811068988662        4.47643769513900       -0.00542726568140
H           82.49408510382906        2.54382100584928        0.13311709912881
H           82.55217807402826       -2.65776498528978       -0.10810094994677
H           84.46960869163510       -4.54450874928764        0.07769383188825
H           85.94648007065923       -4.85791953897026        2.30659787850501
H           85.96634929319836       -7.32024586327315        2.59108927319185
H           87.55915778852876       -9.46883609797579        0.29039099516190
H           88.22642882813871       -7.71784949597978       -1.02505655777525
H           88.20018680432180       -5.26326351024121       -1.31422417438696
H           89.69325082819391       -4.40715732734954        0.68183718922242
H           91.55512685293256       -2.48936912018019        0.31819375236680
C           52.77595259668055        0.02746953850894       -0.05452556641100
C           51.55503043982925        0.01536242734818       -0.04784370973282
C           54.12729192016987        0.03374256574081       -0.05772934521261
C           55.34838734975710        0.03788779413652       -0.05809508392251
C           66.20786267086567       -0.01853775398881       -0.02718932902541
C           64.98618298724821       -0.01100725539543       -0.02453788937442
C           67.55796966336871       -0.01779938450780       -0.03079761015894
C           68.77965924807114       -0.01819010373729       -0.04096846634495
C           79.62292261609856       -0.06856159192543       -0.01365948704342
C           78.40132087585917       -0.06257018529988       -0.01454811227484
C           80.97315008068101       -0.06618163498567       -0.00524645598107
C           82.19463809303276       -0.05705289465109       -0.00573225662389
Ni          60.16782407879695        0.02422849458435       -0.05575154377298
C           56.75462846442808        0.03659036378387       -0.05973517629511
C           57.42883967718488        0.98786164852750        0.71005658970928
C           56.76294869954372        1.94124591253022        1.53830736730099
C           57.72055563954058        2.76504391165993        2.02940163696748
C           58.96792058679441        2.31679503896322        1.49011799024085
N           58.78097463818341        1.19552578724107        0.71409587047102
C           60.17623040393041        2.97551348301316        1.67996022139320
C           60.17744565397261        4.25750406919984        2.42321503360954
C           60.91525035705616        4.39709368265145        3.60143333752051
C           60.91704526006598        5.59198263886403        4.29871271405295
C           60.18148303002111        6.67404703285594        3.81830003120319
O           60.21015593790430        7.83344109771255        4.52408349802485
C           59.44308050748349        6.55037431595030        2.64354697450312
C           59.44070792569305        5.34663985219812        1.95625183916432
C           61.38224360779940        2.48017453878808        1.20092425552145
C           62.63482156477753        3.15871748124361        1.33556324863395
C           63.58800742986841        2.31839844801511        0.86411614948891
N           61.56230136525363        1.25343169596161        0.60225847986156
C           62.91408849443025        1.13682619589651        0.43076690229934
C           63.58128964658818       -0.00232521105198       -0.02911912185315
C           62.90356742027924       -1.12950831836018       -0.50273135276062
C           63.56586163390159       -2.31729665391978       -0.93702560991823
C           62.60824088261037       -3.13483990554715       -1.43864136863766
C           61.36465041949889       -2.43757611753848       -1.31768491002480
N           61.55329707666785       -1.22190548552398       -0.69977638460173
C           60.15908305241494       -2.90924020999074       -1.82117172735562
C           60.15599020533721       -4.17665475874157       -2.58909802947163
C           59.40506175569857       -5.26864016352741       -2.15254235212116
C           59.40265593101292       -6.45705066698489       -2.86605966485709
C           60.15068440269079       -6.56208521717410       -4.03650195173966
O           60.17397989038081       -7.70578537048395       -4.76781960045869
C           60.90158806824276       -5.47726254124007       -4.48592398579233
C           60.90451667287929       -4.29799378995143       -3.76254832792476
C           58.95585831430890       -2.24171962140000       -1.63094505631458
C           57.70674600692710       -2.67432069745264       -2.17882933162302
C           56.75314990428934       -1.85320953695199       -1.67555692855667
C           57.42375734759006       -0.91434552051387       -0.83467603983372
N           58.77453659112328       -1.12960563505961       -0.84021166425980
H           55.69911157374210        1.96508570006613        1.71127309119323
H           57.60263285743556        3.59914232176403        2.70167205629868
H           61.47755950151943        3.55176159706597        3.98200590377542
H           61.48200673932429        5.70088910315990        5.21622875661856
H           59.66418047135655        8.51369307021501        4.10743782847985
H           58.87495159833377        7.39616346494258        2.27133710313702
H           58.87538207629318        5.25533513621764        1.03542669835041
H           62.75945500669941        4.15153286561128        1.73595383297707
H           64.65373022338596        2.47115738127773        0.80814236003056
H           64.62757114635605       -2.48890139622395       -0.86228248801374
H           62.72376773363550       -4.12410316675487       -1.85042296184277
H           58.83220041023467       -5.19216448634777       -1.23506314791656
H           58.82319667873816       -7.30533092351559       -2.51775298101290
H           59.62095393602167       -8.39077901286235       -4.36864531257364
H           61.47447765745385       -5.57161377617012       -5.40011929520932
H           61.47929915575195       -3.45029566112955       -4.11845604624820
H           57.58456450225785       -3.49781556883508       -2.86328710562456
H           55.68937583611365       -1.86876721813594       -1.84986524419159
Ni          73.59069245126385       -0.02570581687088       -0.04981729885859
C           70.18414135070344       -0.01708323281106       -0.04846420421710
C           70.86158972065520        0.91061630627071        0.74913441516933
C           70.20520198870456        1.83524172770613        1.61637698112932
C           71.16369624120129        2.66454433380828        2.09802204856590
C           72.40196483910979        2.24992479813817        1.51298068532939
N           72.21024049582377        1.13662027827160        0.72632766695073
C           73.60157533890236        2.93804328676485        1.65100734312606
C           73.60668739211918        4.22117726441334        2.39002018898196
C           74.41912705570179        4.39073871512686        3.51439672193038
C           74.42372019577662        5.58531621034459        4.21184930073686
C           73.61501344966676        6.63777553648859        3.78608816109672
O           73.64660675107709        7.79715728291943        4.49148008383140
C           72.80285936519833        6.48505895233832        2.66456121133261
C           72.79912129560707        5.28172046161431        1.97673567105727
C           74.79750036542855        2.46411254830688        1.12450487978784
C           76.04104155864587        3.16911931897475        1.18692311004765
C           76.99399798034308        2.32537577525401        0.71936853002961
N           74.98024481025593        1.22062074648548        0.56352015751127
C           76.32875306427835        1.11413009252645        0.36157432029966
C           76.99688580469704       -0.05301992562157       -0.02213138577088
C           76.31564742356339       -1.20761165292350       -0.42027065741125
C           76.96664233746921       -2.42729385986672       -0.77543885355003
C           76.00903274244860       -3.24901555789709       -1.27196862326619
C           74.77696884054699       -2.52287035968823       -1.22756021313902
N           74.96957983669365       -1.28887854793079       -0.64936594840135
C           73.58346745725348       -2.97128502208805       -1.78192435817965
C           73.58674467888150       -4.23986514736126       -2.54537462669900
C           72.75775453410705       -5.29873505227399       -2.17196379615808
C           72.76205227946822       -6.48739281165447       -2.88488771249902
C           73.59692604905244       -6.62721906755234       -3.99132391156532
O           73.63045635517410       -7.77233862545343       -4.71961329734138
C           74.42813884640090       -5.57673147389663       -4.37673226266043
C           74.42229775631957       -4.39690683698460       -3.65469371925664
C           72.38979556537475       -2.27278921688751       -1.64473088666991
C           71.14994395968607       -2.66941752273253       -2.23889412356407
C           70.19469560216554       -1.84702331750252       -1.73896767724814
C           70.85560848274301       -0.94046391253965       -0.85639443588256
N           72.20315545718475       -1.17178186585500       -0.83932272652360
H           69.14630432868024        1.83955643088545        1.81895306079576
H           71.05120743024584        3.48229477878745        2.79105126175406
H           75.03780062332058        3.56775800892995        3.85441791554922
H           75.04658674286004        5.71668668384396        5.08801896439928
H           73.04921488789239        8.45650398377824        4.11358778997703
H           72.17859931056071        7.30824492713760        2.33386312036100
H           72.17670175804018        5.16914629391760        1.09597153651947
H           76.16088362087581        4.18005875070951        1.54084446344654
H           78.05456880312290        2.49342248189069        0.62305721056258
H           78.02181072963873       -2.61511595026605       -0.65848028702068
H           76.11817006056029       -4.25869417817907       -1.63296955522172
H           72.11775726162384       -5.19722053770173       -1.30247146460346
H           72.12057321358198       -7.30934521962329       -2.58551244994337
H           73.01504869880362       -8.43077868640974       -4.37027020484662
H           75.06957849941581       -5.69807854341516       -5.24090681606046
H           75.05867709904572       -3.57506648056369       -3.96342151479608
H           71.03362822203444       -3.47211680637321       -2.94869268792407
H           69.13571696173048       -1.84282585760655       -1.94126821570410
