      -----------------------------------------------------------      
     |                   =====================                   |     
     |                           x T B                           |     
     |                   =====================                   |     
     |                         S. Grimme                         |     
     |          Mulliken Center for Theoretical Chemistry        |     
     |                    University of Bonn                     |     
      -----------------------------------------------------------      

   * xtb version 6.5.1 (b24c23e) compiled by 'conda@728c89f4b128' on 2022-07-12

   xtb is free software: you can redistribute it and/or modify it under
   the terms of the GNU Lesser General Public License as published by
   the Free Software Foundation, either version 3 of the License, or
   (at your option) any later version.
   
   xtb is distributed in the hope that it will be useful,
   but WITHOUT ANY WARRANTY; without even the implied warranty of
   MERCHANTABILITY or FITNESS FOR A PARTICULAR PURPOSE.  See the
   GNU Lesser General Public License for more details.
   
   Cite this work as:
   * C. Bannwarth, E. Caldeweyher, S. Ehlert, A. Hansen, P. Pracht,
     J. Seibert, S. Spicher, S. Grimme, WIREs Comput. Mol. Sci., 2020, 11,
     e01493. DOI: 10.1002/wcms.1493
   
   for GFN2-xTB:
   * C. Bannwarth, S. Ehlert and S. Grimme., J. Chem. Theory Comput., 2019,
     15, 1652-1671. DOI: 10.1021/acs.jctc.8b01176
   for GFN1-xTB:
   * S. Grimme, C. Bannwarth, P. Shushkov, J. Chem. Theory Comput., 2017,
     13, 1989-2009. DOI: 10.1021/acs.jctc.7b00118
   for GFN0-xTB:
   * P. Pracht, E. Caldeweyher, S. Ehlert, S. Grimme, ChemRxiv, 2019, preprint.
     DOI: 10.26434/chemrxiv.8326202.v1
   for GFN-FF:
   * S. Spicher and S. Grimme, Angew. Chem. Int. Ed., 2020, 59, 15665-15673.
     DOI: 10.1002/anie.202004239
   
   for ALPB and GBSA implicit solvation:
   * S. Ehlert, M. Stahn, S. Spicher, S. Grimme, J. Chem. Theory Comput.,
     2021, 17, 4250-4261. DOI: 10.1021/acs.jctc.1c00471
   
   for DFT-D4:
   * E. Caldeweyher, C. Bannwarth and S. Grimme, J. Chem. Phys., 2017,
     147, 034112. DOI: 10.1063/1.4993215
   * E. Caldeweyher, S. Ehlert, A. Hansen, H. Neugebauer, S. Spicher,
     C. Bannwarth and S. Grimme, J. Chem. Phys., 2019, 150, 154122.
     DOI: 10.1063/1.5090222
   * E. Caldeweyher, J.-M. Mewes, S. Ehlert and S. Grimme, Phys. Chem. Chem. Phys.
     2020, 22, 8499-8512. DOI: 10.1039/D0CP00502A
   
   for sTDA-xTB:
   * S. Grimme and C. Bannwarth, J. Chem. Phys., 2016, 145, 054103.
     DOI: 10.1063/1.4959605
   
   in the mass-spec context:
   * V. Asgeirsson, C. Bauer and S. Grimme, Chem. Sci., 2017, 8, 4879.
     DOI: 10.1039/c7sc00601b
   * J. Koopman and S. Grimme, ACS Omega 2019, 4, 12, 15120-15133.
     DOI: 10.1021/acsomega.9b02011
   
   for metadynamics refer to:
   * S. Grimme, J. Chem. Theory Comput., 2019, 155, 2847-2862
     DOI: 10.1021/acs.jctc.9b00143
   
   for SPH calculations refer to:
   * S. Spicher and S. Grimme, J. Chem. Theory Comput., 2021, 17, 1701-1714
     DOI: 10.1021/acs.jctc.0c01306
   
   with help from (in alphabetical order)
   P. Atkinson, C. Bannwarth, F. Bohle, G. Brandenburg, E. Caldeweyher
   M. Checinski, S. Dohm, S. Ehlert, S. Ehrlich, I. Gerasimov, C. Hölzer
   A. Katbashev, J. Koopman, C. Lavigne, S. Lehtola, F. März, M. Müller,
   F. Musil, H. Neugebauer, J. Pisarek, C. Plett, P. Pracht, F. Pultar,
   J. Seibert, P. Shushkov, S. Spicher, M. Stahn, M. Steiner, T. Strunk,
   J. Stückrath, T. Rose, and J. Unsleber
   
 * started run on 2022/07/29 at 19:24:13.028     

           -------------------------------------------------
          |                Calculation Setup                |
           -------------------------------------------------

          program call               : xtb Fe_Ph2Me_C8_4.xyz --gfn 1 --opt -T 48
          hostname                   : cx3-15-15.cx3.hpc.ic.ac.uk
          coordinate file            : Fe_Ph2Me_C8_4.xyz
          omp threads                :                     1

   ID    Z sym.   atoms
    1   26 Fe     1, 69, 161, 228
    2    6 C      2-6, 8-11, 13-31, 34-41, 70-74, 76-79, 81-99, 102-109,
                  137-160, 162-166, 168-171, 173-191, 194-201, 229-233,
                  235-238, 240-258, 261-268
    3    7 N      7, 12, 32, 33, 75, 80, 100, 101, 167, 172, 192, 193, 234,
                  239, 259, 260
    4    1 H      42-68, 110-136, 202-227, 269-294

molecular fragmentation (1/2 indicates fragments):
111111111111111111111111111111111111111111111111111111111111111111112222
222222222222222222222222222222222222222222222222222222222222222222222222
222222222222222222222222222222222222222222222222222222222222222222222222
222222222222222222222222222222222222222222222222222222222222222222222222
222222
# atoms in fragment 1/2:    68   226
 fragment masses (1/2) :      571.47     2000.66
CMA distance (Bohr)    :  69.196
constraining FC (au)   :  0.0500
########################################################################
[WARNING] Please study the warnings concerning your input carefully
-1- prog_main_parseArguments: Unknown option '-T' provided
########################################################################

           -------------------------------------------------
          |                 G F N 1 - x T B                 |
           -------------------------------------------------

        Reference                      10.1021/acs.jctc.7b00118
      * Hamiltonian:
        H0-scaling (s, p, d)           1.850000    2.250000    2.000000
        zeta-weighting                 0.000000
      * Dispersion:
        s8                             2.400000
        a1                             0.630000
        a2                             5.000000
        s9                             0.000000
      * Repulsion:
        kExp                           1.500000
        rExp                           1.000000
      * Coulomb:
        alpha                          2.000000
        third order                    atomic
        anisotropic                    false
      * Halogen bond correction:
        rad-scale                      1.300000
        damping                        0.440000


          ...................................................
          :                      SETUP                      :
          :.................................................:
          :  # basis functions                 988          :
          :  # atomic orbitals                 984          :
          :  # shells                          592          :
          :  # electrons                       890          :
          :  # halogen bonds                     0          :
          :  max. iterations                   250          :
          :  Hamiltonian                  GFN1-xTB          :
          :  restarted?                      false          :
          :  GBSA solvation                  false          :
          :  PC potential                    false          :
          :  electronic temp.          300.0000000     K    :
          :  accuracy                    1.0000000          :
          :  -> integral cutoff          0.2500000E+02      :
          :  -> integral neglect         0.1000000E-07      :
          :  -> SCF convergence          0.1000000E-05 Eh   :
          :  -> wf. convergence          0.2000000E-04 e    :
          :  Broyden damping             0.4000000          :
          ...................................................

 iter      E             dE          RMSdq      gap      omega  full diag
   1   -436.9417821 -0.436942E+03  0.118E+01    0.05       0.0  T
   2   -169.9922305  0.266950E+03  0.135E+01    0.01       1.0  T
   3    469.9808865  0.639973E+03  0.130E+01    0.01       1.0  T
   4   4298.7533771  0.382877E+04  0.216E+01    0.01       1.0  T
   5   2276.7944347 -0.202196E+04  0.171E+01    0.10       1.0  T
   6   2486.6727600  0.209878E+03  0.170E+01    0.23       1.0  T
   7    241.8166462 -0.224486E+04  0.112E+01    0.01       1.0  T
   8    295.6714690  0.538548E+02  0.114E+01    0.05       1.0  T
   9    267.6629064 -0.280086E+02  0.115E+01    0.07       1.0  T
  10   -186.1805260 -0.453843E+03  0.853E+00    0.10       1.0  T
  11   -283.2638007 -0.970833E+02  0.766E+00    0.02       1.0  T
  12   -418.6374338 -0.135374E+03  0.592E+00    0.05       1.0  T
  13   -416.1573272  0.248011E+01  0.550E+00    0.07       1.0  T
  14   -437.2885573 -0.211312E+02  0.524E+00    0.01       1.0  T
  15   -447.4790649 -0.101905E+02  0.425E+00    0.06       1.0  T
  16   -437.6889757  0.979009E+01  0.408E+00    0.04       1.0  T
  17   -424.3613694  0.133276E+02  0.511E+00    0.02       1.0  T
  18   -418.4408283  0.592054E+01  0.500E+00    0.01       1.0  T
  19   -450.4636197 -0.320228E+02  0.415E+00    0.07       1.0  T
  20   -451.4559408 -0.992321E+00  0.394E+00    0.05       1.0  T
  21   -451.9414157 -0.485475E+00  0.379E+00    0.02       1.0  T
  22   -444.5684569  0.737296E+01  0.387E+00    0.10       1.0  T
  23   -434.3271836  0.102413E+02  0.385E+00    0.08       1.0  T
  24   -411.4991928  0.228280E+02  0.413E+00    0.04       1.0  T
  25   -405.5043914  0.599480E+01  0.419E+00    0.02       1.0  T
  26   -412.7953356 -0.729094E+01  0.381E+00    0.09       1.0  T
  27   -403.6313009  0.916403E+01  0.398E+00    0.02       1.0  T
  28   -398.0921542  0.553915E+01  0.396E+00    0.07       1.0  T
  29   -416.3584019 -0.182662E+02  0.386E+00    0.02       1.0  T
  30   -446.5588037 -0.302004E+02  0.431E+00    0.01       1.0  T
  31   -419.5167021  0.270421E+02  0.661E+00    0.02       1.0  T
  32   -419.7052447 -0.188543E+00  0.657E+00    0.03       1.0  T
  33   -422.0933917 -0.238815E+01  0.656E+00    0.02       1.0  T
  34   -422.1291258 -0.357342E-01  0.655E+00    0.01       1.0  T
  35   -422.4730755 -0.343950E+00  0.655E+00    0.10       1.0  T
  36   -427.7200773 -0.524700E+01  0.631E+00    0.03       1.0  T
  37   -436.7224729 -0.900240E+01  0.579E+00    0.03       1.0  T
  38   -429.9364626  0.678601E+01  0.623E+00    0.03       1.0  T
  39   -430.0334583 -0.969957E-01  0.622E+00    0.03       1.0  T
  40   -429.9426820  0.907763E-01  0.623E+00    0.03       1.0  T
  41   -433.5217402 -0.357906E+01  0.603E+00    0.02       1.0  T
  42   -449.4642831 -0.159425E+02  0.504E+00    0.06       1.0  T
  43   -458.1680272 -0.870374E+01  0.436E+00    0.04       1.0  T
  44   -446.5544825  0.116135E+02  0.511E+00    0.04       1.0  T
  45   -454.0034947 -0.744901E+01  0.458E+00    0.05       1.0  T
  46   -458.1678328 -0.416434E+01  0.427E+00    0.05       1.0  T
  47   -464.9282738 -0.676044E+01  0.366E+00    0.00       1.0  T
  48   -441.8777586  0.230505E+02  0.520E+00    0.02       1.0  T
  49   -455.4956371 -0.136179E+02  0.427E+00    0.00       1.0  T
  50   -454.9114581  0.584179E+00  0.401E+00    0.03       1.0  T
  51   -456.8944026 -0.198294E+01  0.385E+00    0.02       1.0  T
  52   -456.6198689  0.274534E+00  0.385E+00    0.03       1.0  T
  53   -476.4626126 -0.198427E+02  0.194E+00    0.03       1.0  T
  54   -469.4881254  0.697449E+01  0.280E+00    0.05       1.0  T
  55   -474.6829863 -0.519486E+01  0.219E+00    0.03       1.0  T
  56   -477.6607068 -0.297772E+01  0.167E+00    0.02       1.0  T
  57   -478.5779803 -0.917273E+00  0.168E+00    0.04       1.0  T
  58   -477.6831693  0.894811E+00  0.180E+00    0.03       1.0  T
  59   -478.9283554 -0.124519E+01  0.166E+00    0.01       1.0  T
  60   -478.8782082  0.501472E-01  0.159E+00    0.01       1.0  T
  61   -478.9833923 -0.105184E+00  0.162E+00    0.03       1.0  T
  62   -474.5663330  0.441706E+01  0.233E+00    0.06       1.0  T
  63   -472.6877120  0.187862E+01  0.254E+00    0.01       1.0  T
  64   -475.1297541 -0.244204E+01  0.222E+00    0.04       1.0  T
  65   -479.2891910 -0.415944E+01  0.151E+00    0.02       1.0  T
  66   -478.2037763  0.108541E+01  0.164E+00    0.00       1.0  T
  67   -477.5524342  0.651342E+00  0.180E+00    0.04       1.0  T
  68   -477.8743835 -0.321949E+00  0.172E+00    0.03       1.0  T
  69   -477.7245671  0.149816E+00  0.174E+00    0.01       1.0  T
  70   -472.0993123  0.562525E+01  0.251E+00    0.00       1.0  T
  71   -476.8838380 -0.478453E+01  0.186E+00    0.02       1.0  T
  72   -478.6224413 -0.173860E+01  0.154E+00    0.01       1.0  T
  73   -478.9396916 -0.317250E+00  0.148E+00    0.02       1.0  T
  74   -479.3550793 -0.415388E+00  0.139E+00    0.01       1.0  T
  75   -481.0235518 -0.166847E+01  0.947E-01    0.01       1.0  T
  76   -478.9666830  0.205687E+01  0.145E+00    0.02       1.0  T
  77   -480.1618972 -0.119521E+01  0.121E+00    0.00       1.0  T
  78   -481.9593900 -0.179749E+01  0.578E-01    0.00       1.0  T
  79   -480.4855030  0.147389E+01  0.115E+00    0.05       1.0  T
  80   -481.4587550 -0.973252E+00  0.826E-01    0.00       1.0  T
  81   -481.3619610  0.967940E-01  0.865E-01    0.01       1.0  T
  82   -482.0304980 -0.668537E+00  0.536E-01    0.00       1.0  T
  83   -480.6722657  0.135823E+01  0.109E+00    0.01       1.0  T
  84   -480.6243848  0.478809E-01  0.110E+00    0.01       1.0  T
  85   -481.1583402 -0.533955E+00  0.934E-01    0.02       1.0  T
  86   -481.6331100 -0.474770E+00  0.754E-01    0.01       1.0  T
  87   -481.6958100 -0.627000E-01  0.720E-01    0.01       1.0  T
  88   -481.9577141 -0.261904E+00  0.590E-01    0.01       1.0  T
  89   -482.0761809 -0.118467E+00  0.514E-01    0.01       1.0  T
  90   -482.2065037 -0.130323E+00  0.408E-01    0.01       1.0  T
  91   -482.2581339 -0.516302E-01  0.362E-01    0.01       1.0  T
  92   -482.3740929 -0.115959E+00  0.221E-01    0.00       1.0  T
  93   -482.3675975  0.649535E-02  0.228E-01    0.00       1.0  T
  94   -482.4017510 -0.341535E-01  0.166E-01    0.00       1.0  T
  95   -482.3838490  0.179020E-01  0.186E-01    0.01       1.0  T
  96   -482.4236875 -0.398386E-01  0.100E-01    0.00       1.0  T
  97   -482.3058386  0.117849E+00  0.289E-01    0.00       1.0  T
  98   -482.4045373 -0.986988E-01  0.142E-01    0.01       1.0  T
  99   -482.3932277  0.113096E-01  0.168E-01    0.01       1.0  T
 100   -482.4103356 -0.171079E-01  0.128E-01    0.01       1.0  T
 101   -482.4290407 -0.187051E-01  0.716E-02    0.00       1.0  T
 102   -482.4229811  0.605955E-02  0.952E-02    0.00       1.0  T
 103   -482.4013873  0.215938E-01  0.153E-01    0.01       1.0  T
 104   -482.4115343 -0.101471E-01  0.131E-01    0.00       1.0  T
 105   -482.3921280  0.194064E-01  0.172E-01    0.01       1.0  T
 106   -482.4058366 -0.137086E-01  0.145E-01    0.00       1.0  T
 107   -482.4100316 -0.419505E-02  0.135E-01    0.00       1.0  T
 108   -482.4210899 -0.110583E-01  0.105E-01    0.01       1.0  T
 109   -482.4261758 -0.508590E-02  0.856E-02    0.01       1.0  T
 110   -482.4325751 -0.639936E-02  0.541E-02    0.01       1.0  T
 111   -482.4340714 -0.149628E-02  0.420E-02    0.01       1.0  T
 112   -482.4345112 -0.439801E-03  0.376E-02    0.01       1.0  T
 113   -482.4350526 -0.541350E-03  0.307E-02    0.01       1.0  T
 114   -482.4356679 -0.615358E-03  0.239E-02    0.01       1.0  T
 115   -482.4359727 -0.304759E-03  0.194E-02    0.01       1.0  T
 116   -482.4365524 -0.579693E-03  0.504E-03    0.01       1.2  T
 117   -482.4365424  0.995586E-05  0.568E-03    0.01       1.0  T
 118   -482.4365325  0.990888E-05  0.604E-03    0.01       1.0  T
 119   -482.4365324  0.132067E-06  0.594E-03    0.01       1.0  T
 120   -482.4365489 -0.165565E-04  0.501E-03    0.01       1.2  T
 121   -482.4365653 -0.163656E-04  0.364E-03    0.01       1.6  T
 122   -482.4365751 -0.974800E-05  0.231E-03    0.01       2.5  T
 123   -482.4365670  0.806379E-05  0.305E-03    0.01       1.9  T
 124   -482.4365761 -0.914960E-05  0.212E-03    0.01       2.8  T
 125   -482.4365784 -0.223633E-05  0.175E-03    0.01       3.3  T
 126   -482.4365769  0.144622E-05  0.199E-03    0.01       2.9  T
 127   -482.4365774 -0.455160E-06  0.182E-03    0.01       3.2  T
 128   -482.4365714  0.597215E-05  0.265E-03    0.01       2.2  T
 129   -482.4365747 -0.329844E-05  0.225E-03    0.01       2.6  T
 130   -482.4365785 -0.381574E-05  0.158E-03    0.01       3.7  T
 131   -482.4365764  0.212631E-05  0.194E-03    0.01       3.0  T
 132   -482.4365801 -0.369066E-05  0.114E-03    0.01       5.1  T
 133   -482.4365815 -0.143996E-05  0.621E-04    0.01       9.4  T
 134   -482.4365816 -0.770584E-07  0.577E-04    0.01      10.1  T
 135   -482.4365816  0.337682E-07  0.609E-04    0.01       9.6  T
 136   -482.4365818 -0.272261E-06  0.466E-04    0.01      12.5  T
 137   -482.4365818  0.361504E-07  0.477E-04    0.01      12.2  T
 138   -482.4365817  0.732105E-07  0.516E-04    0.01      11.3  T
 139   -482.4365817  0.703593E-07  0.559E-04    0.01      10.4  T
 140   -482.4365820 -0.322324E-06  0.324E-04    0.01      18.0  T
 141   -482.4365821 -0.606920E-07  0.247E-04    0.01      23.6  T
 142   -482.4365820  0.309918E-07  0.273E-04    0.01      21.4  T
 143   -482.4365820  0.220099E-07  0.295E-04    0.01      19.8  T
 144   -482.4365821 -0.112726E-06  0.136E-04    0.01      42.9  T
 145   -482.4365821 -0.113783E-07  0.108E-04    0.01      53.8  T

   *** convergence criteria satisfied after 145 iterations ***

         #    Occupation            Energy/Eh            Energy/eV
      -------------------------------------------------------------
         1        2.0000           -0.7745151             -21.0756
       ...           ...                  ...                  ...
       439        1.9932           -0.3743256             -10.1859
       440        1.9930           -0.3743019             -10.1853
       441        1.9765           -0.3731435             -10.1538
       442        1.4086           -0.3697594             -10.0617
       443        1.3554           -0.3696409             -10.0584
       444        1.3401           -0.3696077             -10.0575
       445        1.1331           -0.3691892             -10.0461 (HOMO)
       446        0.9958           -0.3689268             -10.0390 (LUMO)
       447        0.9279           -0.3687975             -10.0355
       448        0.8477           -0.3686431             -10.0313
       449        0.0346           -0.3650967              -9.9348
       450        0.0005           -0.3610509              -9.8247
       ...           ...                  ...                  ...
       984                          2.5259647              68.7350
      -------------------------------------------------------------
                  HL-Gap            0.0002623 Eh            0.0071 eV
             Fermi-level           -0.3689348 Eh          -10.0392 eV

 SCC (total)                   0 d,  0 h,  0 min, 53.417 sec
 SCC setup                      ...        0 min,  0.025 sec (  0.048%)
 Dispersion                     ...        0 min,  0.014 sec (  0.026%)
 classical contributions        ...        0 min,  0.004 sec (  0.007%)
 integral evaluation            ...        0 min,  0.384 sec (  0.719%)
 iterations                     ...        0 min, 52.127 sec ( 97.584%)
 molecular gradient             ...        0 min,  0.791 sec (  1.481%)
 printout                       ...        0 min,  0.072 sec (  0.135%)

         :::::::::::::::::::::::::::::::::::::::::::::::::::::
         ::                     SUMMARY                     ::
         :::::::::::::::::::::::::::::::::::::::::::::::::::::
         :: total energy            -473.504224972352 Eh    ::
         :: gradient norm              1.906531636737 Eh/a0 ::
         :: HOMO-LUMO gap              0.007138892578 eV    ::
         ::.................................................::
         :: SCC energy              -482.436582121343 Eh    ::
         :: -> electrostatic           0.219860404758 Eh    ::
         :: repulsion energy           9.180668078800 Eh    ::
         :: dispersion energy         -0.248310929810 Eh    ::
         :: halogen bond corr.         0.000000000000 Eh    ::
         :: add. restraining           0.000000000000 Eh    ::
         :: total charge               0.000000000000 e     ::
         :::::::::::::::::::::::::::::::::::::::::::::::::::::

      ----------------------------------------------------------- 
     |                   =====================                   |
     |                        A N C O P T                        |
     |                   =====================                   |
     |               Approximate Normal Coordinate               |
     |                Rational Function Optimizer                |
      ----------------------------------------------------------- 

          ...................................................
          :                      SETUP                      :
          :.................................................:
          :   optimization level            normal          :
          :   max. optcycles                   882          :
          :   ANC micro-cycles                  20          :
          :   degrees of freedom               876          :
          :.................................................:
          :   RF solver                   davidson          :
          :   write xtbopt.log                true          :
          :   linear?                        false          :
          :   energy convergence         0.5000000E-05 Eh   :
          :   grad. convergence          0.1000000E-02 Eh/α :
          :   maximium RF displ.         1.0000000          :
          :   Hlow (freq-cutoff)         0.1000000E-01      :
          :   Hmax (freq-cutoff)         5.0000000          :
          :   S6 in model hess.         20.0000000          :
          ...................................................

generating ANC from model Hessian ...
Using Lindh-Hessian (1995)
 Shifting diagonal of input Hessian by    1.0025537839409486E-002
 Lowest  eigenvalues of input Hessian
    0.010000    0.010001    0.010012    0.010012    0.010015    0.010016
    0.010019    0.010020    0.010022    0.010023    0.000000    0.000000
    0.000000    0.000000    0.000000    0.000000    0.010026    0.010028
 Highest eigenvalues
    3.115497    3.179795    3.256039    3.282689    3.669430    3.669473


........................................................................
.............................. CYCLE    1 ..............................
........................................................................
   1   -482.4365821 -0.482437E+03  0.738E-05    0.01       0.0  T
   2   -482.4360414  0.540771E-03  0.184E-02    0.01       1.0  T
   3   -482.4365794 -0.538004E-03  0.133E-03    0.01       4.4  T
   4   -482.4364688  0.110560E-03  0.844E-03    0.01       1.0  T
   5   -482.4364951 -0.262513E-04  0.744E-03    0.01       1.0  T
   6   -482.4364885  0.654264E-05  0.774E-03    0.01       1.0  T
   7   -482.4365551 -0.665566E-04  0.400E-03    0.01       1.5  T
   8   -482.4365401  0.149253E-04  0.499E-03    0.01       1.2  T
   9   -482.4365618 -0.216565E-04  0.350E-03    0.01       1.7  T
  10   -482.4365807 -0.188952E-04  0.926E-04    0.01       6.3  T
  11   -482.4365818 -0.110255E-05  0.460E-04    0.01      12.7  T
  12   -482.4365821 -0.320294E-06  0.114E-04    0.01      51.0  T
  13   -482.4365821  0.447380E-07  0.200E-04    0.01      29.2  T
     SCC iter.                  ...        0 min,  4.682 sec
     gradient                   ...        0 min,  0.786 sec
 * total energy  :  -473.5042249 Eh     change        0.4878189E-07 Eh
   gradient norm :     1.9065312 Eh/α   predicted     0.0000000E+00 (-100.00%)
   displ. norm   :     0.5596234 α      lambda       -0.1012366E+01
   maximum displ.:     0.2195099 α      in ANC's #872, #873, #868, ...

........................................................................
.............................. CYCLE    2 ..............................
........................................................................
   1   -482.3384662 -0.482338E+03  0.303E-01    0.01       0.0  T
   2   -473.9030639  0.843540E+01  0.245E+00    0.06       1.0  T
   3   -456.0985255  0.178045E+02  0.386E+00    0.23       1.0  T
   4   -458.6455067 -0.254698E+01  0.369E+00    0.09       1.0  T
   5   -455.6499251  0.299558E+01  0.394E+00    0.27       1.0  T
   6   -456.8802786 -0.123035E+01  0.380E+00    0.08       1.0  T
   7   -481.2544834 -0.243742E+02  0.875E-01    0.01       1.0  T
   8   -480.0118742  0.124261E+01  0.123E+00    0.01       1.0  T
   9   -480.3000442 -0.288170E+00  0.115E+00    0.02       1.0  T
  10   -481.6487520 -0.134871E+01  0.695E-01    0.02       1.0  T
  11   -479.6311832  0.201757E+01  0.134E+00    0.01       1.0  T
  12   -479.5595971  0.715861E-01  0.134E+00    0.05       1.0  T
  13   -480.5488707 -0.989274E+00  0.110E+00    0.02       1.0  T
  14   -481.2496202 -0.700749E+00  0.866E-01    0.02       1.0  T
  15   -481.6177715 -0.368151E+00  0.717E-01    0.01       1.0  T
  16   -480.2975217  0.132025E+01  0.115E+00    0.00       1.0  T
  17   -481.5595141 -0.126199E+01  0.749E-01    0.00       1.0  T
  18   -482.1363483 -0.576834E+00  0.419E-01    0.01       1.0  T
  19   -482.3107048 -0.174356E+00  0.269E-01    0.01       1.0  T
  20   -481.9839999  0.326705E+00  0.524E-01    0.00       1.0  T
  21   -482.1742265 -0.190227E+00  0.399E-01    0.01       1.0  T
  22   -482.3372812 -0.163055E+00  0.232E-01    0.00       1.0  T
  23   -482.3842647 -0.469835E-01  0.159E-01    0.01       1.0  T
  24   -482.3564371  0.278276E-01  0.207E-01    0.01       1.0  T
  25   -482.3958804 -0.394433E-01  0.130E-01    0.00       1.0  T
  26   -482.4055247 -0.964423E-02  0.105E-01    0.00       1.0  T
  27   -482.3945899  0.109347E-01  0.133E-01    0.00       1.0  T
  28   -482.4136867 -0.190968E-01  0.768E-02    0.00       1.0  T
  29   -482.4203791 -0.669237E-02  0.424E-02    0.01       1.0  T
  30   -482.4213617 -0.982562E-03  0.344E-02    0.00       1.0  T
  31   -482.4225339 -0.117222E-02  0.211E-02    0.01       1.0  T
  32   -482.4227491 -0.215250E-03  0.176E-02    0.01       1.0  T
  33   -482.4227101  0.390254E-04  0.183E-02    0.01       1.0  T
  34   -482.4227970 -0.869278E-04  0.167E-02    0.01       1.0  T
  35   -482.4231150 -0.317974E-03  0.887E-03    0.01       1.0  T
  36   -482.4231534 -0.383890E-04  0.732E-03    0.01       1.0  T
  37   -482.4231948 -0.414023E-04  0.519E-03    0.01       1.1  T
  38   -482.4232300 -0.352184E-04  0.194E-03    0.01       3.0  T
  39   -482.4232321 -0.206525E-05  0.160E-03    0.01       3.7  T
  40   -482.4232275  0.461013E-05  0.231E-03    0.01       2.5  T
  41   -482.4232317 -0.419852E-05  0.165E-03    0.01       3.5  T
  42   -482.4232329 -0.124268E-05  0.136E-03    0.01       4.3  T
  43   -482.4232344 -0.152072E-05  0.945E-04    0.01       6.2  T
  44   -482.4232354 -0.991406E-06  0.507E-04    0.01      11.5  T
  45   -482.4232354  0.295059E-07  0.536E-04    0.01      10.9  T
  46   -482.4232357 -0.305197E-06  0.294E-04    0.01      19.8  T
  47   -482.4232358 -0.119912E-06  0.103E-04    0.01      56.4  T
  48   -482.4232358  0.941657E-08  0.130E-04    0.01      44.8  T
     SCC iter.                  ...        0 min, 17.217 sec
     gradient                   ...        0 min,  0.789 sec
 * total energy  :  -474.1807565 Eh     change       -0.6765316E+00 Eh
   gradient norm :     0.7608471 Eh/α   predicted    -0.6647116E+00 (  -1.75%)
   displ. norm   :     0.5208879 α      lambda       -0.3250749E+00
   maximum displ.:     0.1189965 α      in ANC's #873, #874, #732, ...

........................................................................
.............................. CYCLE    3 ..............................
........................................................................
   1   -482.4648432 -0.482465E+03  0.321E-01    0.03       0.0  T
   2   -471.6221301  0.108427E+02  0.282E+00    0.11       1.0  T
   3   -471.2021911  0.419939E+00  0.267E+00    0.01       1.0  T
   4   -461.0104681  0.101917E+02  0.355E+00    0.11       1.0  T
   5   -475.0065841 -0.139961E+02  0.216E+00    0.00       1.0  T
   6   -457.4650930  0.175415E+02  0.378E+00    0.25       1.0  T
   7   -477.6006287 -0.201355E+02  0.175E+00    0.05       1.0  T
   8   -480.0785680 -0.247794E+01  0.125E+00    0.03       1.0  T
   9   -479.7654633  0.313105E+00  0.136E+00    0.02       1.0  T
  10   -479.0291841  0.736279E+00  0.152E+00    0.03       1.0  T
  11   -479.0326425 -0.345839E-02  0.152E+00    0.03       1.0  T
  12   -479.7537210 -0.721079E+00  0.138E+00    0.00       1.0  T
  13   -480.3706616 -0.616941E+00  0.119E+00    0.00       1.0  T
  14   -479.1120037  0.125866E+01  0.146E+00    0.05       1.0  T
  15   -478.5930825  0.518921E+00  0.160E+00    0.03       1.0  T
  16   -481.3736386 -0.278056E+01  0.870E-01    0.02       1.0  T
  17   -482.2486306 -0.874992E+00  0.466E-01    0.00       1.0  T
  18   -481.6308046  0.617826E+00  0.777E-01    0.02       1.0  T
  19   -482.4976382 -0.866834E+00  0.238E-01    0.00       1.0  T
  20   -482.3652717  0.132367E+00  0.380E-01    0.00       1.0  T
  21   -482.5182253 -0.152954E+00  0.213E-01    0.00       1.0  T
  22   -482.5844868 -0.662615E-01  0.453E-02    0.01       1.0  T
  23   -482.3490244  0.235462E+00  0.391E-01    0.02       1.0  T
  24   -482.5495235 -0.200499E+00  0.155E-01    0.01       1.0  T
  25   -482.4966051  0.529184E-01  0.241E-01    0.00       1.0  T
  26   -482.5818593 -0.852542E-01  0.629E-02    0.01       1.0  T
  27   -482.5750433  0.681598E-02  0.932E-02    0.00       1.0  T
  28   -482.5758928 -0.849506E-03  0.868E-02    0.01       1.0  T
  29   -482.5830566 -0.716380E-02  0.552E-02    0.01       1.0  T
  30   -482.5852513 -0.219469E-02  0.416E-02    0.01       1.0  T
  31   -482.5862619 -0.101056E-02  0.318E-02    0.01       1.0  T
  32   -482.5860671  0.194774E-03  0.338E-02    0.01       1.0  T
  33   -482.5877056 -0.163852E-02  0.114E-02    0.01       1.0  T
  34   -482.5867299  0.975683E-03  0.273E-02    0.01       1.0  T
  35   -482.5875015 -0.771548E-03  0.160E-02    0.01       1.0  T
  36   -482.5876212 -0.119697E-03  0.138E-02    0.01       1.0  T
  37   -482.5876602 -0.390173E-04  0.126E-02    0.01       1.0  T
  38   -482.5878235 -0.163357E-03  0.768E-03    0.01       1.0  T
  39   -482.5878185  0.498695E-05  0.785E-03    0.01       1.0  T
  40   -482.5878817 -0.631088E-04  0.463E-03    0.01       1.3  T
  41   -482.5878836 -0.196601E-05  0.450E-03    0.01       1.3  T
  42   -482.5879031 -0.194519E-04  0.277E-03    0.01       2.1  T
  43   -482.5879118 -0.871503E-05  0.138E-03    0.01       4.2  T
  44   -482.5879121 -0.283279E-06  0.129E-03    0.01       4.5  T
  45   -482.5879133 -0.125038E-05  0.934E-04    0.01       6.2  T
  46   -482.5879136 -0.279664E-06  0.810E-04    0.01       7.2  T
  47   -482.5879141 -0.504337E-06  0.577E-04    0.01      10.1  T
  48   -482.5879145 -0.436409E-06  0.240E-04    0.01      24.3  T
  49   -482.5879146 -0.312764E-07  0.193E-04    0.01      30.2  T
  50   -482.5879146 -0.546601E-07  0.516E-05    0.01     113.0  T
     SCC iter.                  ...        0 min, 18.042 sec
     gradient                   ...        0 min,  0.789 sec
 * total energy  :  -474.4017682 Eh     change       -0.2210117E+00 Eh
   gradient norm :     0.2821760 Eh/α   predicted    -0.2066379E+00 (  -6.50%)
   displ. norm   :     0.6640441 α      lambda       -0.1304583E+00
   maximum displ.:     0.2427978 α      in ANC's #254, #250, #168, ...

........................................................................
.............................. CYCLE    4 ..............................
........................................................................
   1   -482.5744840 -0.482574E+03  0.264E-01    0.05       0.0  T
   2   -474.1022310  0.847225E+01  0.259E+00    0.02       1.0  T
   3   -470.8856012  0.321663E+01  0.271E+00    0.02       1.0  T
   4   -474.2665131 -0.338091E+01  0.227E+00    0.01       1.0  T
   5   -465.7357151  0.853080E+01  0.317E+00    0.02       1.0  T
   6   -477.3467850 -0.116111E+02  0.183E+00    0.01       1.0  T
   7   -480.0996357 -0.275285E+01  0.127E+00    0.06       1.0  T
   8   -478.1958520  0.190378E+01  0.165E+00    0.04       1.0  T
   9   -479.5297230 -0.133387E+01  0.142E+00    0.03       1.0  T
  10   -478.7589462  0.770777E+00  0.160E+00    0.04       1.0  T
  11   -479.0334951 -0.274549E+00  0.155E+00    0.05       1.0  T
  12   -479.2352205 -0.201725E+00  0.146E+00    0.05       1.0  T
  13   -480.2927749 -0.105755E+01  0.125E+00    0.00       1.0  T
  14   -480.0299047  0.262870E+00  0.131E+00    0.02       1.0  T
  15   -481.9558344 -0.192593E+01  0.662E-01    0.01       1.0  T
  16   -480.1986266  0.175721E+01  0.124E+00    0.00       1.0  T
  17   -481.9971444 -0.179852E+01  0.647E-01    0.03       1.0  T
  18   -482.5127970 -0.515653E+00  0.313E-01    0.01       1.0  T
  19   -481.8968797  0.615917E+00  0.695E-01    0.03       1.0  T
  20   -482.6378536 -0.740974E+00  0.134E-01    0.02       1.0  T
  21   -482.3408191  0.297035E+00  0.458E-01    0.00       1.0  T
  22   -482.5331509 -0.192332E+00  0.290E-01    0.01       1.0  T
  23   -482.5771598 -0.440089E-01  0.236E-01    0.01       1.0  T
  24   -482.5693822  0.777763E-02  0.244E-01    0.01       1.0  T
  25   -482.5867717 -0.173895E-01  0.225E-01    0.02       1.0  T
  26   -482.6470101 -0.602384E-01  0.104E-01    0.02       1.0  T
  27   -482.6528127 -0.580254E-02  0.854E-02    0.02       1.0  T
  28   -482.6580186 -0.520590E-02  0.611E-02    0.02       1.0  T
  29   -482.6607989 -0.278034E-02  0.425E-02    0.02       1.0  T
  30   -482.6614556 -0.656729E-03  0.372E-02    0.02       1.0  T
  31   -482.6628110 -0.135540E-02  0.232E-02    0.02       1.0  T
  32   -482.6630050 -0.193962E-03  0.203E-02    0.02       1.0  T
  33   -482.6632397 -0.234688E-03  0.162E-02    0.02       1.0  T
  34   -482.6632095  0.301772E-04  0.168E-02    0.02       1.0  T
  35   -482.6634623 -0.252827E-03  0.107E-02    0.02       1.0  T
  36   -482.6632496  0.212758E-03  0.159E-02    0.02       1.0  T
  37   -482.6635292 -0.279580E-03  0.853E-03    0.02       1.0  T
  38   -482.6634655  0.636090E-04  0.106E-02    0.02       1.0  T
  39   -482.6635350 -0.694966E-04  0.821E-03    0.02       1.0  T
  40   -482.6635777 -0.426149E-04  0.629E-03    0.02       1.0  T
  41   -482.6635857 -0.803195E-05  0.583E-03    0.02       1.0  T
  42   -482.6636111 -0.254331E-04  0.420E-03    0.02       1.4  T
  43   -482.6636251 -0.139418E-04  0.295E-03    0.02       2.0  T
  44   -482.6636343 -0.920254E-05  0.171E-03    0.02       3.4  T
  45   -482.6636378 -0.353519E-05  0.822E-04    0.02       7.1  T
  46   -482.6636387 -0.878596E-06  0.338E-04    0.02      17.2  T
  47   -482.6636388 -0.155714E-06  0.126E-04    0.02      46.4  T
  48   -482.6636388 -0.157641E-07  0.784E-05    0.02      74.4  T
     SCC iter.                  ...        0 min, 17.288 sec
     gradient                   ...        0 min,  0.787 sec
 * total energy  :  -474.4999732 Eh     change       -0.9820507E-01 Eh
   gradient norm :     0.1577548 Eh/α   predicted    -0.9399232E-01 (  -4.29%)
   displ. norm   :     0.7893322 α      lambda       -0.8744911E-01
   maximum displ.:     0.2699808 α      in ANC's #254, #250, #168, ...

........................................................................
.............................. CYCLE    5 ..............................
........................................................................
   1   -482.6141124 -0.482614E+03  0.221E-01    0.07       0.0  T
   2   -474.6314785  0.798263E+01  0.232E+00    0.02       1.0  T
   3   -454.8777520  0.197537E+02  0.400E+00    0.67       1.0  T
   4   -465.0245031 -0.101468E+02  0.325E+00    0.02       1.0  T
   5   -457.8289303  0.719557E+01  0.382E+00    0.16       1.0  T
   6   -478.9219167 -0.210930E+02  0.153E+00    0.00       1.0  T
   7   -460.0305792  0.188913E+02  0.361E+00    0.14       1.0  T
   8   -474.8030860 -0.147725E+02  0.220E+00    0.02       1.0  T
   9   -479.7867488 -0.498366E+01  0.135E+00    0.02       1.0  T
  10   -476.4293960  0.335735E+01  0.197E+00    0.02       1.0  T
  11   -477.5907590 -0.116136E+01  0.178E+00    0.02       1.0  T
  12   -482.0268371 -0.443608E+01  0.663E-01    0.03       1.0  T
  13   -482.3895443 -0.362707E+00  0.405E-01    0.01       1.0  T
  14   -481.3674388  0.102211E+01  0.950E-01    0.02       1.0  T
  15   -481.2702796  0.971592E-01  0.959E-01    0.03       1.0  T
  16   -481.2400774  0.302021E-01  0.948E-01    0.02       1.0  T
  17   -482.2637331 -0.102366E+01  0.512E-01    0.02       1.0  T
  18   -482.0706115  0.193122E+00  0.605E-01    0.02       1.0  T
  19   -482.4150775 -0.344466E+00  0.406E-01    0.02       1.0  T
  20   -482.2865722  0.128505E+00  0.491E-01    0.01       1.0  T
  21   -481.8289997  0.457573E+00  0.731E-01    0.02       1.0  T
  22   -482.6267489 -0.797749E+00  0.174E-01    0.04       1.0  T
  23   -482.2406154  0.386134E+00  0.523E-01    0.00       1.0  T
  24   -482.4571221 -0.216507E+00  0.374E-01    0.02       1.0  T
  25   -482.4683426 -0.112206E-01  0.364E-01    0.01       1.0  T
  26   -482.5335475 -0.652049E-01  0.303E-01    0.02       1.0  T
  27   -482.5761031 -0.425555E-01  0.255E-01    0.03       1.0  T
  28   -482.5984925 -0.223894E-01  0.224E-01    0.03       1.0  T
  29   -482.6177412 -0.192487E-01  0.193E-01    0.03       1.0  T
  30   -482.6499567 -0.322155E-01  0.127E-01    0.04       1.0  T
  31   -482.6616598 -0.117031E-01  0.892E-02    0.04       1.0  T
  32   -482.6702202 -0.856040E-02  0.486E-02    0.04       1.0  T
  33   -482.6734485 -0.322836E-02  0.148E-02    0.04       1.0  T
  34   -482.6733233  0.125214E-03  0.166E-02    0.04       1.0  T
  35   -482.6736276 -0.304301E-03  0.940E-03    0.04       1.0  T
  36   -482.6736690 -0.414017E-04  0.782E-03    0.04       1.0  T
  37   -482.6737200 -0.510240E-04  0.526E-03    0.04       1.1  T
  38   -482.6737383 -0.182671E-04  0.381E-03    0.04       1.5  T
  39   -482.6737504 -0.121239E-04  0.232E-03    0.04       2.5  T
  40   -482.6737556 -0.512225E-05  0.131E-03    0.04       4.5  T
  41   -482.6737564 -0.821491E-06  0.108E-03    0.04       5.4  T
  42   -482.6737578 -0.146639E-05  0.483E-04    0.04      12.1  T
  43   -482.6737580 -0.110069E-06  0.409E-04    0.04      14.3  T
  44   -482.6737580 -0.706876E-08  0.406E-04    0.04      14.4  T
  45   -482.6737579  0.220896E-07  0.421E-04    0.04      13.8  T
  46   -482.6737581 -0.116910E-06  0.325E-04    0.04      17.9  T
  47   -482.6737581  0.573283E-08  0.328E-04    0.04      17.8  T
  48   -482.6737582 -0.125056E-06  0.173E-04    0.04      33.7  T
  49   -482.6737582 -0.422777E-07  0.623E-05    0.04      93.6  T
     SCC iter.                  ...        0 min, 17.649 sec
     gradient                   ...        0 min,  0.784 sec
 * total energy  :  -474.5730255 Eh     change       -0.7305232E-01 Eh
   gradient norm :     0.1166071 Eh/α   predicted    -0.7096698E-01 (  -2.85%)
   displ. norm   :     0.8878902 α      lambda       -0.7608670E-01
   maximum displ.:     0.2783392 α      in ANC's #168, #61, #254, ...

........................................................................
.............................. CYCLE    6 ..............................
........................................................................
   1   -482.6078997 -0.482608E+03  0.188E-01    0.07       0.0  T
   2   -459.2902794  0.233176E+02  0.371E+00    0.10       1.0  T
   3   -456.2847734  0.300551E+01  0.393E+00    0.29       1.0  T
   4   -476.6578837 -0.203731E+02  0.223E+00    0.05       1.0  T
   5   -474.8518197  0.180606E+01  0.220E+00    0.01       1.0  T
   6   -462.1397806  0.127120E+02  0.348E+00    0.11       1.0  T
   7   -481.9515845 -0.198118E+02  0.656E-01    0.03       1.0  T
   8   -474.3811466  0.757044E+01  0.224E+00    0.02       1.0  T
   9   -476.5421119 -0.216097E+01  0.195E+00    0.01       1.0  T
  10   -482.4656970 -0.592359E+01  0.336E-01    0.06       1.0  T
  11   -482.1130005  0.352696E+00  0.563E-01    0.03       1.0  T
  12   -482.5402668 -0.427266E+00  0.262E-01    0.01       1.0  T
  13   -481.4701327  0.107013E+01  0.865E-01    0.01       1.0  T
  14   -481.5912116 -0.121079E+00  0.818E-01    0.00       1.0  T
  15   -480.1039102  0.148730E+01  0.125E+00    0.00       1.0  T
  16   -480.9116095 -0.807699E+00  0.105E+00    0.02       1.0  T
  17   -482.4421097 -0.153050E+01  0.355E-01    0.05       1.0  T
  18   -482.4258433  0.162664E-01  0.369E-01    0.03       1.0  T
  19   -482.6232973 -0.197454E+00  0.127E-01    0.05       1.0  T
  20   -482.6296133 -0.631604E-02  0.108E-01    0.04       1.0  T
  21   -482.6425194 -0.129061E-01  0.656E-02    0.05       1.0  T
  22   -482.6440382 -0.151885E-02  0.607E-02    0.05       1.0  T
  23   -482.6195029  0.245354E-01  0.137E-01    0.05       1.0  T
  24   -482.6343390 -0.148361E-01  0.963E-02    0.05       1.0  T
  25   -482.6357916 -0.145259E-02  0.911E-02    0.05       1.0  T
  26   -482.6383064 -0.251486E-02  0.819E-02    0.05       1.0  T
  27   -482.6442817 -0.597522E-02  0.551E-02    0.05       1.0  T
  28   -482.6482813 -0.399965E-02  0.243E-02    0.05       1.0  T
  29   -482.6487565 -0.475240E-03  0.172E-02    0.05       1.0  T
  30   -482.6490390 -0.282468E-03  0.112E-02    0.05       1.0  T
  31   -482.6490483 -0.925914E-05  0.107E-02    0.05       1.0  T
  32   -482.6491669 -0.118600E-03  0.632E-03    0.05       1.0  T
  33   -482.6491336  0.332237E-04  0.776E-03    0.05       1.0  T
  34   -482.6491713 -0.376247E-04  0.606E-03    0.05       1.0  T
  35   -482.6492002 -0.289493E-04  0.440E-03    0.05       1.3  T
  36   -482.6492071 -0.688018E-05  0.384E-03    0.05       1.5  T
  37   -482.6492255 -0.184269E-04  0.185E-03    0.05       3.1  T
  38   -482.6492290 -0.352067E-05  0.110E-03    0.05       5.3  T
  39   -482.6492291 -0.466923E-08  0.107E-03    0.05       5.4  T
  40   -482.6492294 -0.308016E-06  0.966E-04    0.05       6.0  T
  41   -482.6492295 -0.171680E-06  0.891E-04    0.05       6.5  T
  42   -482.6492299 -0.322617E-06  0.762E-04    0.05       7.7  T
  43   -482.6492299 -0.851755E-07  0.719E-04    0.05       8.1  T
  44   -482.6492304 -0.410997E-06  0.490E-04    0.05      11.9  T
  45   -482.6492306 -0.232311E-06  0.288E-04    0.05      20.3  T
  46   -482.6492307 -0.116599E-06  0.724E-05    0.05      80.5  T
  47   -482.6492307 -0.300588E-08  0.555E-05    0.05     105.1  T
     SCC iter.                  ...        0 min, 16.882 sec
     gradient                   ...        0 min,  0.789 sec
 * total energy  :  -474.6447350 Eh     change       -0.7170946E-01 Eh
   gradient norm :     0.1113197 Eh/α   predicted    -0.6803497E-01 (  -5.12%)
   displ. norm   :     0.9369762 α      lambda       -0.7692493E-01
   maximum displ.:     0.3010247 α      in ANC's #168, #61, #166, ...

........................................................................
.............................. CYCLE    7 ..............................
........................................................................
   1   -482.5816482 -0.482582E+03  0.176E-01    0.07       0.0  T
   2   -455.6497818  0.269319E+02  0.396E+00    0.27       1.0  T
   3   -455.6759929 -0.262111E-01  0.396E+00    0.45       1.0  T
   4   -476.9931143 -0.213171E+02  0.217E+00    0.08       1.0  T
   5   -476.1105264  0.882588E+00  0.204E+00    0.02       1.0  T
   6   -457.8045782  0.183059E+02  0.380E+00    0.19       1.0  T
   7   -480.6891690 -0.228846E+02  0.108E+00    0.01       1.0  T
   8   -473.0827109  0.760646E+01  0.242E+00    0.01       1.0  T
   9   -481.2120974 -0.812939E+01  0.979E-01    0.05       1.0  T
  10   -479.2502882  0.196181E+01  0.145E+00    0.00       1.0  T
  11   -481.6078405 -0.235755E+01  0.785E-01    0.01       1.0  T
  12   -479.3196300  0.228821E+01  0.143E+00    0.03       1.0  T
  13   -479.8049445 -0.485314E+00  0.132E+00    0.03       1.0  T
  14   -475.7063294  0.409862E+01  0.203E+00    0.02       1.0  T
  15   -480.6413980 -0.493507E+01  0.111E+00    0.03       1.0  T
  16   -479.0066409  0.163476E+01  0.152E+00    0.01       1.0  T
  17   -479.8345244 -0.827883E+00  0.134E+00    0.01       1.0  T
  18   -480.8945097 -0.105999E+01  0.104E+00    0.01       1.0  T
  19   -482.0201161 -0.112561E+01  0.608E-01    0.03       1.0  T
  20   -482.5585067 -0.538391E+00  0.186E-01    0.04       1.0  T
  21   -482.5745505 -0.160438E-01  0.177E-01    0.04       1.0  T
  22   -482.5395125  0.350380E-01  0.224E-01    0.04       1.0  T
  23   -482.5450785 -0.556596E-02  0.209E-01    0.04       1.0  T
  24   -482.5651520 -0.200735E-01  0.183E-01    0.04       1.0  T
  25   -482.6120203 -0.468683E-01  0.579E-02    0.05       1.0  T
  26   -482.6025801  0.944020E-02  0.986E-02    0.05       1.0  T
  27   -482.6015792  0.100087E-02  0.975E-02    0.05       1.0  T
  28   -482.5806051  0.209741E-01  0.150E-01    0.05       1.0  T
  29   -482.5926355 -0.120304E-01  0.122E-01    0.05       1.0  T
  30   -482.5995178 -0.688230E-02  0.104E-01    0.05       1.0  T
  31   -482.6038056 -0.428775E-02  0.893E-02    0.05       1.0  T
  32   -482.6136679 -0.986235E-02  0.422E-02    0.05       1.0  T
  33   -482.6152815 -0.161361E-02  0.272E-02    0.06       1.0  T
  34   -482.6161117 -0.830163E-03  0.142E-02    0.06       1.0  T
  35   -482.6163015 -0.189858E-03  0.886E-03    0.06       1.0  T
  36   -482.6163786 -0.770232E-04  0.542E-03    0.06       1.1  T
  37   -482.6163918 -0.132532E-04  0.468E-03    0.06       1.2  T
  38   -482.6163985 -0.664723E-05  0.421E-03    0.06       1.4  T
  39   -482.6164052 -0.672879E-05  0.368E-03    0.06       1.6  T
  40   -482.6164056 -0.422903E-06  0.360E-03    0.06       1.6  T
  41   -482.6164112 -0.558648E-05  0.305E-03    0.06       1.9  T
  42   -482.6164169 -0.566997E-05  0.235E-03    0.06       2.5  T
  43   -482.6164235 -0.667699E-05  0.979E-04    0.06       6.0  T
  44   -482.6164247 -0.118028E-05  0.278E-04    0.06      21.0  T
  45   -482.6164248 -0.710687E-07  0.128E-04    0.06      45.6  T
  46   -482.6164248 -0.483197E-08  0.109E-04    0.06      53.6  T
     SCC iter.                  ...        0 min, 16.542 sec
     gradient                   ...        0 min,  0.795 sec
 * total energy  :  -474.7146684 Eh     change       -0.6993338E-01 Eh
   gradient norm :     0.1009490 Eh/α   predicted    -0.7222963E-01 (   3.28%)
   displ. norm   :     0.8774181 α      lambda       -0.6038972E-01
   maximum displ.:     0.3432565 α      in ANC's #61, #168, #60, ...

........................................................................
.............................. CYCLE    8 ..............................
........................................................................
   1   -482.5867064 -0.482587E+03  0.118E-01    0.06       0.0  T
   2   -456.6528975  0.259338E+02  0.386E+00    0.16       1.0  T
   3   -455.6352922  0.101761E+01  0.394E+00    0.61       1.0  T
   4   -477.5869406 -0.219516E+02  0.175E+00    0.04       1.0  T
   5   -458.9820230  0.186049E+02  0.373E+00    0.14       1.0  T
   6   -482.0549420 -0.230729E+02  0.585E-01    0.05       1.0  T
   7   -472.4303965  0.962455E+01  0.246E+00    0.03       1.0  T
   8   -470.7710006  0.165940E+01  0.267E+00    0.02       1.0  T
   9   -481.0145152 -0.102435E+02  0.979E-01    0.00       1.0  T
  10   -476.7608796  0.425364E+01  0.189E+00    0.00       1.0  T
  11   -482.5801123 -0.581923E+01  0.112E-01    0.08       1.0  T
  12   -481.0338527  0.154626E+01  0.996E-01    0.02       1.0  T
  13   -480.6530828  0.380770E+00  0.110E+00    0.02       1.0  T
  14   -480.4704870  0.182596E+00  0.113E+00    0.02       1.0  T
  15   -480.7666148 -0.296128E+00  0.109E+00    0.00       1.0  T
  16   -482.5291997 -0.176258E+01  0.215E-01    0.04       1.0  T
  17   -482.4306402  0.985595E-01  0.333E-01    0.02       1.0  T
  18   -482.3904044  0.402358E-01  0.368E-01    0.02       1.0  T
  19   -482.0179807  0.372424E+00  0.600E-01    0.01       1.0  T
  20   -482.4531063 -0.435126E+00  0.305E-01    0.03       1.0  T
  21   -482.0445793  0.408527E+00  0.581E-01    0.02       1.0  T
  22   -482.5878856 -0.543306E+00  0.918E-02    0.05       1.0  T
  23   -482.5422336  0.456520E-01  0.195E-01    0.05       1.0  T
  24   -482.5751012 -0.328676E-01  0.129E-01    0.05       1.0  T
  25   -482.5837909 -0.868967E-02  0.107E-01    0.05       1.0  T
  26   -482.5899334 -0.614254E-02  0.868E-02    0.05       1.0  T
  27   -482.5882466  0.168679E-02  0.927E-02    0.05       1.0  T
  28   -482.5916187 -0.337209E-02  0.797E-02    0.05       1.0  T
  29   -482.5939527 -0.233394E-02  0.696E-02    0.05       1.0  T
  30   -482.5971209 -0.316828E-02  0.528E-02    0.05       1.0  T
  31   -482.5991675 -0.204655E-02  0.375E-02    0.05       1.0  T
  32   -482.5996867 -0.519208E-03  0.325E-02    0.06       1.0  T
  33   -482.5999069 -0.220257E-03  0.297E-02    0.06       1.0  T
  34   -482.6004171 -0.510156E-03  0.228E-02    0.06       1.0  T
  35   -482.6008123 -0.395249E-03  0.155E-02    0.06       1.0  T
  36   -482.6009775 -0.165165E-03  0.109E-02    0.06       1.0  T
  37   -482.6010966 -0.119046E-03  0.573E-03    0.06       1.0  T
  38   -482.6011305 -0.338926E-04  0.252E-03    0.06       2.3  T
  39   -482.6011220  0.849301E-05  0.333E-03    0.06       1.8  T
  40   -482.6011191  0.283418E-05  0.364E-03    0.06       1.6  T
  41   -482.6011303 -0.111971E-04  0.245E-03    0.06       2.4  T
  42   -482.6011377 -0.741809E-05  0.115E-03    0.06       5.1  T
  43   -482.6011387 -0.994513E-06  0.818E-04    0.06       7.1  T
  44   -482.6011395 -0.750290E-06  0.478E-04    0.06      12.2  T
  45   -482.6011398 -0.288091E-06  0.239E-04    0.06      24.4  T
  46   -482.6011398 -0.566716E-07  0.153E-04    0.06      38.0  T
  47   -482.6011398 -0.103573E-07  0.132E-04    0.06      44.2  T
     SCC iter.                  ...        0 min, 16.531 sec
     gradient                   ...        0 min,  0.789 sec
 * total energy  :  -474.7609638 Eh     change       -0.4629545E-01 Eh
   gradient norm :     0.0891448 Eh/α   predicted    -0.5344077E-01 (  15.43%)
   displ. norm   :     0.7385993 α      lambda       -0.3767994E-01
   maximum displ.:     0.3497720 α      in ANC's #61, #60, #168, ...

........................................................................
.............................. CYCLE    9 ..............................
........................................................................
   1   -482.6435356 -0.482644E+03  0.364E-02    0.06       0.0  T
   2   -480.4549060  0.218863E+01  0.126E+00    0.00       1.0  T
   3   -480.6409567 -0.186051E+00  0.118E+00    0.01       1.0  T
   4   -479.8803250  0.760632E+00  0.131E+00    0.01       1.0  T
   5   -479.8277627  0.525623E-01  0.133E+00    0.02       1.0  T
   6   -481.7489671 -0.192120E+01  0.765E-01    0.03       1.0  T
   7   -480.5721002  0.117687E+01  0.113E+00    0.01       1.0  T
   8   -480.7458030 -0.173703E+00  0.110E+00    0.01       1.0  T
   9   -477.0134329  0.373237E+01  0.188E+00    0.01       1.0  T
  10   -478.3960872 -0.138265E+01  0.164E+00    0.03       1.0  T
  11   -481.3171533 -0.292107E+01  0.910E-01    0.00       1.0  T
  12   -481.1768254  0.140328E+00  0.946E-01    0.01       1.0  T
  13   -482.4687242 -0.129190E+01  0.332E-01    0.05       1.0  T
  14   -482.5987758 -0.130052E+00  0.168E-01    0.05       1.0  T
  15   -482.5071759  0.915999E-01  0.295E-01    0.04       1.0  T
  16   -482.5678794 -0.607036E-01  0.220E-01    0.04       1.0  T
  17   -482.6026399 -0.347605E-01  0.164E-01    0.05       1.0  T
  18   -482.6032794 -0.639497E-03  0.162E-01    0.05       1.0  T
  19   -482.6320812 -0.288018E-01  0.933E-02    0.05       1.0  T
  20   -482.6402711 -0.818985E-02  0.605E-02    0.05       1.0  T
  21   -482.6409564 -0.685335E-03  0.559E-02    0.05       1.0  T
  22   -482.6391333  0.182309E-02  0.659E-02    0.05       1.0  T
  23   -482.6365844  0.254891E-02  0.774E-02    0.05       1.0  T
  24   -482.6351609  0.142347E-02  0.835E-02    0.05       1.0  T
  25   -482.6344852  0.675766E-03  0.865E-02    0.05       1.0  T
  26   -482.6391563 -0.467108E-02  0.648E-02    0.05       1.0  T
  27   -482.6416630 -0.250670E-02  0.497E-02    0.05       1.0  T
  28   -482.6398412  0.182176E-02  0.599E-02    0.05       1.0  T
  29   -482.6396150  0.226202E-03  0.610E-02    0.05       1.0  T
  30   -482.6405674 -0.952360E-03  0.554E-02    0.05       1.0  T
  31   -482.6400537  0.513659E-03  0.579E-02    0.05       1.0  T
  32   -482.6424456 -0.239186E-02  0.417E-02    0.05       1.0  T
  33   -482.6431611 -0.715583E-03  0.350E-02    0.05       1.0  T
  34   -482.6441049 -0.943722E-03  0.244E-02    0.06       1.0  T
  35   -482.6446090 -0.504100E-03  0.161E-02    0.06       1.0  T
  36   -482.6448652 -0.256212E-03  0.947E-03    0.06       1.0  T
  37   -482.6449751 -0.109942E-03  0.418E-03    0.06       1.4  T
  38   -482.6449963 -0.211293E-04  0.189E-03    0.06       3.1  T
  39   -482.6450011 -0.488303E-05  0.610E-04    0.06       9.6  T
  40   -482.6450015 -0.400190E-06  0.294E-04    0.06      19.9  T
  41   -482.6450016 -0.814882E-07  0.184E-04    0.06      31.8  T
  42   -482.6450017 -0.383968E-07  0.980E-05    0.06      59.5  T
     SCC iter.                  ...        0 min, 15.051 sec
     gradient                   ...        0 min,  0.788 sec
 * total energy  :  -474.7925942 Eh     change       -0.3163037E-01 Eh
   gradient norm :     0.0640401 Eh/α   predicted    -0.2911780E-01 (  -7.94%)
   displ. norm   :     0.8354426 α      lambda       -0.3423716E-01
   maximum displ.:     0.4501463 α      in ANC's #61, #60, #18, ...

........................................................................
.............................. CYCLE   10 ..............................
........................................................................
   1   -482.7037370 -0.482704E+03  0.551E-02    0.07       0.0  T
   2   -462.2971540  0.204066E+02  0.348E+00    0.06       1.0  T
   3   -471.8875730 -0.959042E+01  0.257E+00    0.04       1.0  T
   4   -478.5918030 -0.670423E+01  0.162E+00    0.00       1.0  T
   5   -478.2659495  0.325854E+00  0.167E+00    0.03       1.0  T
   6   -480.3222066 -0.205626E+01  0.124E+00    0.02       1.0  T
   7   -473.1751196  0.714709E+01  0.241E+00    0.03       1.0  T
   8   -473.2276029 -0.524833E-01  0.241E+00    0.02       1.0  T
   9   -473.0542730  0.173330E+00  0.242E+00    0.02       1.0  T
  10   -473.1914901 -0.137217E+00  0.241E+00    0.02       1.0  T
  11   -471.4239725  0.176752E+01  0.262E+00    0.02       1.0  T
  12   -465.1414465  0.628253E+01  0.322E+00    0.04       1.0  T
  13   -467.4393111 -0.229786E+01  0.302E+00    0.01       1.0  T
  14   -469.1966279 -0.175732E+01  0.285E+00    0.02       1.0  T
  15   -468.5471201  0.649508E+00  0.291E+00    0.04       1.0  T
  16   -468.8174899 -0.270370E+00  0.289E+00    0.03       1.0  T
  17   -472.5260429 -0.370855E+01  0.248E+00    0.02       1.0  T
  18   -479.3039605 -0.677792E+01  0.145E+00    0.02       1.0  T
  19   -480.4878521 -0.118389E+01  0.116E+00    0.01       1.0  T
  20   -479.1580571  0.132979E+01  0.147E+00    0.01       1.0  T
  21   -481.2213671 -0.206331E+01  0.952E-01    0.01       1.0  T
  22   -482.2891113 -0.106774E+01  0.501E-01    0.04       1.0  T
  23   -479.8480203  0.244109E+01  0.134E+00    0.00       1.0  T
  24   -476.2851383  0.356288E+01  0.198E+00    0.00       1.0  T
  25   -479.7630866 -0.347795E+01  0.136E+00    0.01       1.0  T
  26   -481.9501475 -0.218706E+01  0.702E-01    0.03       1.0  T
  27   -479.8374743  0.211267E+01  0.134E+00    0.02       1.0  T
  28   -480.8448645 -0.100739E+01  0.108E+00    0.01       1.0  T
  29   -482.4494209 -0.160456E+01  0.417E-01    0.04       1.0  T
  30   -482.1907948  0.258626E+00  0.579E-01    0.04       1.0  T
  31   -482.6452588 -0.454464E+00  0.214E-01    0.05       1.0  T
  32   -482.5172942  0.127965E+00  0.357E-01    0.04       1.0  T
  33   -482.5395372 -0.222430E-01  0.337E-01    0.05       1.0  T
  34   -482.3354521  0.204085E+00  0.493E-01    0.05       1.0  T
  35   -482.3357049 -0.252772E-03  0.494E-01    0.05       1.0  T
  36   -482.4579902 -0.122285E+00  0.407E-01    0.05       1.0  T
  37   -482.5402288 -0.822386E-01  0.334E-01    0.05       1.0  T
  38   -482.4266022  0.113627E+00  0.424E-01    0.05       1.0  T
  39   -482.5585602 -0.131958E+00  0.311E-01    0.05       1.0  T
  40   -482.5816006 -0.230404E-01  0.284E-01    0.05       1.0  T
  41   -482.6248335 -0.432330E-01  0.230E-01    0.05       1.0  T
  42   -482.6578505 -0.330169E-01  0.179E-01    0.05       1.0  T
  43   -482.6813587 -0.235082E-01  0.131E-01    0.05       1.0  T
  44   -482.6896589 -0.830017E-02  0.109E-01    0.05       1.0  T
  45   -482.6942004 -0.454151E-02  0.949E-02    0.06       1.0  T
  46   -482.7025756 -0.837522E-02  0.616E-02    0.06       1.0  T
  47   -482.7051631 -0.258747E-02  0.463E-02    0.06       1.0  T
  48   -482.7043807  0.782329E-03  0.515E-02    0.06       1.0  T
  49   -482.7042480  0.132726E-03  0.523E-02    0.06       1.0  T
  50   -482.7043141 -0.660758E-04  0.520E-02    0.06       1.0  T
  51   -482.7044745 -0.160426E-03  0.509E-02    0.06       1.0  T
  52   -482.7063815 -0.190699E-02  0.363E-02    0.06       1.0  T
  53   -482.7072312 -0.849696E-03  0.270E-02    0.06       1.0  T
  54   -482.7078957 -0.664559E-03  0.166E-02    0.06       1.0  T
  55   -482.7081807 -0.284985E-03  0.853E-03    0.06       1.0  T
  56   -482.7082439 -0.631981E-04  0.564E-03    0.06       1.0  T
  57   -482.7082419  0.206871E-05  0.570E-03    0.06       1.0  T
  58   -482.7082551 -0.132600E-04  0.490E-03    0.06       1.2  T
  59   -482.7082668 -0.117219E-04  0.402E-03    0.06       1.5  T
  60   -482.7082741 -0.721933E-05  0.333E-03    0.06       1.8  T
  61   -482.7082818 -0.770223E-05  0.239E-03    0.06       2.4  T
  62   -482.7082884 -0.658942E-05  0.121E-03    0.06       4.8  T
  63   -482.7082899 -0.153783E-05  0.673E-04    0.06       8.7  T
  64   -482.7082906 -0.678721E-06  0.142E-04    0.06      41.0  T
  65   -482.7082906 -0.259405E-07  0.536E-05    0.06     108.8  T
     SCC iter.                  ...        0 min, 23.250 sec
     gradient                   ...        0 min,  0.782 sec
 * total energy  :  -474.8179230 Eh     change       -0.2532884E-01 Eh
   gradient norm :     0.0691931 Eh/α   predicted    -0.2906675E-01 (  14.76%)
   displ. norm   :     0.8317463 α      lambda       -0.2670108E-01
   maximum displ.:     0.4328773 α      in ANC's #61, #60, #18, ...

........................................................................
.............................. CYCLE   11 ..............................
........................................................................
   1   -482.7451225 -0.482745E+03  0.323E-02    0.06       0.0  T
   2   -457.7506912  0.249944E+02  0.382E+00    0.30       1.0  T
   3   -478.0126278 -0.202619E+02  0.171E+00    0.01       1.0  T
   4   -478.1540566 -0.141429E+00  0.168E+00    0.01       1.0  T
   5   -477.0892318  0.106482E+01  0.186E+00    0.01       1.0  T
   6   -479.0187767 -0.192954E+01  0.153E+00    0.02       1.0  T
   7   -479.9338003 -0.915024E+00  0.131E+00    0.02       1.0  T
   8   -481.9270218 -0.199322E+01  0.730E-01    0.04       1.0  T
   9   -478.1851526  0.374187E+01  0.167E+00    0.00       1.0  T
  10   -479.3718673 -0.118671E+01  0.145E+00    0.01       1.0  T
  11   -480.6934776 -0.132161E+01  0.114E+00    0.02       1.0  T
  12   -481.7973195 -0.110384E+01  0.772E-01    0.03       1.0  T
  13   -482.2069039 -0.409584E+00  0.577E-01    0.03       1.0  T
  14   -482.6078420 -0.400938E+00  0.299E-01    0.04       1.0  T
  15   -482.5046118  0.103230E+00  0.386E-01    0.05       1.0  T
  16   -482.7391093 -0.234497E+00  0.700E-02    0.06       1.0  T
  17   -482.6823606  0.567487E-01  0.205E-01    0.05       1.0  T
  18   -482.6579695  0.243910E-01  0.238E-01    0.05       1.0  T
  19   -482.7161912 -0.582217E-01  0.143E-01    0.06       1.0  T
  20   -482.7332766 -0.170853E-01  0.986E-02    0.06       1.0  T
  21   -482.7280554  0.522114E-02  0.115E-01    0.05       1.0  T
  22   -482.7297752 -0.171981E-02  0.109E-01    0.06       1.0  T
  23   -482.7288215  0.953746E-03  0.112E-01    0.06       1.0  T
  24   -482.7327134 -0.389196E-02  0.100E-01    0.06       1.0  T
  25   -482.7395898 -0.687636E-02  0.737E-02    0.06       1.0  T
  26   -482.7431871 -0.359726E-02  0.550E-02    0.06       1.0  T
  27   -482.7452644 -0.207738E-02  0.404E-02    0.06       1.0  T
  28   -482.7451435  0.120925E-03  0.412E-02    0.06       1.0  T
  29   -482.7450699  0.736196E-04  0.416E-02    0.06       1.0  T
  30   -482.7434170  0.165289E-02  0.531E-02    0.06       1.0  T
  31   -482.7433054  0.111616E-03  0.538E-02    0.06       1.0  T
  32   -482.7443562 -0.105084E-02  0.467E-02    0.06       1.0  T
  33   -482.7459849 -0.162870E-02  0.325E-02    0.06       1.0  T
  34   -482.7471237 -0.113878E-02  0.165E-02    0.06       1.0  T
  35   -482.7474546 -0.330908E-03  0.651E-03    0.06       1.0  T
  36   -482.7474425  0.121154E-04  0.705E-03    0.06       1.0  T
  37   -482.7474677 -0.252047E-04  0.563E-03    0.06       1.0  T
  38   -482.7474735 -0.577228E-05  0.520E-03    0.06       1.1  T
  39   -482.7474840 -0.105380E-04  0.432E-03    0.06       1.4  T
  40   -482.7475014 -0.173798E-04  0.236E-03    0.06       2.5  T
  41   -482.7475068 -0.538913E-05  0.134E-03    0.06       4.4  T
  42   -482.7475090 -0.218715E-05  0.681E-04    0.06       8.6  T
  43   -482.7475097 -0.700615E-06  0.184E-04    0.06      31.6  T
  44   -482.7475097 -0.468809E-07  0.698E-05    0.06      83.6  T
     SCC iter.                  ...        0 min, 15.701 sec
     gradient                   ...        0 min,  0.788 sec
 * total energy  :  -474.8375951 Eh     change       -0.1967209E-01 Eh
   gradient norm :     0.0557252 Eh/α   predicted    -0.2258647E-01 (  14.81%)
   displ. norm   :     0.8300402 α      lambda       -0.2126478E-01
   maximum displ.:     0.5220594 α      in ANC's #61, #60, #18, ...

........................................................................
.............................. CYCLE   12 ..............................
........................................................................
   1   -482.7827328 -0.482783E+03  0.352E-02    0.06       0.0  T
   2   -458.4284732  0.243543E+02  0.377E+00    0.20       1.0  T
   3   -477.9026388 -0.194742E+02  0.176E+00    0.01       1.0  T
   4   -479.3915965 -0.148896E+01  0.145E+00    0.01       1.0  T
   5   -478.1115695  0.128003E+01  0.170E+00    0.02       1.0  T
   6   -482.2668120 -0.415524E+01  0.590E-01    0.06       1.0  T
   7   -477.0125216  0.525429E+01  0.185E+00    0.02       1.0  T
   8   -482.6055928 -0.559307E+01  0.335E-01    0.06       1.0  T
   9   -480.9170623  0.168853E+01  0.108E+00    0.00       1.0  T
  10   -478.3868065  0.253026E+01  0.163E+00    0.00       1.0  T
  11   -482.3103450 -0.392354E+01  0.553E-01    0.01       1.0  T
  12   -481.8264485  0.483896E+00  0.765E-01    0.03       1.0  T
  13   -482.1267678 -0.300319E+00  0.645E-01    0.02       1.0  T
  14   -482.7414477 -0.614680E+00  0.170E-01    0.06       1.0  T
  15   -482.5600934  0.181354E+00  0.377E-01    0.04       1.0  T
  16   -482.6730127 -0.112919E+00  0.265E-01    0.05       1.0  T
  17   -482.5465588  0.126454E+00  0.388E-01    0.03       1.0  T
  18   -482.7132499 -0.166691E+00  0.214E-01    0.05       1.0  T
  19   -482.6941581  0.190917E-01  0.237E-01    0.04       1.0  T
  20   -482.7515159 -0.573577E-01  0.144E-01    0.05       1.0  T
  21   -482.7757242 -0.242083E-01  0.759E-02    0.06       1.0  T
  22   -482.7836554 -0.793120E-02  0.318E-02    0.06       1.0  T
  23   -482.7842149 -0.559462E-03  0.270E-02    0.06       1.0  T
  24   -482.7839806  0.234270E-03  0.300E-02    0.06       1.0  T
  25   -482.7840818 -0.101182E-03  0.289E-02    0.06       1.0  T
  26   -482.7846975 -0.615686E-03  0.212E-02    0.06       1.0  T
  27   -482.7850107 -0.313276E-03  0.158E-02    0.06       1.0  T
  28   -482.7850540 -0.432921E-04  0.149E-02    0.06       1.0  T
  29   -482.7850465  0.748085E-05  0.149E-02    0.06       1.0  T
  30   -482.7850244  0.221140E-04  0.154E-02    0.06       1.0  T
  31   -482.7850050  0.194672E-04  0.158E-02    0.06       1.0  T
  32   -482.7849756  0.293109E-04  0.164E-02    0.06       1.0  T
  33   -482.7849689  0.678167E-05  0.165E-02    0.06       1.0  T
  34   -482.7850880 -0.119119E-03  0.139E-02    0.06       1.0  T
  35   -482.7852452 -0.157248E-03  0.951E-03    0.06       1.0  T
  36   -482.7853207 -0.754830E-04  0.637E-03    0.06       1.0  T
  37   -482.7853525 -0.317955E-04  0.440E-03    0.06       1.3  T
  38   -482.7853589 -0.641611E-05  0.386E-03    0.06       1.5  T
  39   -482.7853605 -0.162016E-05  0.370E-03    0.06       1.6  T
  40   -482.7853638 -0.324894E-05  0.339E-03    0.06       1.7  T
  41   -482.7853700 -0.623088E-05  0.269E-03    0.06       2.2  T
  42   -482.7853776 -0.753820E-05  0.144E-03    0.06       4.1  T
  43   -482.7853794 -0.180017E-05  0.883E-04    0.06       6.6  T
  44   -482.7853803 -0.949458E-06  0.352E-04    0.06      16.6  T
  45   -482.7853805 -0.157945E-06  0.130E-04    0.06      44.8  T
  46   -482.7853805 -0.159815E-07  0.768E-05    0.06      75.9  T
     SCC iter.                  ...        0 min, 16.536 sec
     gradient                   ...        0 min,  0.794 sec
 * total energy  :  -474.8510678 Eh     change       -0.1347269E-01 Eh
   gradient norm :     0.0682171 Eh/α   predicted    -0.1795776E-01 (  33.29%)
   displ. norm   :     0.7380539 α      lambda       -0.2101062E-01
   maximum displ.:     0.4018161 α      in ANC's #61, #60, #18, ...

........................................................................
.............................. CYCLE   13 ..............................
........................................................................
   1   -482.8211239 -0.482821E+03  0.671E-02    0.07       0.0  T
   2   -459.0203664  0.238008E+02  0.374E+00    0.14       1.0  T
   3   -460.1346813 -0.111431E+01  0.365E+00    0.11       1.0  T
   4   -481.0593851 -0.209247E+02  0.118E+00    0.03       1.0  T
   5   -476.9769365  0.408245E+01  0.189E+00    0.00       1.0  T
   6   -482.6284655 -0.565153E+01  0.370E-01    0.09       1.0  T
   7   -482.0698184  0.558647E+00  0.674E-01    0.03       1.0  T
   8   -477.1231895  0.494663E+01  0.187E+00    0.04       1.0  T
   9   -482.1547701 -0.503158E+01  0.651E-01    0.05       1.0  T
  10   -481.4218769  0.732893E+00  0.926E-01    0.02       1.0  T
  11   -482.6699445 -0.124807E+01  0.313E-01    0.06       1.0  T
  12   -482.7052069 -0.352624E-01  0.275E-01    0.04       1.0  T
  13   -482.6279565  0.772503E-01  0.356E-01    0.04       1.0  T
  14   -482.7755029 -0.147546E+00  0.179E-01    0.06       1.0  T
  15   -482.8223504 -0.468475E-01  0.554E-02    0.06       1.0  T
  16   -482.8254013 -0.305090E-02  0.373E-02    0.06       1.0  T
  17   -482.8222226  0.317875E-02  0.599E-02    0.06       1.0  T
  18   -482.8193725  0.285010E-02  0.735E-02    0.06       1.0  T
  19   -482.8196949 -0.322424E-03  0.721E-02    0.06       1.0  T
  20   -482.8217459 -0.205102E-02  0.626E-02    0.06       1.0  T
  21   -482.8187067  0.303917E-02  0.771E-02    0.06       1.0  T
  22   -482.8239545 -0.524778E-02  0.494E-02    0.06       1.0  T
  23   -482.8241365 -0.181979E-03  0.482E-02    0.06       1.0  T
  24   -482.8239737  0.162805E-03  0.495E-02    0.06       1.0  T
  25   -482.8238991  0.746474E-04  0.500E-02    0.06       1.0  T
  26   -482.8241994 -0.300390E-03  0.478E-02    0.06       1.0  T
  27   -482.8253421 -0.114262E-02  0.391E-02    0.06       1.0  T
  28   -482.8259989 -0.656843E-03  0.330E-02    0.06       1.0  T
  29   -482.8269123 -0.913435E-03  0.219E-02    0.06       1.0  T
  30   -482.8273190 -0.406639E-03  0.143E-02    0.06       1.0  T
  31   -482.8274925 -0.173496E-03  0.948E-03    0.06       1.0  T
  32   -482.8275538 -0.612880E-04  0.698E-03    0.06       1.0  T
  33   -482.8275885 -0.347132E-04  0.496E-03    0.06       1.2  T
  34   -482.8276134 -0.249216E-04  0.267E-03    0.06       2.2  T
  35   -482.8276212 -0.776540E-05  0.120E-03    0.06       4.9  T
  36   -482.8276224 -0.120419E-05  0.741E-04    0.06       7.9  T
  37   -482.8276229 -0.501580E-06  0.460E-04    0.06      12.7  T
  38   -482.8276231 -0.205737E-06  0.285E-04    0.06      20.4  T
  39   -482.8276231 -0.393586E-07  0.236E-04    0.06      24.7  T
  40   -482.8276231 -0.148418E-07  0.213E-04    0.06      27.4  T
  41   -482.8276232 -0.229360E-07  0.174E-04    0.06      33.6  T
  42   -482.8276232 -0.285985E-07  0.106E-04    0.06      55.1  T
     SCC iter.                  ...        0 min, 15.015 sec
     gradient                   ...        0 min,  0.790 sec
 * total energy  :  -474.8641673 Eh     change       -0.1309944E-01 Eh
   gradient norm :     0.0812354 Eh/α   predicted    -0.1622781E-01 (  23.88%)
   displ. norm   :     0.7263339 α      lambda       -0.1476124E-01
   maximum displ.:     0.4645279 α      in ANC's #61, #60, #18, ...

........................................................................
.............................. CYCLE   14 ..............................
........................................................................
   1   -482.8478004 -0.482848E+03  0.559E-02    0.06       0.0  T
   2   -460.3292180  0.225186E+02  0.363E+00    0.09       1.0  T
   3   -457.3331412  0.299608E+01  0.386E+00    0.33       1.0  T
   4   -481.5370462 -0.242039E+02  0.900E-01    0.01       1.0  T
   5   -481.3928839  0.144162E+00  0.965E-01    0.00       1.0  T
   6   -471.5180601  0.987482E+01  0.261E+00    0.03       1.0  T
   7   -470.1144528  0.140361E+01  0.274E+00    0.02       1.0  T
   8   -466.0879163  0.402654E+01  0.313E+00    0.03       1.0  T
   9   -480.0426761 -0.139548E+02  0.132E+00    0.01       1.0  T
  10   -479.7709884  0.271688E+00  0.140E+00    0.01       1.0  T
  11   -481.1790912 -0.140810E+01  0.102E+00    0.02       1.0  T
  12   -482.7345219 -0.155543E+01  0.270E-01    0.04       1.0  T
  13   -482.5795789  0.154943E+00  0.423E-01    0.02       1.0  T
  14   -482.5700915  0.948743E-02  0.412E-01    0.02       1.0  T
  15   -482.7434600 -0.173368E+00  0.266E-01    0.05       1.0  T
  16   -482.8139649 -0.705049E-01  0.158E-01    0.06       1.0  T
  17   -482.8194445 -0.547964E-02  0.146E-01    0.05       1.0  T
  18   -482.8203299 -0.885373E-03  0.145E-01    0.05       1.0  T
  19   -482.8422867 -0.219568E-01  0.848E-02    0.06       1.0  T
  20   -482.8484349 -0.614817E-02  0.586E-02    0.06       1.0  T
  21   -482.8415266  0.690828E-02  0.886E-02    0.06       1.0  T
  22   -482.8452667 -0.374016E-02  0.736E-02    0.06       1.0  T
  23   -482.8401213  0.514546E-02  0.929E-02    0.06       1.0  T
  24   -482.8389871  0.113413E-02  0.966E-02    0.06       1.0  T
  25   -482.8401516 -0.116444E-02  0.928E-02    0.06       1.0  T
  26   -482.8396574  0.494197E-03  0.946E-02    0.06       1.0  T
  27   -482.8405142 -0.856819E-03  0.916E-02    0.06       1.0  T
  28   -482.8425146 -0.200044E-02  0.840E-02    0.06       1.0  T
  29   -482.8459187 -0.340401E-02  0.692E-02    0.06       1.0  T
  30   -482.8490525 -0.313381E-02  0.520E-02    0.06       1.0  T
  31   -482.8511481 -0.209559E-02  0.363E-02    0.06       1.0  T
  32   -482.8524860 -0.133797E-02  0.207E-02    0.06       1.0  T
  33   -482.8527951 -0.309103E-03  0.150E-02    0.06       1.0  T
  34   -482.8529586 -0.163493E-03  0.109E-02    0.06       1.0  T
  35   -482.8529716 -0.129542E-04  0.104E-02    0.06       1.0  T
  36   -482.8530213 -0.497619E-04  0.859E-03    0.06       1.0  T
  37   -482.8530698 -0.484018E-04  0.624E-03    0.06       1.0  T
  38   -482.8530826 -0.128150E-04  0.543E-03    0.06       1.1  T
  39   -482.8531047 -0.221668E-04  0.369E-03    0.06       1.6  T
  40   -482.8531209 -0.161457E-04  0.154E-03    0.06       3.8  T
  41   -482.8531238 -0.294002E-05  0.643E-04    0.06       9.1  T
  42   -482.8531244 -0.555879E-06  0.240E-04    0.06      24.3  T
  43   -482.8531244 -0.729847E-07  0.109E-04    0.06      53.6  T
  44   -482.8531245 -0.173931E-07  0.222E-05    0.06     262.4  T
     SCC iter.                  ...        0 min, 15.712 sec
     gradient                   ...        0 min,  0.794 sec
 * total energy  :  -474.8754810 Eh     change       -0.1131378E-01 Eh
   gradient norm :     0.0397664 Eh/α   predicted    -0.1127436E-01 (  -0.35%)
   displ. norm   :     0.8250557 α      lambda       -0.1273262E-01
   maximum displ.:     0.4574136 α      in ANC's #61, #60, #18, ...

........................................................................
.............................. CYCLE   15 ..............................
........................................................................
   1   -482.8703772 -0.482870E+03  0.616E-02    0.05       0.0  T
   2   -470.1472873  0.127231E+02  0.280E+00    0.00       1.0  T
   3   -457.9574662  0.121898E+02  0.381E+00    0.25       1.0  T
   4   -480.9704511 -0.230130E+02  0.109E+00    0.00       1.0  T
   5   -482.0264271 -0.105598E+01  0.745E-01    0.03       1.0  T
   6   -481.1729733  0.853454E+00  0.109E+00    0.06       1.0  T
   7   -472.2901042  0.888287E+01  0.249E+00    0.02       1.0  T
   8   -469.3787850  0.291132E+01  0.281E+00    0.01       1.0  T
   9   -479.7769704 -0.103982E+02  0.139E+00    0.01       1.0  T
  10   -466.7293432  0.130476E+02  0.309E+00    0.04       1.0  T
  11   -477.1790372 -0.104497E+02  0.189E+00    0.01       1.0  T
  12   -480.5766458 -0.339761E+01  0.120E+00    0.00       1.0  T
  13   -478.9056030  0.167104E+01  0.159E+00    0.00       1.0  T
  14   -480.2216597 -0.131606E+01  0.128E+00    0.01       1.0  T
  15   -473.1247130  0.709695E+01  0.241E+00    0.01       1.0  T
  16   -482.1531489 -0.902844E+01  0.686E-01    0.03       1.0  T
  17   -481.4918357  0.661313E+00  0.938E-01    0.01       1.0  T
  18   -482.7034222 -0.121159E+01  0.337E-01    0.06       1.0  T
  19   -482.6996847  0.373746E-02  0.338E-01    0.04       1.0  T
  20   -482.7731534 -0.734687E-01  0.259E-01    0.06       1.0  T
  21   -482.8001086 -0.269553E-01  0.223E-01    0.06       1.0  T
  22   -482.8627236 -0.626150E-01  0.972E-02    0.06       1.0  T
  23   -482.8644903 -0.176664E-02  0.901E-02    0.06       1.0  T
  24   -482.8674016 -0.291134E-02  0.805E-02    0.06       1.0  T
  25   -482.8673617  0.398813E-04  0.799E-02    0.06       1.0  T
  26   -482.8681659 -0.804157E-03  0.772E-02    0.06       1.0  T
  27   -482.8651230  0.304293E-02  0.892E-02    0.06       1.0  T
  28   -482.8610311  0.409191E-02  0.103E-01    0.06       1.0  T
  29   -482.8605583  0.472782E-03  0.104E-01    0.06       1.0  T
  30   -482.8609342 -0.375908E-03  0.103E-01    0.06       1.0  T
  31   -482.8621592 -0.122501E-02  0.993E-02    0.06       1.0  T
  32   -482.8624407 -0.281498E-03  0.981E-02    0.06       1.0  T
  33   -482.8651056 -0.266494E-02  0.883E-02    0.06       1.0  T
  34   -482.8672189 -0.211330E-02  0.800E-02    0.06       1.0  T
  35   -482.8674730 -0.254064E-03  0.788E-02    0.06       1.0  T
  36   -482.8682651 -0.792098E-03  0.753E-02    0.06       1.0  T
  37   -482.8690786 -0.813527E-03  0.716E-02    0.06       1.0  T
  38   -482.8705225 -0.144389E-02  0.643E-02    0.07       1.0  T
  39   -482.8719498 -0.142727E-02  0.563E-02    0.07       1.0  T
  40   -482.8722176 -0.267796E-03  0.548E-02    0.07       1.0  T
  41   -482.8721664  0.511649E-04  0.551E-02    0.07       1.0  T
  42   -482.8728461 -0.679676E-03  0.508E-02    0.07       1.0  T
  43   -482.8746496 -0.180350E-02  0.371E-02    0.06       1.0  T
  44   -482.8760509 -0.140129E-02  0.213E-02    0.06       1.0  T
  45   -482.8765391 -0.488171E-03  0.115E-02    0.06       1.0  T
  46   -482.8767046 -0.165504E-03  0.505E-03    0.06       1.2  T
  47   -482.8767344 -0.298837E-04  0.248E-03    0.06       2.4  T
  48   -482.8767422 -0.776783E-05  0.107E-03    0.06       5.4  T
  49   -482.8767438 -0.154558E-05  0.363E-04    0.06      16.1  T
  50   -482.8767439 -0.166429E-06  0.133E-04    0.06      43.7  T
  51   -482.8767439 -0.160884E-07  0.829E-05    0.06      70.3  T
     SCC iter.                  ...        0 min, 18.306 sec
     gradient                   ...        0 min,  0.793 sec
 * total energy  :  -474.8843840 Eh     change       -0.8902972E-02 Eh
   gradient norm :     0.0487675 Eh/α   predicted    -0.1069997E-01 (  20.18%)
   displ. norm   :     0.8035018 α      lambda       -0.1195884E-01
   maximum displ.:     0.5162749 α      in ANC's #61, #18, #41, ...

........................................................................
.............................. CYCLE   16 ..............................
........................................................................
   1   -482.8992236 -0.482899E+03  0.487E-02    0.06       0.0  T
   2   -473.5009635  0.939826E+01  0.245E+00    0.01       1.0  T
   3   -475.4684774 -0.196751E+01  0.213E+00    0.02       1.0  T
   4   -482.8121334 -0.734366E+01  0.249E-01    0.09       1.0  T
   5   -481.7675201  0.104461E+01  0.865E-01    0.08       1.0  T
   6   -467.9708611  0.137967E+02  0.296E+00    0.01       1.0  T
   7   -476.7412256 -0.877036E+01  0.192E+00    0.02       1.0  T
   8   -480.6458983 -0.390467E+01  0.120E+00    0.01       1.0  T
   9   -479.4112667  0.123463E+01  0.147E+00    0.01       1.0  T
  10   -480.1325398 -0.721273E+00  0.131E+00    0.01       1.0  T
  11   -478.9722812  0.116026E+01  0.155E+00    0.00       1.0  T
  12   -482.4004561 -0.342817E+01  0.572E-01    0.05       1.0  T
  13   -482.6470667 -0.246611E+00  0.405E-01    0.06       1.0  T
  14   -482.7113870 -0.643203E-01  0.352E-01    0.04       1.0  T
  15   -482.3733714  0.338016E+00  0.582E-01    0.05       1.0  T
  16   -482.7985069 -0.425135E+00  0.262E-01    0.05       1.0  T
  17   -482.7356270  0.628799E-01  0.328E-01    0.05       1.0  T
  18   -482.8016163 -0.659893E-01  0.259E-01    0.06       1.0  T
  19   -482.8088271 -0.721081E-02  0.249E-01    0.06       1.0  T
  20   -482.8147072 -0.588002E-02  0.242E-01    0.06       1.0  T
  21   -482.8128052  0.190197E-02  0.244E-01    0.05       1.0  T
  22   -482.8268221 -0.140169E-01  0.225E-01    0.06       1.0  T
  23   -482.8676434 -0.408213E-01  0.153E-01    0.06       1.0  T
  24   -482.8894261 -0.217827E-01  0.954E-02    0.06       1.0  T
  25   -482.8935883 -0.416215E-02  0.789E-02    0.06       1.0  T
  26   -482.8968674 -0.327915E-02  0.639E-02    0.06       1.0  T
  27   -482.8965823  0.285149E-03  0.646E-02    0.06       1.0  T
  28   -482.8994782 -0.289590E-02  0.480E-02    0.06       1.0  T
  29   -482.9015211 -0.204295E-02  0.316E-02    0.06       1.0  T
  30   -482.9023609 -0.839823E-03  0.212E-02    0.06       1.0  T
  31   -482.9027400 -0.379057E-03  0.142E-02    0.06       1.0  T
  32   -482.9029728 -0.232772E-03  0.653E-03    0.06       1.0  T
  33   -482.9029984 -0.256666E-04  0.479E-03    0.06       1.2  T
  34   -482.9030008 -0.241699E-05  0.423E-03    0.06       1.4  T
  35   -482.9029687  0.321467E-04  0.611E-03    0.06       1.0  T
  36   -482.9029584  0.102968E-04  0.664E-03    0.06       1.0  T
  37   -482.9029613 -0.294495E-05  0.650E-03    0.06       1.0  T
  38   -482.9029788 -0.174144E-04  0.559E-03    0.06       1.0  T
  39   -482.9029971 -0.183634E-04  0.441E-03    0.06       1.3  T
  40   -482.9030099 -0.127879E-04  0.331E-03    0.06       1.8  T
  41   -482.9030223 -0.123862E-04  0.166E-03    0.06       3.5  T
  42   -482.9030261 -0.376084E-05  0.509E-04    0.06      11.5  T
  43   -482.9030264 -0.362171E-06  0.135E-04    0.06      43.3  T
  44   -482.9030264 -0.238804E-07  0.432E-05    0.06     135.0  T
     SCC iter.                  ...        0 min, 15.778 sec
[...]
    15   6 C       33   7 N                                       1.3624193
    18   6 C       33   7 N                                       1.3754083
    34   6 C       35   6 C                                       1.3942219
    35   6 C       36   6 C                                       1.3905375
    36   6 C       38   6 C                                       1.3918828
    38   6 C       39   6 C                                       1.3916262
    34   6 C       41   6 C                                       1.3940103
    39   6 C       41   6 C                                       1.3908043
     2   6 C       42   1 H                                       1.0843262
     4   6 C       43   1 H                                       1.0785109
     5   6 C       44   1 H                                       1.0779076
    10   6 C       45   1 H                                       1.0777932
    11   6 C       46   1 H                                       1.0780963
    16   6 C       47   1 H                                       1.0781518
    17   6 C       48   1 H                                       1.0778078
    21   6 C       49   1 H                                       1.0844856
    23   6 C       50   1 H                                       1.0900749
    23   6 C       51   1 H                                       1.0924468
    23   6 C       52   1 H                                       1.0902834
    24   6 C       53   1 H                                       1.0852146
    26   6 C       54   1 H                                       1.0898308
    26   6 C       55   1 H                                       1.0908082
    26   6 C       56   1 H                                       1.0921457
    27   6 C       57   1 H                                       1.0844480
    29   6 C       58   1 H                                       1.0779073
    30   6 C       59   1 H                                       1.0785036
    35   6 C       60   1 H                                       1.0844794
    37   6 C       61   1 H                                       1.0903523
    37   6 C       62   1 H                                       1.0900404
    37   6 C       63   1 H                                       1.0924139
    38   6 C       64   1 H                                       1.0852005
    40   6 C       65   1 H                                       1.0924177
    40   6 C       66   1 H                                       1.0902649
    40   6 C       67   1 H                                       1.0901070
    41   6 C       68   1 H                                       1.0844925
    70   6 C       71   6 C                                       1.3796317
    71   6 C       72   6 C                                       1.4315585
    72   6 C       73   6 C                                       1.3538141
    73   6 C       74   6 C                                       1.4344244
    71   6 C       75   7 N                                       1.3698864
    74   6 C       75   7 N                                       1.3697075
    74   6 C       76   6 C                                       1.3898229
    76   6 C       77   6 C                                       1.3879167
    77   6 C       78   6 C                                       1.4326464
    78   6 C       79   6 C                                       1.3544199
    77   6 C       80   7 N                                       1.3747104
    79   6 C       81   6 C                                       1.4294107
    80   7 N       81   6 C                                       1.3646192
    81   6 C       82   6 C                                       1.3983837
    82   6 C       83   6 C                                       1.3986274
    83   6 C       84   6 C                                       1.4293524
    84   6 C       85   6 C                                       1.3544490
    85   6 C       86   6 C                                       1.4327756
    86   6 C       87   6 C                                       1.3873860
    88   6 C       89   6 C                                       1.3929878
    89   6 C       90   6 C                                       1.3916190
    90   6 C       92   6 C                                       1.3907528
    92   6 C       93   6 C                                       1.3927141
    88   6 C       95   6 C                                       1.3943027
    93   6 C       95   6 C                                       1.3899554
    87   6 C       96   6 C                                       1.3895908
    96   6 C       97   6 C                                       1.4343816
    97   6 C       98   6 C                                       1.3535852
    70   6 C       99   6 C                                       1.3792216
    98   6 C       99   6 C                                       1.4318070
    96   6 C      100   7 N                                       1.3696081
    99   6 C      100   7 N                                       1.3704920
    83   6 C      101   7 N                                       1.3639509
    86   6 C      101   7 N                                       1.3749784
   102   6 C      103   6 C                                       1.3941694
   103   6 C      104   6 C                                       1.3905576
   104   6 C      106   6 C                                       1.3918586
   106   6 C      107   6 C                                       1.3916190
   102   6 C      109   6 C                                       1.3939000
   107   6 C      109   6 C                                       1.3908443
    70   6 C      110   1 H                                       1.0842365
    72   6 C      111   1 H                                       1.0785221
    73   6 C      112   1 H                                       1.0779377
    78   6 C      113   1 H                                       1.0777756
    79   6 C      114   1 H                                       1.0781082
    84   6 C      115   1 H                                       1.0781525
    85   6 C      116   1 H                                       1.0777906
    89   6 C      117   1 H                                       1.0844833
    91   6 C      118   1 H                                       1.0900827
    91   6 C      119   1 H                                       1.0924500
    91   6 C      120   1 H                                       1.0902922
    92   6 C      121   1 H                                       1.0852223
    94   6 C      122   1 H                                       1.0898488
    94   6 C      123   1 H                                       1.0907919
    94   6 C      124   1 H                                       1.0921691
    95   6 C      125   1 H                                       1.0844579
    97   6 C      126   1 H                                       1.0779414
    98   6 C      127   1 H                                       1.0785174
   103   6 C      128   1 H                                       1.0844854
   105   6 C      129   1 H                                       1.0903509
   105   6 C      130   1 H                                       1.0900588
   105   6 C      131   1 H                                       1.0924183
   106   6 C      132   1 H                                       1.0852096
   108   6 C      133   1 H                                       1.0924322
   108   6 C      134   1 H                                       1.0902624
   108   6 C      135   1 H                                       1.0901200
   109   6 C      136   1 H                                       1.0844981
   137   6 C      138   6 C                                       1.2267564
   139   6 C      140   6 C                                       1.2331290
   141   6 C      142   6 C                                       1.2332321
   143   6 C      144   6 C                                       1.2269911
   145   6 C      146   6 C                                       1.2271004
   147   6 C      148   6 C                                       1.2333812
   149   6 C      150   6 C                                       1.2333392
   151   6 C      152   6 C                                       1.2270088
   153   6 C      154   6 C                                       1.2252540
   155   6 C      156   6 C                                       1.2313233
   157   6 C      158   6 C                                       1.2311886
   159   6 C      160   6 C                                       1.2249632
   162   6 C      163   6 C                                       1.4015071
   163   6 C      164   6 C                                       1.4287709
   164   6 C      165   6 C                                       1.3557592
   165   6 C      166   6 C                                       1.4319187
   163   6 C      167   7 N                                       1.3628537
   166   6 C      167   7 N                                       1.3732237
   166   6 C      168   6 C                                       1.3896563
   168   6 C      169   6 C                                       1.3891913
   169   6 C      170   6 C                                       1.4320322
   170   6 C      171   6 C                                       1.3556891
   169   6 C      172   7 N                                       1.3738445
   171   6 C      173   6 C                                       1.4288078
   172   7 N      173   6 C                                       1.3624612
   173   6 C      174   6 C                                       1.4018159
   174   6 C      175   6 C                                       1.4017414
   175   6 C      176   6 C                                       1.4287720
   176   6 C      177   6 C                                       1.3557419
   177   6 C      178   6 C                                       1.4319537
   178   6 C      179   6 C                                       1.3894956
   180   6 C      181   6 C                                       1.3940593
   181   6 C      182   6 C                                       1.3909092
   182   6 C      184   6 C                                       1.3913754
   184   6 C      185   6 C                                       1.3921687
   180   6 C      187   6 C                                       1.3945030
   185   6 C      187   6 C                                       1.3903497
   179   6 C      188   6 C                                       1.3896048
   188   6 C      189   6 C                                       1.4319846
   189   6 C      190   6 C                                       1.3557781
   162   6 C      191   6 C                                       1.4018014
   190   6 C      191   6 C                                       1.4286434
   188   6 C      192   7 N                                       1.3735630
   191   6 C      192   7 N                                       1.3625627
   175   6 C      193   7 N                                       1.3626360
   178   6 C      193   7 N                                       1.3736118
   194   6 C      195   6 C                                       1.3936450
   195   6 C      196   6 C                                       1.3913522
   196   6 C      198   6 C                                       1.3910978
   198   6 C      199   6 C                                       1.3923631
   194   6 C      201   6 C                                       1.3946753
   199   6 C      201   6 C                                       1.3901205
   164   6 C      202   1 H                                       1.0781113
   165   6 C      203   1 H                                       1.0777935
   170   6 C      204   1 H                                       1.0777807
   171   6 C      205   1 H                                       1.0781127
   176   6 C      206   1 H                                       1.0781068
   177   6 C      207   1 H                                       1.0777807
   181   6 C      208   1 H                                       1.0844751
   183   6 C      209   1 H                                       1.0901160
   183   6 C      210   1 H                                       1.0924157
   183   6 C      211   1 H                                       1.0901919
   184   6 C      212   1 H                                       1.0851704
   186   6 C      213   1 H                                       1.0899766
   186   6 C      214   1 H                                       1.0903554
   186   6 C      215   1 H                                       1.0923843
   187   6 C      216   1 H                                       1.0844615
   189   6 C      217   1 H                                       1.0777611 (min)
   190   6 C      218   1 H                                       1.0781022
   195   6 C      219   1 H                                       1.0844823
   197   6 C      220   1 H                                       1.0900055
   197   6 C      221   1 H                                       1.0923939
   197   6 C      222   1 H                                       1.0903273
   198   6 C      223   1 H                                       1.0851652
   200   6 C      224   1 H                                       1.0903349
   200   6 C      225   1 H                                       1.0900029
   200   6 C      226   1 H                                       1.0923980
   201   6 C      227   1 H                                       1.0844671
   229   6 C      230   6 C                                       1.4012091
   230   6 C      231   6 C                                       1.4290885
   231   6 C      232   6 C                                       1.3553557
   232   6 C      233   6 C                                       1.4322132
   230   6 C      234   7 N                                       1.3627398
   233   6 C      234   7 N                                       1.3740302
   233   6 C      235   6 C                                       1.3883821
   235   6 C      236   6 C                                       1.3898890
   236   6 C      237   6 C                                       1.4320328
   237   6 C      238   6 C                                       1.3554663
   236   6 C      239   7 N                                       1.3730228
   238   6 C      240   6 C                                       1.4288024
   239   7 N      240   6 C                                       1.3640855
   240   6 C      241   6 C                                       1.3997041
   241   6 C      242   6 C                                       1.3994882
   242   6 C      243   6 C                                       1.4288605
   243   6 C      244   6 C                                       1.3554809
   244   6 C      245   6 C                                       1.4319344
   245   6 C      246   6 C                                       1.3903156
   247   6 C      248   6 C                                       1.3937877
   248   6 C      249   6 C                                       1.3911199
   249   6 C      251   6 C                                       1.3912880
   251   6 C      252   6 C                                       1.3921997
   247   6 C      254   6 C                                       1.3945331
   252   6 C      254   6 C                                       1.3902425
   246   6 C      255   6 C                                       1.3880619
   255   6 C      256   6 C                                       1.4323107
   256   6 C      257   6 C                                       1.3553574
   229   6 C      258   6 C                                       1.4015634
   257   6 C      258   6 C                                       1.4289980
   255   6 C      259   7 N                                       1.3746386
   258   6 C      259   7 N                                       1.3622801
   242   6 C      260   7 N                                       1.3644520
   245   6 C      260   7 N                                       1.3724548
   261   6 C      262   6 C                                       1.3936249
   262   6 C      263   6 C                                       1.3913242
   263   6 C      265   6 C                                       1.3910448
   265   6 C      266   6 C                                       1.3923771
   261   6 C      268   6 C                                       1.3945663
   266   6 C      268   6 C                                       1.3901970
   231   6 C      269   1 H                                       1.0781284
   232   6 C      270   1 H                                       1.0778013
   237   6 C      271   1 H                                       1.0777640
   238   6 C      272   1 H                                       1.0781100
   243   6 C      273   1 H                                       1.0781049
   244   6 C      274   1 H                                       1.0777809
   248   6 C      275   1 H                                       1.0844787
   250   6 C      276   1 H                                       1.0901008
   250   6 C      277   1 H                                       1.0924241
   250   6 C      278   1 H                                       1.0902399
   251   6 C      279   1 H                                       1.0851763
   253   6 C      280   1 H                                       1.0899989
   253   6 C      281   1 H                                       1.0903348
   253   6 C      282   1 H                                       1.0923973
   254   6 C      283   1 H                                       1.0844729
   256   6 C      284   1 H                                       1.0777724
   257   6 C      285   1 H                                       1.0781252
   262   6 C      286   1 H                                       1.0844874
   264   6 C      287   1 H                                       1.0899877
   264   6 C      288   1 H                                       1.0923823
   264   6 C      289   1 H                                       1.0903682
   265   6 C      290   1 H                                       1.0851739
   267   6 C      291   1 H                                       1.0903588
   267   6 C      292   1 H                                       1.0900144
   267   6 C      293   1 H                                       1.0923995
   268   6 C      294   1 H                                       1.0844764

 * 3 distinct bonds (by element types)

   Z      Z             #   av. dist./Å        max./Å        min./Å
   1 H    6 C         106     1.0854968     1.0924500     1.0777611
   6 C    6 C         140     1.3829046     1.4344319     1.2249632
   6 C    7 N          32     1.3688609     1.3754083     1.3622801


optimized geometry written to: xtbopt.xyz


           -------------------------------------------------
          | TOTAL ENERGY             -474.921577052465 Eh   |
          | GRADIENT NORM               0.000429309899 Eh/α |
          | HOMO-LUMO GAP               0.050889145897 eV   |
           -------------------------------------------------

------------------------------------------------------------------------
 * finished run on 2022/07/29 at 19:40:55.747     
------------------------------------------------------------------------
 total:
 * wall-time:     0 d,  0 h, 16 min, 42.719 sec
 *  cpu-time:     0 d,  0 h, 16 min, 36.536 sec
 * ratio c/w:     0.994 speedup
 SCF:
 * wall-time:     0 d,  0 h,  0 min, 53.420 sec
 *  cpu-time:     0 d,  0 h,  0 min, 53.130 sec
 * ratio c/w:     0.995 speedup
 ANC optimizer:
 * wall-time:     0 d,  0 h, 15 min, 48.944 sec
 *  cpu-time:     0 d,  0 h, 15 min, 43.071 sec
 * ratio c/w:     0.994 speedup

