294
 energy: -473.504224923571 gnorm: 1.906531214404 xtb: 6.5.1 (b24c23e)
Fe          38.11690299999999       -0.02317800000000       -0.02417700000000
C           34.75821499999999        0.18008200000000       -0.25948800000000
C           35.42253400000000        1.28091900000000        0.10198800000000
C           34.77288500000000        2.52440700000000        0.49943300000000
C           35.71559900000000        3.40024700000000        0.78958600000000
C           37.02132100000000        2.75948000000000        0.58227400000000
N           36.84215500000000        1.41092300000000        0.14920100000000
C           38.21649300000000        3.35498700000000        0.76854700000000
C           39.51181000000000        2.66352600000000        0.54072600000000
C           40.80858000000000        3.35016800000000        0.54162300000000
C           41.74176300000000        2.44720100000000        0.32455500000000
N           39.64468000000000        1.38927800000000        0.32878000000000
C           41.04813700000000        1.17219700000000        0.18126300000000
C           41.63972600000000       -0.01791400000000       -0.01772500000000
C           40.88115800000000       -1.28438900000000       -0.15883300000000
C           41.43834600000000       -2.48891300000000       -0.14251800000000
C           40.39111000000000       -3.45449700000000       -0.40249400000000
C           39.25694200000000       -2.78016500000000       -0.55729600000000
C           37.95498900000000       -3.40471400000000       -0.91592900000000
C           37.92992300000000       -4.84650800000000       -1.25049500000000
C           37.86344600000000       -5.25956000000000       -2.58875500000000
C           37.85880400000000       -6.62547000000000       -2.90825900000000
C           37.75302299999999       -7.06534000000000       -4.33858500000000
C           37.88661000000000       -7.57750700000000       -1.87730400000000
C           37.94367400000000       -7.17241500000000       -0.53546300000000
C           38.01041900000000       -8.20300200000000        0.55306700000000
C           37.97521100000000       -5.80401900000000       -0.22699300000000
C           36.80184500000000       -2.71031500000000       -0.92978700000000
C           35.48117400000000       -3.25075600000000       -1.24831000000000
C           34.62592000000000       -2.26625100000000       -1.05887200000000
C           35.38960300000000       -1.09831200000000       -0.62326700000000
N           36.65982200000000       -1.34530400000000       -0.54409900000000
N           39.47716100000000       -1.37495100000000       -0.41031400000000
C           38.26602499999999        4.76525200000000        1.21324800000000
C           37.95054199999999        5.80074300000000        0.32146700000000
C           37.99352799999999        7.13701900000000        0.74475500000000
C           37.67338300000000        8.24603500000000       -0.21378700000000
C           38.39416400000000        7.43513000000000        2.05578200000000
C           38.73519199999999        6.40657200000000        2.94682800000000
C           39.11752299999999        6.72734300000000        4.36148900000000
C           38.65407600000000        5.07168600000000        2.52481000000000
H           33.67526400000000        0.21706200000000       -0.27776600000000
H           33.70827100000000        2.71096000000000        0.55881000000000
H           35.52966599999999        4.41293200000000        1.12221600000000
H           40.98850500000000        4.40707800000000        0.68808600000000
H           42.80400100000000        2.64471400000000        0.26981400000000
H           42.48398499999999       -2.72037600000000        0.00766600000000
H           40.52667300000000       -4.52418200000000       -0.48893800000000
H           37.81936199999999       -4.51815200000000       -3.37856100000000
H           38.25552100000000       -8.04510300000000       -4.48614200000000
H           36.68270099999999       -7.16179500000000       -4.61611100000000
H           38.23754600000000       -6.32668500000000       -5.01271700000000
H           37.86547399999999       -8.63397200000000       -2.11879900000000
H           37.84185500000000       -7.74778200000000        1.55338400000000
H           37.23164900000000       -8.97793800000000        0.38959100000000
H           39.00959700000000       -8.68704200000000        0.54389200000000
H           38.03197800000000       -5.48030400000000        0.80642900000000
H           35.22732400000000       -4.25411000000000       -1.56340800000000
H           33.55432100000000       -2.32776300000000       -1.19604100000000
H           37.66651600000000        5.56524000000000       -0.69756600000000
H           37.18448000000000        9.08988800000000        0.31824600000000
H           36.98219199999999        7.89414600000000       -1.00873000000000
H           38.61066400000000        8.60970100000000       -0.68372300000000
H           38.43998000000000        8.46794500000000        2.38186000000000
H           38.20806199999999        6.73457400000000        4.99650200000000
H           39.60765200000000        7.72223000000000        4.42003900000000
H           39.82884600000000        5.97013700000000        4.75630200000000
H           38.89613900000000        4.27074200000000        3.21372400000000
Fe          95.10821700000000       -0.01025100000000       -0.01446400000000
C           98.46690500000000        0.15917900000000       -0.27519300000000
C           97.80258600000001       -0.49444200000000       -1.23189800000000
C           98.45223500000000       -1.22232000000000       -2.31560500000000
C           97.50952099999999       -1.74480600000000       -3.07606000000000
C           96.20379899999999       -1.36732200000000       -2.51832700000000
N           96.38296499999998       -0.57597800000000       -1.34362200000000
C           95.00862699999999       -1.71200000000000       -3.03844600000000
C           93.71331000000001       -1.30070600000000       -2.43773100000000
C           92.41654000000000       -1.49270300000000       -3.09698500000000
C           91.48335700000000       -1.03286300000000       -2.29012900000000
N           93.58044000000000       -0.74243400000000       -1.27284400000000
C           92.17698299999999       -0.54032000000000       -1.10540700000000
C           91.58539399999998       -0.01791400000000       -0.01772500000000
C           92.34396199999999        0.47015800000000        1.15941500000000
C           91.78677399999999        0.78978300000000        2.32087300000000
C           92.83401000000001        1.30826600000000        3.17592500000000
C           93.96817799999999        1.26924100000000        2.48515400000000
C           95.27013099999999        1.78755100000000        2.98518900000000
C           95.29519699999999        2.51023500000000        4.27686600000000
C           95.36167399999999        3.91058000000000        4.30107000000000
C           95.36631600000000        4.59767500000000        5.52405500000000
C           95.47209700000001        6.09391300000000        5.54839000000000
C           95.33850999999999        3.87248000000000        6.72544400000000
C           95.28144600000000        2.47091100000000        6.70988200000000
C           95.21470100000001        1.71228100000000        8.00274300000000
C           95.24990800000000        1.79372200000000        5.48143800000000
C           96.42327499999999        1.60756600000000        2.31437700000000
C           97.74394599999999        2.06393800000000        2.74479300000000
C           98.59920000000000        1.60793800000000        1.85193200000000
C           97.83551700000000        0.86443800000000        0.85141200000000
N           96.56529799999998        0.85715300000000        1.11067900000000
N           93.74795899999999        0.73690700000000        1.17639400000000
C           94.95909399999999       -2.53169000000000       -4.26918300000000
C           95.27457800000001       -1.96339900000000       -5.51198600000000
C           95.23159199999999       -2.74192700000000       -6.67761900000000
C           95.55173700000000       -2.12998000000000       -8.00962500000000
C           94.83095599999999       -4.08412000000000       -6.59900500000000
C           94.48992800000001       -4.65363600000000       -5.36306600000000
C           94.10759600000000       -6.10167400000000       -5.27736900000000
C           94.57104300000000       -3.87671400000000       -4.19841500000000
H           99.54985600000001        0.16644200000000       -0.31579900000000
H           99.51684899999999       -1.33127900000000       -2.47825700000000
H           97.69545400000000       -2.34618300000000       -3.95612800000000
H           92.23661500000000       -1.92758200000000       -4.07135100000000
H           90.42111900000000       -1.03526500000000       -2.49507500000000
H           90.74113400000000        0.70996600000000        2.58499300000000
H           92.69844699999999        1.68905400000000        4.17926900000000
H           95.40575799999999        4.46278900000000        3.36911300000000
H           94.96959899999999        6.50836700000000        6.44835400000000
H           96.54241800000000        6.38731900000000        5.56378000000000
H           94.98757399999998        6.53578500000000        4.65127700000000
H           95.35964600000000        4.39851100000000        7.67293000000000
H           95.38326499999998        0.62478500000000        7.84396700000000
H           95.99347100000000        2.08501000000000        8.70154400000000
H           94.21552299999999        1.85583300000000        8.46509700000000
H           95.19314100000000        0.71103500000000        5.45818300000000
H           97.99779599999998        2.64587900000000        3.62077900000000
H           99.67079900000000        1.75680800000000        1.87283000000000
H           95.55860399999999       -0.91908700000000       -5.56945200000000
H           96.04063900000000       -2.87588200000000       -8.67202700000000
H           96.24292800000001       -1.26850300000000       -7.89292700000000
H           94.61445600000000       -1.77984900000000       -8.48973000000000
H           94.78513999999998       -4.68480800000000       -7.50023200000000
H           95.01705800000001       -6.71360100000000       -5.10755000000000
H           93.61746800000000       -6.43485000000000       -6.21663700000000
H           93.39627400000001       -6.27010400000000       -4.44019000000000
H           94.32898100000000       -4.31544600000000       -3.23735900000000
C           44.05641600000000       -0.00368800000000       -0.00777400000000
C           45.51464200000000       -0.02552500000000       -0.02564700000000
C           46.64857000000000       -0.04627800000000       -0.02713800000000
C           48.00995200000000       -0.05886800000000       -0.02932900000000
C           49.28417100000000       -0.04856200000000       -0.03409400000000
C           50.47263300000000       -0.02976400000000       -0.04025000000000
C           51.82499400000000       -0.00497900000000       -0.02438200000000
C           52.92526100000000       -0.00368800000000       -0.00777400000000
C           62.11808000000000       -0.00368800000000       -0.00777400000000
C           63.57630600000000       -0.02552500000000       -0.02564700000000
C           64.71023400000000       -0.04627800000000       -0.02713800000000
C           66.07161600000001       -0.05886800000000       -0.02932900000000
C           67.34583499999999       -0.04856200000000       -0.03409400000000
C           68.53429700000000       -0.02976400000000       -0.04025000000000
C           69.88665800000000       -0.00497900000000       -0.02438200000000
C           70.98692500000000       -0.00368800000000       -0.00777400000000
C           80.17974399999999       -0.00368800000000       -0.00777400000000
C           81.63797000000000       -0.02552500000000       -0.02564700000000
C           82.77189900000000       -0.04627800000000       -0.02713800000000
C           84.13327999999998       -0.05886800000000       -0.02932900000000
C           85.40749900000000       -0.04856200000000       -0.03409400000000
C           86.59596200000000       -0.02976400000000       -0.04025000000000
C           87.94832200000000       -0.00497900000000       -0.02438200000000
C           89.04859000000000       -0.00368800000000       -0.00777400000000
Fe          57.47936399999999       -0.07506400000000       -0.03580800000000
C           54.11000200000000        0.01884200000000        0.01938100000000
C           54.76626999999999        1.18976300000000       -0.07928400000000
C           54.12630500000000        2.50680600000000       -0.09418400000000
C           55.06246800000000        3.42039300000000       -0.25576400000000
C           56.35890799999999        2.74196300000000       -0.35583700000000
N           56.18072799999999        1.32871800000000       -0.23473000000000
C           57.54295799999999        3.36188000000000       -0.54622200000000
C           58.84028000000000        2.63925900000000       -0.58140900000000
C           60.10925600000000        3.25644900000000       -0.98860300000000
C           61.06199299999999        2.35995500000000       -0.83380700000000
N           59.00824600000000        1.41165200000000       -0.19961800000000
C           60.40688099999999        1.15851100000000       -0.33287400000000
C           61.02181200000000        0.01884200000000        0.01938100000000
C           60.27063199999999       -1.16511100000000        0.48720400000000
C           60.80513199999999       -2.17752500000000        1.15803100000000
C           59.77271699999999       -3.18529200000000        1.30798200000000
C           58.67908899999999       -2.72068400000000        0.71438300000000
C           57.42611200000000       -3.49327900000000        0.53793300000000
C           57.48944599999999       -4.97284700000000        0.62393400000000
C           56.79177200000000       -5.65749200000000        1.63107000000000
C           56.86745100000000       -7.05459500000000        1.72347000000000
C           56.15737200000000       -7.77399700000000        2.83149900000000
C           57.67283300000000       -7.76506700000000        0.82071700000000
C           58.36804200000000       -7.09106400000000       -0.19418200000000
C           59.25259000000000       -7.85551900000000       -1.13401900000000
C           58.28516900000000       -5.69354200000000       -0.27871900000000
C           56.25420699999999       -2.88089400000000        0.28157600000000
C           54.97939600000000       -3.54075700000000        0.01929300000000
C           54.09113300000000       -2.57824400000000       -0.12360700000000
C           54.78770200000000       -1.29780900000000        0.04013500000000
N           56.05199300000000       -1.46779500000000        0.27398800000000
N           58.90311999999999       -1.42149000000000        0.17026000000000
C           57.57735499999999        4.83280000000000       -0.71921900000000
C           58.16472900000000        5.64158200000000        0.26443700000000
C           58.21318200000000        7.03380000000000        0.10264600000000
C           58.88494000000000        7.88891300000000        1.13621100000000
C           57.69443900000000        7.61286300000000       -1.06552900000000
C           57.09390400000000        6.81324000000000       -2.04965500000000
C           56.57205299999999        7.43589500000000       -3.31002200000000
C           57.05183900000000        5.42176600000000       -1.87923000000000
H           53.07230700000000        2.72643500000000        0.01055100000000
H           54.87717300000000        4.48612500000000       -0.29492300000000
H           60.25856699999999        4.26506700000000       -1.35116800000000
H           62.11159599999999        2.51514000000000       -1.04546500000000
H           61.82902100000000       -2.26067800000000        1.49759200000000
H           59.88919799999999       -4.15326200000000        1.77758900000000
H           56.19788000000000       -5.10092300000000        2.34678800000000
H           55.91851299999999       -8.81805800000000        2.53473200000000
H           56.80537899999999       -7.79313000000000        3.73248300000000
H           55.20448100000000       -7.26131200000000        3.08186500000000
H           57.76020599999999       -8.84192100000000        0.90825500000000
H           59.40143500000000       -7.29593800000000       -2.08271300000000
H           58.79563300000000       -8.83730500000000       -1.38293000000000
H           60.24061100000000       -8.02450400000000       -0.65579100000000
H           58.83835300000000       -5.16467500000000       -1.04604000000000
H           54.77676599999999       -4.60080300000000       -0.05758900000000
H           53.04171200000000       -2.73172000000000       -0.33565800000000
H           58.58555300000000        5.18524800000000        1.15310200000000
H           58.45154400000000        8.91172300000000        1.14248700000000
H           59.96964800000000        7.95689600000000        0.91051300000000
H           58.75160300000000        7.45428800000000        2.14962700000000
H           57.75782900000000        8.68510100000000       -1.20921800000000
H           56.14581100000000        8.43976300000000       -3.09962600000000
H           55.77087299999999        6.80941000000000       -3.75799500000000
H           57.40100300000000        7.53947700000000       -4.04128800000000
H           56.61615400000000        4.79475200000000       -2.64876900000000
Fe          75.54102799999998       -0.07506400000000       -0.03580800000000
C           72.17166600000000        0.01884200000000        0.01938100000000
C           72.82793500000000        1.18976300000000       -0.07928400000000
C           72.18797000000001        2.50680600000000       -0.09418400000000
C           73.12413200000000        3.42039300000000       -0.25576400000000
C           74.42057300000000        2.74196300000000       -0.35583700000000
N           74.24239200000000        1.32871800000000       -0.23473000000000
C           75.60462200000001        3.36188000000000       -0.54622200000000
C           76.90194399999999        2.63925900000000       -0.58140900000000
C           78.17091999999998        3.25644900000000       -0.98860300000000
C           79.12365699999998        2.35995500000000       -0.83380700000000
N           77.06990999999999        1.41165200000000       -0.19961800000000
C           78.46854499999999        1.15851100000000       -0.33287400000000
C           79.08347600000000        0.01884200000000        0.01938100000000
C           78.33229699999998       -1.16511100000000        0.48720400000000
C           78.86679599999999       -2.17752500000000        1.15803100000000
C           77.83438099999999       -3.18529200000000        1.30798200000000
C           76.74075299999998       -2.72068400000000        0.71438300000000
C           75.48777600000000       -3.49327900000000        0.53793300000000
C           75.55110999999999       -4.97284700000000        0.62393400000000
C           74.85343600000000       -5.65749200000000        1.63107000000000
C           74.92911499999998       -7.05459500000000        1.72347000000000
C           74.21903600000000       -7.77399700000000        2.83149900000000
C           75.73449700000000       -7.76506700000000        0.82071700000000
C           76.42970599999998       -7.09106400000000       -0.19418200000000
C           77.31425400000001       -7.85551900000000       -1.13401900000000
C           76.34683300000000       -5.69354200000000       -0.27871900000000
C           74.31587099999999       -2.88089400000000        0.28157600000000
C           73.04106000000000       -3.54075700000000        0.01929300000000
C           72.15279800000000       -2.57824400000000       -0.12360700000000
C           72.84936600000000       -1.29780900000000        0.04013500000000
N           74.11365699999999       -1.46779500000000        0.27398800000000
N           76.96478399999998       -1.42149000000000        0.17026000000000
C           75.63901900000000        4.83280000000000       -0.71921900000000
C           76.22639300000000        5.64158200000000        0.26443700000000
C           76.27484599999998        7.03380000000000        0.10264600000000
C           76.94660500000001        7.88891300000000        1.13621100000000
C           75.75610300000000        7.61286300000000       -1.06552900000000
C           75.15556900000000        6.81324000000000       -2.04965500000000
C           74.63371800000000        7.43589500000000       -3.31002200000000
C           75.11350299999999        5.42176600000000       -1.87923000000000
H           71.13397100000000        2.72643500000000        0.01055100000000
H           72.93883699999999        4.48612500000000       -0.29492300000000
H           78.32023100000001        4.26506700000000       -1.35116800000000
H           80.17326000000000        2.51514000000000       -1.04546500000000
H           79.89068600000000       -2.26067800000000        1.49759200000000
H           77.95086200000000       -4.15326200000000        1.77758900000000
H           74.25954400000001       -5.10092300000000        2.34678800000000
H           73.98017700000000       -8.81805800000000        2.53473200000000
H           74.86704300000000       -7.79313000000000        3.73248300000000
H           73.26614499999999       -7.26131200000000        3.08186500000000
H           75.82186999999999       -8.84192100000000        0.90825500000000
H           77.46309900000000       -7.29593800000000       -2.08271300000000
H           76.85729699999999       -8.83730500000000       -1.38293000000000
H           78.30227499999999       -8.02450400000000       -0.65579100000000
H           76.90001700000001       -5.16467500000000       -1.04604000000000
H           72.83842999999999       -4.60080300000000       -0.05758900000000
H           71.10337600000000       -2.73172000000000       -0.33565800000000
H           76.64721800000000        5.18524800000000        1.15310200000000
H           76.51320800000001        8.91172300000000        1.14248700000000
H           78.03131200000000        7.95689600000000        0.91051300000000
H           76.81326700000000        7.45428800000000        2.14962700000000
H           75.81949299999999        8.68510100000000       -1.20921800000000
H           74.20747500000000        8.43976300000000       -3.09962600000000
H           73.83253700000000        6.80941000000000       -3.75799500000000
H           75.46266700000000        7.53947700000000       -4.04128800000000
H           74.67781900000000        4.79475200000000       -2.64876900000000
294
 energy: -474.180756501374 gnorm: 0.760847148735 xtb: 6.5.1 (b24c23e)
Fe          38.12242624047226       -0.01990096649910       -0.02869926803867
C           34.75911698562923        0.16889440452256       -0.26310572387680
C           35.42841347007029        1.28195734021550        0.10251020851563
C           34.77203297842086        2.51966256247545        0.49772018062308
C           35.72237182410179        3.40174718252752        0.79008644059324
C           37.02002163230705        2.75334241519696        0.58066547768229
N           36.83455275852024        1.41581918365260        0.15371402565216
C           38.22695763956390        3.35231293313725        0.76694959416221
C           39.50611793966083        2.67313814195053        0.54336949017355
C           40.80016638055339        3.35597150508029        0.54403838711897
C           41.74259671246129        2.44224097717812        0.32309404802728
N           39.64755294118525        1.38331051825643        0.32706336484365
C           41.05469413069878        1.16952076483035        0.18074881865172
C           41.63558822484372       -0.02742422841550       -0.01852914720593
C           40.88024307087258       -1.26996615809531       -0.16013426778093
C           41.43956218576673       -2.50383111158293       -0.14398571803178
C           40.40530812504053       -3.45595240373282       -0.40108204087283
C           39.24664092550420       -2.77015297646803       -0.55945304256411
C           37.96406096046160       -3.39919247899748       -0.91323142549438
C           37.93281208804190       -4.84769559039837       -1.25053940148268
C           37.86363685636461       -5.26149417154090       -2.58654022231346
C           37.85745955765266       -6.62480022070430       -2.90556640634445
C           37.75415872358050       -7.06576009753945       -4.34027079723249
C           37.88684026831453       -7.57385667652070       -1.87659415822471
C           37.94419819935185       -7.17026780360471       -0.53700090838209
C           38.00968211867961       -8.20391273526850        0.55457882138422
C           37.97556875245740       -5.80514302117995       -0.22958029110091
C           36.80136409818579       -2.70777098807745       -0.92907611212035
C           35.48713277560876       -3.25156164654386       -1.24795557260375
C           34.62062228146737       -2.25851411531532       -1.05712840025139
C           35.37832588831647       -1.09103786373036       -0.62135243579483
N           36.66369922875806       -1.34868512268269       -0.54477554851116
N           39.47642987069782       -1.37511504437081       -0.40710932171822
C           38.26856948330093        4.76747520535633        1.21327074761514
C           37.95046722017325        5.80173702934460        0.32439392388064
C           37.99497847792743        7.13524617801644        0.74603191885084
C           37.67193681635508        8.24720337998270       -0.21456236053181
C           38.39398355158815        7.43175063245623        2.05475470994695
C           38.73319593313801        6.40610431704594        2.94490067757842
C           39.11921190291093        6.72772122343109        4.36276910138397
C           38.65429752595283        5.07418388879024        2.52307145529178
H           33.67560225906876        0.21507170650861       -0.27861908387712
H           33.70838486204422        2.70757319021348        0.55764125207898
H           35.53399461626541        4.41321019989517        1.12227654988951
H           40.98503184323103        4.40853757162690        0.68873860684233
H           42.80386512431171        2.64033193641741        0.26910500270872
H           42.48429919296795       -2.72208546216283        0.00767380657387
H           40.52839047854859       -4.52430737931223       -0.48812942037882
H           37.81974159956707       -4.51877448465288       -3.37774597481112
H           38.25281256035701       -8.04159576387538       -4.48585639484650
H           36.68719300673014       -7.16170787957492       -4.61604336577087
H           38.23487464554933       -6.32950313700178       -5.01051724868435
H           37.86562820217482       -8.63290805187263       -2.11860175084303
H           37.84297807413811       -7.74972499593801        1.54926437504977
H           37.23527436479764       -8.97575553931553        0.39053960892833
H           39.00530881571462       -8.68589158432314        0.54455769471551
H           38.03180761280154       -5.48067617603674        0.80544529388499
H           35.23143861499448       -4.25401703290036       -1.56308513568424
H           33.55312540950138       -2.32477793294780       -1.19541159683410
H           37.66664938708354        5.56529233787308       -0.69663519700744
H           37.18697288501298        9.08721447575484        0.31581404273299
H           36.98542376026147        7.89571759661303       -1.00619369920136
H           38.60648350273363        8.60903747718183       -0.68246233638377
H           38.43999434713623        8.46693504684430        2.38155984087130
H           38.21212086047071        6.73475954666394        4.99495653624339
H           39.60520602438464        7.71865349738724        4.42036969018913
H           39.82551363303275        5.97297675644649        4.75541559281238
H           38.89609804474010        4.27137719163688        3.21304255646703
Fe          95.10303948734956       -0.00691562677520       -0.01880287592975
C           98.46602710106554        0.16574618789988       -0.26551661421888
C           97.79677987771208       -0.49516695862421       -1.23274702580604
C           98.45306878357418       -1.21932715189251       -2.31148656428009
C           97.50270081210255       -1.74569732276423       -3.07735518290112
C           96.20501374688976       -1.36416380719386       -2.51305154235795
N           96.39032674318489       -0.58157887262073       -1.34678852166297
C           94.99838992583176       -1.70984705865162       -3.03635319609938
C           93.71890275489240       -1.30592960392950       -2.44609733659918
C           92.42495234387948       -1.49658449581813       -3.10188718665360
C           91.48255785975131       -1.03011476175008       -2.28560418562198
N           93.57748570003093       -0.73898320107369       -1.26809495156638
C           92.17068409771738       -0.53889412397914       -1.10280233857147
C           91.58872722595514       -0.01480032172130       -0.00871097991661
C           92.34533077941524        0.46755878275125        1.14509246236008
C           91.78560574570977        0.79528393293771        2.33435191069017
C           92.82014587434308        1.30736185656436        3.17777583882818
C           93.97849848640188        1.26869044207481        2.47509059875609
C           95.26117660223211        1.78347592133613        2.98071834078256
C           95.29233514261837        2.51064085300597        4.27799866431763