126
 energy: -243.243108634402 gnorm: 0.645022730927 xtb: 6.5.1 (b24c23e)
Zn          17.33174100000000       -0.02912900000000        0.00110600000000
C           13.99860200000000        0.12188300000000        0.10751500000000
C           14.66541400000000        1.27882900000000        0.08611600000000
C           14.01704300000000        2.58444700000000        0.08491100000000
C           14.96068300000000        3.50651700000000        0.07695000000000
C           16.26583000000000        2.83146700000000        0.07488200000000
N           16.08584800000000        1.41524200000000        0.07991800000000
C           17.45978000000000        3.45635900000000        0.10479900000000
C           17.49730400000000        4.93506200000000        0.11231400000000
C           17.28796500000000        5.65033700000000       -1.07466000000000
C           17.30961900000000        7.04867600000000       -1.07172200000000
O           17.09534200000000        7.72985400000000       -2.27011000000000
C           17.54268300000000        7.74433500000000        0.12842900000000
O           17.55831200000000        9.13986800000000        0.12436400000000
C           17.75645900000000        7.02832100000000        1.32052100000000
O           17.98930400000000        7.71101900000000        2.51316200000000
C           17.73398200000000        5.62709100000000        1.30712800000000
C           18.75798800000000        2.73225400000000        0.14315500000000
C           20.05726100000000        3.40178000000000        0.27457900000000
C           20.99158700000000        2.47461000000000        0.25992400000000
N           18.89261100000000        1.44447900000000        0.04257000000000
C           20.29848200000000        1.20070800000000        0.10839600000000
C           20.89369100000000        0.00000000000000        0.00000000000000
C           20.14073200000000       -1.26553100000000       -0.18015100000000
C           20.70602100000000       -2.42747300000000       -0.48527900000000
C           19.65852500000000       -3.42653300000000       -0.51547600000000
C           18.51683600000000       -2.81236500000000       -0.22942000000000
N           18.73058600000000       -1.41564800000000       -0.00313100000000
C           17.20772500000000       -3.50607900000000       -0.11095100000000
C           17.18890900000000       -4.98486100000000       -0.12955700000000
C           17.33553900000000       -5.70286300000000        1.06385100000000
C           17.31425500000000       -7.10132500000000        1.05499400000000
O           17.45598400000000       -7.78660900000000        2.26172500000000
C           17.15092800000000       -7.79329100000000       -0.15899100000000
O           17.13409700000000       -9.18872500000000       -0.16000700000000
C           17.00902400000000       -7.07351000000000       -1.35953500000000
O           16.85158400000000       -7.75291400000000       -2.56674500000000
C           17.02719700000000       -5.67219800000000       -1.33952100000000
C           16.04505100000000       -2.84090400000000        0.01114300000000
C           14.72112100000000       -3.44907500000000        0.12985900000000
C           13.86211000000000       -2.45043200000000        0.18159400000000
C           14.62822100000000       -1.20780100000000        0.10160000000000
N           15.90295400000000       -1.42255300000000        0.00115600000000
H           12.91571800000000        0.15466700000000        0.13213500000000
H           12.95241600000000        2.78020700000000        0.09402500000000
H           14.77700300000000        4.57316700000000        0.08350800000000
H           17.10423300000000        5.12001500000000       -2.00135100000000
H           17.10031600000000        8.74129300000000       -2.32308500000000
H           17.70868500000000        9.68012300000000        0.96737000000000
H           18.14561700000000        7.21869400000000        3.38508300000000
H           17.89670800000000        5.07649200000000        2.22578800000000
H           20.24082700000000        4.46434000000000        0.36449200000000
H           22.05537500000000        2.65778600000000        0.33468000000000
H           21.75567300000000       -2.61238100000000       -0.66725200000000
H           19.79341900000000       -4.48129800000000       -0.71842000000000
H           17.46271400000000       -5.17510800000000        2.00130000000000
H           17.43766700000000       -8.79767600000000        2.31209300000000
H           17.02020400000000       -9.72684300000000       -1.01043400000000
H           16.75174600000000       -7.25861400000000       -3.44616200000000
H           16.91685700000000       -5.11871500000000       -2.26456600000000
H           14.46922900000000       -4.50123400000000        0.16435200000000
H           12.78711200000000       -2.54823500000000        0.26503900000000
Zn          28.09378200000000        0.02881600000000        0.00440000000000
C           31.42692100000000       -0.13328400000000        0.09300700000000
C           30.76010900000000       -1.28034800000000       -0.05938900000000
C           31.40848000000000       -2.57741600000000       -0.20857200000000
C           30.46484000000000       -3.49264200000000       -0.32099400000000
C           29.15969300000000       -2.82170800000000       -0.24653500000000
N           29.33967500000000       -1.41518000000000       -0.08100900000000
C           27.96574300000000       -3.44596300000000       -0.28763900000000
C           27.92821900000000       -4.91598900000000       -0.44777700000000
C           28.13755799999999       -5.49211600000000       -1.70817500000000
C           28.11590400000000       -6.88177700000000       -1.86375200000000
O           28.33018100000000       -7.42273300000000       -3.13162500000000
C           27.88284000000000       -7.70898400000000       -0.75018400000000
O           27.86721100000000       -9.09506300000000       -0.91240100000000
C           27.66906500000000       -7.13270300000000        0.51538200000000
O           27.43621900000000       -7.94618300000000        1.62295700000000
C           27.69154100000000       -5.73898500000000        0.66089900000000
C           26.66753500000000       -2.73087200000000       -0.16745700000000
C           25.36826200000000       -3.41098000000000       -0.11276700000000
C           24.43393600000000       -2.48812400000000       -0.02223700000000
N           26.53291200000000       -1.43999600000000       -0.12143000000000
C           25.12704100000000       -1.20525700000000       -0.02839700000000
C           24.53183200000000        0.00000000000000        0.00000000000000
C           25.28479100000000        1.27779500000000       -0.03554800000000
C           24.71950200000000        2.46683300000000       -0.20700800000000
C           25.76699800000000        3.46287800000000       -0.12377200000000
C           26.90868800000000        2.82024500000000        0.09082800000000
N           26.69493700000000        1.40687900000000        0.15734700000000
C           28.21779800000000        3.49606100000000        0.28716300000000
C           28.23661400000000        4.96742100000000        0.43629000000000
C           28.08998400000000        5.54552900000000        1.70339000000000
C           28.11126800000000        6.93598200000000        1.85309900000000
O           27.96953999999999        7.48007300000000        3.12972700000000
C           28.27459500000000        7.76108900000000        0.72536900000000
O           28.29142600000000        9.14764600000000        0.88252500000000
C           28.41649900000000        7.18202300000000       -0.54902300000000
O           28.57393900000000        7.99388000000000       -1.67144500000000
C           28.39832699999999        5.78747300000000       -0.68797100000000
C           29.38047200000000        2.82133300000000        0.33307500000000
C           30.70440200000000        3.41212900000000        0.51995900000000
C           31.56341300000000        2.41405800000000        0.45816900000000
C           30.79730199999999        1.18850100000000        0.23784500000000
N           29.52256900000000        1.41325500000000        0.16238900000000
H           32.50980500000000       -0.16864800000000        0.11375300000000
H           32.47310700000000       -2.77294700000000       -0.22170500000000
H           30.64852000000000       -4.55316100000000       -0.43537800000000
H           28.32129000000000       -4.86017500000000       -2.56878500000000
H           28.32520700000000       -8.42165000000000       -3.29890100000000
H           27.71683800000000       -9.72738800000000       -0.13606300000000
H           27.27990600000000       -7.55585900000000        2.54506200000000
H           27.52881500000000       -5.29606000000000        1.63604600000000
H           25.18469600000000       -4.47688300000000       -0.14387000000000
H           23.37014800000000       -2.67859300000000        0.03127400000000
H           23.66985000000000        2.67117600000000       -0.36685000000000
H           25.63210500000000        4.53384900000000       -0.20585500000000
H           27.96280900000000        4.91491900000000        2.57497900000000
H           27.98785600000000        8.47891500000000        3.29437000000000
H           28.40531900000000        9.77868700000000        0.09857200000000
H           28.67377700000000        7.60244400000000       -2.60122200000000
H           28.50866600000000        5.34240700000000       -1.66978800000000
H           30.95629400000000        4.45359800000000        0.67348800000000
H           32.63841100000000        2.50177200000000        0.55216200000000
C           22.10180300000000        0.00000000000000        0.00000000000000
C           23.32372000000000        0.00000000000000        0.00000000000000
126
 energy: -243.411665482360 gnorm: 0.289451264883 xtb: 6.5.1 (b24c23e)
Zn          17.33311370935572       -0.02467059394335        0.00255472949468
C           13.99763844334355        0.10245532288290        0.10778166432706
C           14.66929002173052        1.28006065224817        0.08571196169199
C           14.01642572172362        2.57745294069826        0.08518123771217
C           14.97161161784088        3.50969119511079        0.07692032557909
C           16.26385441635265        2.82884154931222        0.07355093602368
N           16.06108409273826        1.44016820206272        0.07892525482590
C           17.47472002216175        3.45941201673958        0.10384184370714
C           17.50201402345267        4.94517180089230        0.11095825868310
C           17.28789431917452        5.66284153153337       -1.07119580719895
C           17.31044237725888        7.06380431209055       -1.06632710372130
O           17.09647852760278        7.72438213337911       -2.26240650334488
C           17.54513587287656        7.75438726259153        0.14098991362306
O           17.55702350745592        9.14077299824582        0.11804627608224
C           17.75825626322043        7.02777315782241        1.32821564674621
O           17.98784603602729        7.71834616693426        2.50754964975071
C           17.73571280357821        5.63144122165785        1.30560358389135
C           18.74397755508830        2.76463927768607        0.14397977000940
C           20.03770780862611        3.42175185886936        0.27417810922763
C           20.97594430561038        2.46663875240141        0.25941691847689
N           18.88611156484946        1.45935780500225        0.04782930073381
C           20.25350515341367        1.21823887111349        0.11098911697361
C           20.81104127469602       -0.01872446043883       -0.00217493679279
C           20.10094707881933       -1.27040586919666       -0.17618207463898
C           20.70065670218663       -2.45482151365457       -0.48865600659679
C           19.68048359156653       -3.43549674322382       -0.51712383464703
C           18.50328339171991       -2.80727392007567       -0.22286620116708
N           18.72442760607600       -1.43238255896921       -0.00923050758083
C           17.22328063803405       -3.49795155031410       -0.10944290206813
C           17.19900141063699       -4.98945407376800       -0.12954322535950
C           17.33618420674462       -5.71367398925959        1.06020509476092
C           17.31281267266120       -7.11545286245035        1.04934358387200
O           17.45455640915512       -7.78045633839201        2.25367370109282
C           17.14952748866778       -7.80264418601240       -0.17174617754951
O           17.13448472436115       -9.18904383684204       -0.15362979455165
C           17.00817324217359       -7.07145299798340       -1.36689434210431
O           16.85162362479671       -7.75917555366267       -2.56028208601982
C           17.02868795623862       -5.67404924437623       -1.33760458240358
C           16.04322996300061       -2.84035059692933        0.01213219585703
C           14.72805049724228       -3.44739857490418        0.12867851713123
C           13.84863295942428       -2.43831212413816        0.18192456042393
C           14.60386757670792       -1.20025538882892        0.10179753577674
N           15.89511661714375       -1.43681602315929        0.00410509103902
H           12.91522176021545        0.14542435745430        0.13263861980042
H           12.95230530968711        2.76841663121005        0.09397804767694
H           14.79195684616107        4.57512529471517        0.08291159921868
H           17.10537905221993        5.12761356587970       -1.99821480332664
H           17.10559160181293        8.71298483307822       -2.29372708243698
H           17.70686040905461        9.64261284923422        0.95644625497064
H           18.13865309862398        7.21655477079067        3.34665152294667
H           17.89661070851314        5.07806626446654        2.22418441446181
H           20.22973312292407        4.47607891523287        0.36475463091544
H           22.04263998656533        2.63910516583562        0.33596783877340
H           21.75023412111323       -2.61848640809304       -0.67207387050362
H           19.80333766610455       -4.48552488465128       -0.72120258898815
H           17.46256656488917       -5.18251922299599        1.99847573486221
H           17.43474077064576       -8.76897017723158        2.28239813495854
H           17.02211955690428       -9.68901525967748       -0.99923346681312
H           16.75662220528273       -7.25635807104709       -3.40709223549490
H           16.91727479736975       -5.11957706626642       -2.26276728655558
H           14.48316287000852       -4.50006557277126        0.16346529768250
H           12.77944314270495       -2.53821679354909        0.26562776083398
Zn          28.09240929618748        0.02422212430508        0.00533401171786
C           31.42788455960572       -0.11401167401465        0.09547409471039
C           30.75623282326627       -1.28152624796176       -0.05993001695809
C           31.40909721836698       -2.57049769132760       -0.20751077238405
C           30.45391145926060       -3.49579216365236       -0.32138324182457
C           29.16166862441926       -2.81894839404114       -0.24755989234151
N           29.36443885872770       -1.43983306230348       -0.08482058030455
C           27.95080293118413       -3.44888807220912       -0.28893617825178
C           27.92350897982749       -4.92587996336628       -0.45026993841849
C           28.13762867719380       -5.50493265101352       -1.70615053165772
C           28.11508066572847       -6.89741914813608       -1.86010642209008
O           28.32904445207883       -7.41816968291046       -3.12335097885057
C           27.88038721351893       -7.72039533524198       -0.73884362495918
O           27.86849950917492       -9.09524621161475       -0.91878054426618
C           27.66726744689392       -7.13303086836139        0.52308935166485
O           27.43767704754863       -7.95282658197655        1.61655017350110
C           27.68981028106656       -5.74313440180167        0.65889122728753
C           26.68154545170531       -2.76314216605764       -0.17030810481185
C           25.38781514011893       -3.43077769690670       -0.11542912010134
C           24.44957866393959       -2.48014668145142       -0.02183733656866
N           26.53941138778685       -1.45537469033503       -0.11789103333764
C           25.17201776738274       -1.22296852293794       -0.02780780205566
C           24.61448182757612        0.01885018240977       -0.00003854427613
C           25.32457602581260        1.28218837494127       -0.03105200628341
C           24.72486635114375        2.49438835732018       -0.20726356606103
C           25.74503955142157        3.47197069075844       -0.12439299031808
C           26.92224017441917        2.81444380911409        0.09676243832283
N           26.70109542524164        1.42419738898871        0.15318349631857
C           28.20224241060753        3.48781471798407        0.28774005846870
C           28.22652164454574        4.97198316116495        0.43682431352745
C           28.08933881384482        5.55668342285119        1.70099276654780
C           28.11271040932074        6.95065951003616        1.84908631694026
O           27.97096750956256        7.47487250598324        3.12103032404023
C           28.27599553972120        7.77182761448506        0.71375599313566
O           28.29103824093274        9.14723965934817        0.88889737754269
C           28.41734980300033        7.18081333956288       -0.55656782294964
O           28.57389939742663        7.99936881176455       -1.66431420378360
C           28.39683575882712        5.78909511357899       -0.68585644658420
C           29.38229307555340        2.82067109088961        0.33399512408038
C           30.69747252918391        3.41059723160400        0.51859623089299
C           31.57689007176437        2.40197862713259        0.45712384257911
C           30.82165544590248        1.18098191322093        0.23718572018032
N           29.53040640564924        1.42709170036321        0.16693569720717
H           32.51030122839824       -0.15952185954283        0.11530097179091
H           32.47321769395641       -2.76122736541086       -0.22041528628857
H           30.63356623142360       -4.55503916186847       -0.43619252010644
H           28.32014389885606       -4.86808024623544       -2.56653003606015
H           28.31993138820911       -8.39685167886181       -3.26652360201231
H           27.71866260034422       -9.68888128123417       -0.14266480857820
H           27.28686995873851       -7.54937747411957        2.50712051409646
H           27.52891227594175       -5.29744232419267        1.63427451418563
H           25.19578982086572       -4.48857639623769       -0.14493964984742
H           23.38288297988809       -2.66017853664020        0.03467105319298
H           23.67528895170344        2.67778865284544       -0.37094879412341
H           25.62218633537744        4.53836378403843       -0.20814052532169
H           27.96295644868076        4.92260259659726        2.57301279043494
H           27.99078223425310        8.45376008216972        3.26161289857696
H           28.40340346592831        9.73983371945712        0.10541260713235
H           28.66890078563333        7.59577424118939       -2.56265965966285
H           28.50824830027977        5.34305938219654       -1.66790346292600
H           30.94236012147726        4.45253755368830        0.67247447030622
H           32.64607989617361        2.49175163666870        0.55161144695243
C           22.11645965081034       -0.00792415183240       -0.00124559303509
C           23.30906348028446        0.00801416677382       -0.00033940268517
126
 energy: -243.491113091617 gnorm: 0.105560667295 xtb: 6.5.1 (b24c23e)
Zn          17.33869799383289       -0.01892032402918        0.00628701144817
C           13.99955685855035        0.08269237671923        0.10789318786281
C           14.67234578600477        1.28496736668754        0.08463578372021
C           14.01585601802660        2.57129868692650        0.08536384506698
C           14.98085842247862        3.51229149039955        0.07641181068933
C           16.25666799462238        2.82748824192485        0.07113220414540
N           16.03211412110826        1.46928012922821        0.07741409879923
C           17.48776196333921        3.46291717122092        0.10270997988686
C           17.50314599967620        4.95580663505885        0.11090202704465
C           17.28770826089182        5.67497395332489       -1.06559570553755
C           17.31126224125096        7.07530712953945       -1.05940920708039
O           17.09804939976457        7.71427874402127       -2.25059507538228
C           17.54656539072600        7.76256382000535        0.14958709976931
O           17.55457456493977        9.13904346879343        0.10636416642783
C           17.75945581628432        7.03033470348751        1.33213818507560
O           17.98482060110172        7.73285686091258        2.49492142364045
C           17.73766515292964        5.63781638999183        1.30506666182237
C           18.72753677603285        2.80145729021863        0.14522078258102
C           20.01733945289919        3.43953820743868        0.27229147842921
C           20.95335480432769        2.46098333430892        0.25948720407382
N           18.88445753679329        1.47192116815085        0.05752417254339
C           20.21812615030526        1.23069948035146        0.11417370070014
C           20.74861415826981       -0.03752773214354       -0.00770653399964
C           20.06933597928957       -1.26898709994200       -0.17161046716634
C           20.69269941224124       -2.48427777309066       -0.48876149915183
C           19.70606125071588       -3.44174050877202       -0.51458589798838
C           18.49055238253209       -2.80593953806477       -0.21552249321813
N           18.72514948235376       -1.45561940295867       -0.02234080574255
C           17.24414221665596       -3.48734074699088       -0.10761695469331
C           17.21226155539869       -4.99150330790120       -0.13101054483699
C           17.33894251002777       -5.72219653098844        1.05345709394982
C           17.31158091549138       -7.12418984052527        1.04180785551335
O           17.45249107671844       -7.76847369312393        2.24121355982080
C           17.14863811464126       -7.80874313714294       -0.18046152404777
O           17.13572038114689       -9.18554804130690       -0.14189038025667
C           17.00800160447733       -7.07035179858040       -1.36995987039582
O           16.85199640575912       -7.77102025941988       -2.54592321172768
C           17.03246774325317       -5.67582151101749       -1.33643812182096
C           16.03863817205863       -2.83527092905829        0.01465152362554
C           14.73429060266879       -3.44103735259984        0.12735753393076
C           13.83724314257867       -2.42833044806781        0.18076018029830
C           14.57714151175524       -1.19305261481025        0.10212010753689
N           15.88920201801768       -1.45377608060436        0.00889222981446
H           12.91651676960167        0.13659387922650        0.13434474638387
H           12.95180691951995        2.75339789209420        0.09404885857465
H           14.81071694833330        4.57759778052737        0.08195673782369
H           17.10679353167373        5.13935402721147       -1.99324515408913
H           17.11347964884796        8.68370679968717       -2.24882187941187
H           17.70573071385613        9.59382211686313        0.94950317351849
H           18.12986118183947        7.21132184382432        3.29914473280521
H           17.89716934719600        5.08194697447714        2.22314283343205
H           20.21586567571931        4.49070826873601        0.36431227709844
H           22.02052549010183        2.61787659785430        0.33899525575160
H           21.74238781008599       -2.62486861586168       -0.67849354631780
H           19.81366963722704       -4.49103729097719       -0.72360070779705
H           17.46337570014378       -5.19340175698181        1.99384286938810
H           17.42977679150657       -8.73817290052834        2.23659139768867
H           17.02388008970516       -9.63926327980598       -0.99184902321143
H           16.76270208862684       -7.25048827882659       -3.35866620933538
H           16.91872498716447       -5.12170166118002       -2.26200518243044
H           14.50109511116065       -4.49576519745224        0.16237583262217
H           12.77008792033515       -2.52860120502181        0.26581044910085
Zn          28.08682498882635        0.01808587975126        0.00839058992583
C           31.42596613534686       -0.09438871884685        0.09782512890283
C           30.75317702810294       -1.28627955227851       -0.06155534886491
C           31.40966692796738       -2.56440373727677       -0.20663175201624
C           30.44466467973622       -3.49831791787843       -0.32218321742727
C           29.16885504515726       -2.81732950317216       -0.24980964477633
N           29.39340880113280       -1.46858609296766       -0.08962162957664
C           27.93776105474946       -3.45224258289268       -0.29045829938626
C           27.92237700960393       -4.93643990273389       -0.45153139178640
C           28.13781475063769       -5.51762173762304       -1.70196180943690
C           28.11426081851251       -6.90963186873523       -1.85453669223580
O           28.32747356625916       -7.40947030698748       -3.11047054747694
C           27.87895776148601       -7.72949383386229       -0.73122881911620
O           27.87094846571564       -9.09220380437830       -0.93019125787284
C           27.66606759959567       -7.13602056696890        0.52669644485737
O           27.44070259349918       -7.96581209583603        1.60235840040269
C           27.68785799290630       -5.74940765913677        0.65763500017536
C           26.69798620936786       -2.79986380871410       -0.17324805908584
C           25.40818354558841       -3.44823561047922       -0.11931966836781
C           24.47216815479799       -2.47453566335098       -0.02112652247257
N           26.54106540817877       -1.46895580444275       -0.10968237204055
C           25.20739675284717       -1.23570958071063       -0.02605599441780
C           24.67690889469428        0.03815932527200       -0.00340311941479
C           25.35618714646419        1.28026051023378       -0.02667042245900
C           24.73282371035127        2.52366698525999       -0.20402975639797
C           25.71946193801255        3.47788649762082       -0.12116372502959
C           26.93497086144499        2.81228546464763        0.10390735440865
N           26.70037361184226        1.44877084891114        0.14279137466575
C           28.18138090171256        3.47706504209771        0.28835143129071
C           28.21326156051036        4.97418565880875        0.43559868940967
C           28.08658053219112        5.56591578100524        1.69525403163383
C           28.11394225306000        6.96019452780311        1.84258945524576
O           27.97303272717463        7.46437929818786        3.10729241103881
C           28.27688494456511        7.77887508619399        0.70578794421610
O           28.28980255780979        9.14243552896777        0.90016504551250
C           28.41752147737846        7.18006662030214       -0.55973822662493
O           28.57352663941456        8.00950985098018       -1.64870553203590
C           28.39305567524435        5.79072370169716       -0.68449618178142
C           29.38688493131585        2.81533868009848        0.33592254624145
C           30.69123248572735        3.40442673285604        0.51656289350712
C           31.58827991191046        2.39219311182234        0.45483572213389
C           30.84838154490901        1.17378924238436        0.23668965808102
N           29.53632103028227        1.44339963483560        0.17361437668858
H           32.50900618985185       -0.15094153558648        0.11799696633035
H           32.47371610760071       -2.74631334617092       -0.21864264491278
H           30.61480615846224       -4.55738752813921       -0.43742148601817
H           28.31872938893808       -4.88030849686508       -2.56292299682695
H           28.31204333852138       -8.37285195878926       -3.21858918533034
H           27.71979231764131       -9.63961787798575       -0.14403300060997
H           27.29566192946450       -7.53879348597888        2.46051280784564
H           27.52835365772054       -5.30117998891121        1.63279988589136
H           25.20965727538312       -4.50306163110478       -0.14703736609886
H           23.40499746071721       -2.63942987473580        0.04008526400110
H           23.68313532945316        2.68485731840967       -0.37660370515232
H           25.61185418979071        4.54411224405566       -0.20989840330390
H           27.96214733016834        4.93394018943556        2.56964311403617
H           27.99574622619669        8.42835338315721        3.21261069656386
H           28.40164295600289        9.68956555824531        0.10711016207242
H           28.66282090772591        7.58445341864363       -2.51521099210699
H           28.50679820795816        5.34508374244561       -1.66690565895727
H           30.92442791078398        4.44838832277290        0.67090448605444
H           32.65543515038153        2.48217735654774        0.55070307149766
C           22.10956636461334       -0.02234006102762       -0.00492776765530
C           23.31595667201071        0.02275461967925       -0.00236383232226
126
 energy: -243.518206632774 gnorm: 0.044223712036 xtb: 6.5.1 (b24c23e)
Zn          17.33904097443263       -0.01424755045755        0.01278322537656
C           13.99473521036449        0.07651962318269        0.10865271104419