126
 energy: -238.104694218559 gnorm: 1.427297017435 xtb: 6.5.1 (b24c23e)
Co          17.26417000000000       -0.12271000000000       -0.01778900000000
C           13.91971400000000        0.03308500000000        0.07064500000000
C           14.57113500000000        1.19531600000000        0.17177600000000
C           13.90838500000000        2.49190200000000        0.24297300000000
C           14.84006700000000        3.41892300000000        0.36638500000000
C           16.15137900000000        2.75617000000000        0.39299700000000
N           15.98737200000000        1.34375000000000        0.25915900000000
C           17.33783800000000        3.38155400000000        0.54139900000000
C           17.37373600000000        4.85173400000000        0.71739500000000
C           16.88494700000000        5.43814300000000        1.89607100000000
C           16.92932300000000        6.83346500000000        2.07217700000000
C           16.40974400000000        7.45462600000000        3.31043900000000
O           16.46060600000000        8.83621100000000        3.47738800000000
O           15.91624400000000        6.74052400000000        4.22499600000000
C           17.47687600000000        7.63287800000000        1.05365200000000
C           17.97066300000000        7.04905400000000       -0.11591500000000
C           17.92183700000000        5.66426100000000       -0.28461800000000
C           18.63581599999999        2.65687600000000        0.54776800000000
C           19.91348100000000        3.27339700000000        0.92537100000000
C           20.85654000000000        2.36366300000000        0.78761500000000
N           18.79006300000000        1.41689600000000        0.19707100000000
C           20.18772500000000        1.15470000000000        0.32276600000000
C           20.79268400000000        0.00000000000000        0.00000000000000
C           20.04006200000000       -1.19121600000000       -0.45201000000000
C           20.57981300000000       -2.21279100000000       -1.10468800000000
C           19.54616000000000       -3.21732100000000       -1.26369600000000
C           18.44440400000000       -2.74431700000000       -0.69268400000000
N           18.66635800000000       -1.44029100000000       -0.15351600000000
C           17.17283500000000       -3.50190500000000       -0.56803500000000
C           17.20874400000000       -4.97674700000000       -0.72348800000000
C           17.95341900000000       -5.75738500000000        0.17203100000000
C           18.00503700000000       -7.14395000000000        0.01982200000000
C           17.31929100000000       -7.76214500000000       -1.02876400000000
C           16.57435600000000       -6.99504900000000       -1.94254800000000
C           15.84965700000000       -7.64383200000000       -3.05747900000000
O           15.11210700000000       -6.87704300000000       -3.95599800000000
O           15.89223800000000       -8.89540500000000       -3.20449700000000
C           16.52857900000000       -5.59862100000000       -1.78388100000000
C           16.00504300000000       -2.88003700000000       -0.31538200000000
C           14.70356600000000       -3.52159100000000       -0.13655800000000
C           13.83274400000000       -2.54502100000000        0.03038400000000
C           14.56949700000000       -1.28359600000000       -0.02733000000000
N           15.83617600000000       -1.46662100000000       -0.22852900000000
H           12.83612500000000        0.05040800000000        0.06130200000000
H           12.84316900000000        2.67901900000000        0.19761200000000
H           14.64228000000000        4.48072800000000        0.43315500000000
H           16.47303200000000        4.80255500000000        2.67111100000000
H           16.10735500000000        9.27174700000000        4.32107600000000
H           17.52579400000000        8.70924500000000        1.15991000000000
H           18.39282500000000        7.67231000000000       -0.89364200000000
H           18.30894400000000        5.22404500000000       -1.19546700000000
H           20.07481600000000        4.28937700000000        1.26103500000000
H           21.90891100000000        2.51536400000000        0.98743100000000
H           21.60616300000000       -2.30037500000000       -1.43512300000000
H           19.66361900000000       -4.18359400000000       -1.73689500000000
H           18.49030900000000       -5.29118300000000        0.98917800000000
H           18.57858299999999       -7.74180100000000        0.71635200000000
H           17.37441300000000       -8.83928000000000       -1.12505100000000
H           14.61209500000000       -7.31123600000000       -4.72261100000000
H           15.96893100000000       -4.98845900000000       -2.48280500000000
H           14.47149700000000       -4.57844500000000       -0.13565200000000
H           12.76923700000000       -2.66996200000000        0.18620500000000
Co          27.67872100000000        0.12180100000000        0.02321000000000
C           31.02317700000000       -0.05431900000000        0.05598900000000
C           30.37175600000000       -1.18597100000000       -0.22751100000000
C           31.03450500000000       -2.43486600000000       -0.58313100000000
C           30.10282400000000       -3.35143900000000       -0.76884800000000
C           28.79151100000000       -2.73361500000000       -0.52751300000000
N           28.95551900000000       -1.35478900000000       -0.19332300000000
C           27.60505300000000       -3.37320100000000       -0.59121700000000
C           27.56915500000000       -4.82037800000000       -0.90439300000000
C           28.05794300000000       -5.75917900000000        0.01854000000000
C           28.01356700000000       -7.13562800000000       -0.27011500000000
C           28.53314600000000       -8.12671600000000        0.69781000000000
O           28.48228500000000       -9.48719300000000        0.40497800000000
O           29.02664700000000       -7.74998300000000        1.79527400000000
C           27.46601400000000       -7.55909400000000       -1.49368900000000
C           26.97222800000000       -6.62570900000000       -2.40885500000000
C           27.02105400000000       -5.26162700000000       -2.11663500000000
C           26.30707500000000       -2.69023500000000       -0.34881800000000
C           25.02941000000000       -3.39620400000000       -0.19296700000000
C           24.08635000000000       -2.49129300000000       -0.02644800000000
N           26.15282700000000       -1.40368300000000       -0.27587400000000
C           24.75516600000000       -1.19682700000000       -0.07153000000000
C           24.15020700000000        0.00000000000000        0.00000000000000
C           24.90282900000000        1.27350200000000       -0.03873400000000
C           24.36307800000000        2.45209600000000       -0.32249400000000
C           25.39673100000000        3.45355100000000       -0.14514500000000
C           26.49848700000000        2.82016300000000        0.24035000000000
N           26.27653300000000        1.41159100000000        0.32467900000000
C           27.77005600000000        3.49565700000000        0.60529400000000
C           27.73414700000000        4.94054200000000        0.93941100000000
C           26.98947200000000        5.38638100000000        2.04058200000000
C           26.93785400000000        6.74675800000000        2.34897200000000
C           27.62360000000000        7.67317300000000        1.55938000000000
C           28.36853500000000        7.24609200000000        0.44536100000000
C           29.09323400000000        8.22306300000000       -0.39696900000000
O           29.83078400000000        7.79129400000000       -1.49645900000000
O           29.05065300000000        9.45413800000000       -0.12770500000000
C           28.41431200000000        5.87428500000000        0.13985900000000
C           28.93784700000000        2.82539000000000        0.64128600000000
C           30.23932500000000        3.37352700000000        1.01959300000000
C           31.11014700000000        2.39591500000000        0.85886500000000
C           30.37339300000000        1.22230700000000        0.39285200000000
N           29.10671500000000        1.46094900000000        0.26235600000000
H           32.10676600000000       -0.06764700000000        0.04150700000000
H           32.09972100000000       -2.59695300000000       -0.68704600000000
H           30.30061100000000       -4.37695000000000       -1.05207200000000
H           28.46985900000000       -5.41115800000000        0.95850800000000
H           28.83553600000000      -10.17410500000000        1.06045800000000
H           27.41709700000000       -8.61125100000000       -1.74433500000000
H           26.55006600000000       -6.96119500000000       -3.34734100000000
H           26.63394700000000       -4.54838400000000       -2.83407700000000
H           24.86807400000000       -4.46610400000000       -0.20705600000000
H           23.03397900000000       -2.69987400000000        0.11295700000000
H           23.33672800000000        2.64267200000000       -0.60628900000000
H           25.27927200000000        4.52132400000000       -0.27728200000000
H           26.45258200000000        4.67913800000000        2.66096900000000
H           26.36430800000000        7.08471500000000        3.20241500000000
H           27.56847800000000        8.72280300000000        1.81970300000000
H           30.33079600000000        8.45179500000000       -2.07951700000000
H           28.97396000000000        5.52547200000000       -0.71986200000000
H           30.47139400000000        4.37228200000000        1.36517700000000
H           32.17365400000000        2.46319600000000        1.04691700000000
C           21.86048700000000        0.00000000000000        0.00000000000000
C           23.08240400000000        0.00000000000000        0.00000000000000
126
 energy: -238.438577020657 gnorm: 0.366271153826 xtb: 6.5.1 (b24c23e)
Co          17.26932278648551       -0.10948900380889       -0.01379973342511
C           13.92100461765201        0.01889572212311        0.07004853590324
C           14.57782701315441        1.19587714321601        0.17195550420080
C           13.90803255594224        2.48570238572531        0.24219178533702
C           14.84866912260824        3.41977637845540        0.36701802830706
C           16.15007174104133        2.74689130507855        0.39153016857174
N           15.97706058335068        1.35030804443441        0.25569893825926
C           17.35040848756418        3.38022479029102        0.54356376402773
C           17.37624068014878        4.85480185024095        0.72081326647351
C           16.88485588859145        5.44325701745415        1.89478964999090
C           16.92937911926621        6.83980133478900        2.07284564131824
C           16.40214217607103        7.45353493398559        3.32703124350307
O           16.46171748402202        8.82525904149565        3.47278574322574
O           15.92240938635084        6.75337477831354        4.21410743152701
C           17.47728685832913        7.63182766268873        1.05262286043454
C           17.96883292457389        7.04775404949559       -0.11265376872823
C           17.92161904867275        5.66642981407622       -0.28124106522556
C           18.62327899350473        2.67795476786051        0.55090360376417
C           19.89879030487567        3.28533257162985        0.92501504032790
C           20.84831438111481        2.35453248269766        0.78471863492168
N           18.77724567854034        1.41667887194163        0.20354175823936
C           20.13213913527268        1.17764882177840        0.32912932918295
C           20.65743582729846       -0.01362686323727       -0.00318109261697
C           19.99407429804259       -1.19813826638273       -0.44874373618511
C           20.57564183801912       -2.22894471487785       -1.11003378497084
C           19.56137949692432       -3.22106526235448       -1.26645843746076
C           18.43059967550746       -2.74156936634717       -0.68399327962860
N           18.64853762958197       -1.44649701947915       -0.16431708884591
C           17.18245029415265       -3.49666385174073       -0.56834193100793
C           17.21277817834676       -4.97588766045303       -0.72652041592480
C           17.95274064240580       -5.75879798268271        0.16875128021025
C           18.00134161412869       -7.14220641339213        0.01560243910144
C           17.31730490418403       -7.75877205312509       -1.03097396991982
C           16.57090250373119       -6.99131271262790       -1.94631766590758
C           15.84467093676470       -7.65833522017341       -3.06705063763490
O           15.11891944120790       -6.88022499637809       -3.94685298997647
O           15.88953920494025       -8.87742226012826       -3.20515145758171
C           16.52907931355055       -5.59831830143921       -1.78132028163031
C           16.00468914028326       -2.87774053868012       -0.31510552624811
C           14.71061753917844       -3.52069796775514       -0.13760417310547
C           13.82586889946297       -2.53462229698661        0.03082569017007
C           14.55585302162540       -1.27499884053572       -0.02666400224771
N           15.84305017082053       -1.47045247366681       -0.22325663841933
H           12.83681524919330        0.04663168378068        0.06158123379914
H           12.84362278131549        2.67323591320299        0.19721971133974
H           14.64964534810925        4.48078982707254        0.43376211399280
H           16.47338127887965        4.80518667119597        2.67120672538982
H           16.11193613808632        9.25156342654357        4.30735178091365
H           17.52525755260820        8.70891225431455        1.16114421589264
H           18.39223004202622        7.67172091977207       -0.89262136919501
H           18.30822440467317        5.22377737399677       -1.19385871435179
H           20.06951368574778        4.29349466889432        1.26115001584764
H           21.90453854515575        2.50562377993551        0.98527429661175
H           21.60378067342801       -2.30058400377507       -1.43653013153008
H           19.66742194965844       -4.18399543098618       -1.73858636568668
H           18.48940624545175       -5.29096749200902        0.98785567974757
H           18.57712530978759       -7.74110813293148        0.71466666964728
H           17.37257744681616       -8.83809454286463       -1.12745563305180
H           14.62668173810441       -7.31276324684419       -4.70260110317402
H           15.96932885609814       -4.98909521431318       -2.48250260584927
H           14.47814130991399       -4.57737688723974       -0.13658242253840
H           12.76700843509321       -2.66474206632877        0.18669958733197
Co          27.67356816249231        0.10800180602638        0.02266864358311
C           31.02188632991738       -0.04071109907742        0.06005353557562
C           30.36506394630212       -1.18655984865835       -0.22752419931412
C           31.03485774129713       -2.42875046593593       -0.58184738246559
C           30.09422164756878       -3.35245247630366       -0.76852795792672
C           28.79281850978830       -2.72436526616904       -0.52587299407888
N           28.96583042309526       -1.35985984942933       -0.19873302945213
C           27.59248238635770       -3.37265049314455       -0.58873697319179
C           27.56665015240524       -4.82439322171207       -0.90216266615895
C           28.05803421808135       -5.76359526754899        0.01566074748544
C           28.01351081783918       -7.14183617695365       -0.27154989575585
C           28.54074797936462       -8.13109668362997        0.71385055431535
O           28.48117349000402       -9.47533896132405        0.40419990922614
O           29.02048157248524       -7.75857928956332        1.78078934681050
C           27.46560325630976       -7.55776552945671       -1.49431913712206
C           26.97405800686363       -6.62554379308829       -2.40534812559319
C           27.02127187091259       -5.26477846429758       -2.11415036866561
C           26.31961183991782       -2.71118383514783       -0.35272951888580
C           25.04410050145672       -3.40737066816378       -0.19719651799868
C           24.09457579331357       -2.48171718214573       -0.02620780031574
N           26.16564446902256       -1.40558826233887       -0.26968638047654
C           24.81075162725883       -1.22059611618290       -0.07300016786014
C           24.28545515490508        0.01391911953329        0.00143776303826
C           24.94881673837956        1.27898031180979       -0.03338840553458
C           24.36724910760457        2.46911002229076       -0.32227842590794
C           25.38151139007888        3.45799144322650       -0.14653510510111
C           26.51229126945740        2.81473078479431        0.24766924613943
N           26.29435329527866        1.42098075832166        0.31649295076320
C           27.76044062168862        3.49080283240187        0.60329428023513
C           27.73011279697008        4.94071866370841        0.93626419249021
C           26.99015036867562        5.38878658092297        2.03794254949316
C           26.94154942786118        6.74648623081189        2.34441432927718
C           27.62558605884891        7.67070530004666        1.55619089894651
C           28.37198849997609        7.24378985779087        0.44057876563132
C           29.09822004956634        8.23989505870123       -0.40128649446668
O           29.82397151961505        7.79131888923194       -1.48677617787600
O           29.05335176394091        9.43735226892590       -0.13418924823540
C           28.41381166342214        5.87316365746777        0.14218100439080
C           28.93820119799600        2.82312910509942        0.64079826059622
C           30.23227340548709        3.37302386551077        1.01831279940418
C           31.11702202322209        2.38594089041656        0.85589057242426
C           30.38703734728350        1.21396261243217        0.39067724851375
N           29.09984081108107        1.46285117581655        0.26858981565966
H           32.10607571630661       -0.06416826459944        0.04300272512240
H           32.09926734891742       -2.59135822697152       -0.68553046511960
H           30.29324558620190       -4.37720651125715       -1.05151828010757
H           28.46950971564910       -5.41367693331245        0.95774017393490
H           28.83095483028022      -10.15054866306974        1.05406787353635
H           27.41763343454524       -8.61133891695763       -1.74305968110863
H           26.55066094182652       -6.96097108969389       -3.34618411356550
H           26.63466668388613       -4.54865575653741       -2.83246919848080
H           24.87337631755630       -4.47003413540563       -0.20829041749059
H           23.03835157723745       -2.68996301783185        0.11409532934200
H           23.33911036466622        2.64332856128384       -0.60755095721382
H           25.27546899243869        4.52225535716607       -0.27874993563112
H           26.45348471403970        4.67936553821639        2.65964878031539
H           26.36576573533226        7.08460973178310        3.20059579475875
H           27.57031354260460        8.72246668052771        1.81704317751213
H           30.31620927913792        8.44671188524371       -2.06010336827612
H           28.97356224923982        5.52597471396906       -0.71936880862028
H           30.46474968014336        4.37157592138871        1.36394910368177
H           32.17588253026966        2.45810024790342        1.04568188701723
C           21.90713834350604       -0.00638113152105       -0.00209521098859
C           23.03575263555566        0.00671552164665        0.00010080434110
126
 energy: -238.543328546679 gnorm: 0.219189333841 xtb: 6.5.1 (b24c23e)
Co          17.27022237139137       -0.08455136877800       -0.00597473482277
C           13.92366497234200        0.00194135136994        0.06921827175318
C           14.58382924081170        1.19356157183223        0.16937014932456
C           13.91178292793870        2.47575474750073        0.24070226350377
C           14.86047699312298        3.41657586441197        0.36706945362235
C           16.14890093503333        2.73971544745496        0.38880114442741
N           15.96181910793072        1.36172018219794        0.25152627945510
C           17.35581937679375        3.38538954630984        0.54932474975719
C           17.37776712358738        4.86214192114138        0.72864355435611
C           16.88357076053329        5.45429578973678        1.89524840612582
C           16.92928119248436        6.84892052738095        2.07274697900588
C           16.39577127366832        7.44959328743299        3.33970758731714
O           16.46915247061512        8.80628806062314        3.45297055205960
O           15.92451142993800        6.76652398706001        4.21173071059394
C           17.47713449113200        7.63391255128193        1.05300075068985
C           17.96643177419715        7.04792818598588       -0.10789446516596
C           17.92191583420725        5.66990842961104       -0.27424989694179
C           18.59766059834533        2.70913356146852        0.55764828383311
C           19.87382004856789        3.30091203656602        0.92104263729188
C           20.81803469253208        2.34625200397116        0.78163096348081
N           18.74201627472733        1.42423602968701        0.22635005647184
C           20.07382710323361        1.18668634388630        0.33732412186768
C           20.56593566944240       -0.02864882762192       -0.01082667659119
C           19.94025668848710       -1.20230136635838       -0.44661956921928
C           20.56026779126164       -2.25130710579544       -1.10976525552024
C           19.57681918858858       -3.22930296446749       -1.26259079699825
C           18.41346660516756       -2.74577604018466       -0.67893280640798
N           18.61230849077220       -1.45491284530684       -0.19460881744852
C           17.19419063974744       -3.49014876882670       -0.56898627145106
C           17.22153030646882       -4.97157915853682       -0.73491735712162
C           17.95306619463690       -5.75847100299034        0.16070527769380
C           17.99429406920700       -7.13934029207539        0.00710248039949
C           17.31165473703050       -7.75275947878222       -1.03774595020627
C           16.56593954691199       -6.98387480604161       -1.95018332366380
C           15.84223842356106       -7.67026929642651       -3.07200308582599
O           15.13472062209395       -6.87514665101939       -3.92378081941954
O           15.88417038472008       -8.86541923238959       -3.21072117048124
C           16.52895521453483       -5.59516787673477       -1.78014052958351
C           16.00616439701630       -2.86913298431291       -0.31064354735961
C           14.71940346717965       -3.50988101748076       -0.13868776690306
C           13.82031521889759       -2.51948814688334        0.02873381805331
C           14.54255129770252       -1.26469178091372       -0.02502294618479
N           15.85142487971586       -1.47208608585595       -0.20760168251101
H           12.83922063899343        0.03639579549499        0.06389142484963
H           12.84684054064910        2.65738971904074        0.19634696606197
H           14.66922788991800        4.47850756356037        0.43546048902103
H           16.47356560820306        4.81505772372302        2.67248279721989
H           16.12009197552539        9.20704228037667        4.28111120774679
H           17.52404995359448        8.71044710840934        1.16430409003332
H           18.39023941725236        7.67050946934741       -0.88972292551790
H           18.30580951911265        5.22347875844945       -1.18755849354514
H           20.05455951114556        4.30527635713782        1.25989211026474
H           21.87956951368783        2.48122058315202        0.97886873826944
H           21.59021308997823       -2.30100953052555       -1.43790231786632
H           19.67674877163123       -4.18766006308693       -1.74128101935772
H           18.48709200182448       -5.29089866087469        0.98287019316952
H           18.57087424115537       -7.73895851025481        0.70769999774769
H           17.36602390356160       -8.83312380870730       -1.13606634151344
H           14.65765927780578       -7.31952268425117       -4.66087891019103
H           15.96924874000625       -4.98835990351503       -2.48273820706684
H           14.49577675509182       -4.56915494454562       -0.13906221655380
H           12.76253166542062       -2.65091256048154        0.18663695320980
Co          27.67266841164166        0.08187561355481        0.02193169354303
C           31.01922595168361       -0.02441303029510        0.06479906154993
C           30.35906174435823       -1.18352754900422       -0.22921264307188
C           31.03110765527884       -2.41886090951422       -0.58001092911741
C           30.08241368863287       -3.34944399077207       -0.76743532995186
C           28.79398960224851       -2.71669175265907       -0.52611199650511
N           28.98107199709119       -1.36928698311554       -0.20640000573521
C           27.58707134056733       -3.37941179772204       -0.58497559869470
C           27.56512353596715       -4.83388616902711       -0.89715513726190
C           28.05931948790212       -5.77417986765386        0.01249383055564
C           28.01360877889292       -7.15042472468422       -0.27461785907832
C           28.54711915645593       -8.13150542714055        0.72711917294613
O           28.47373843182324       -9.45094233640288        0.39165664505821
O           29.01837946268990       -7.77023415144913        1.77425368546338
C           27.46575576770649       -7.55985969662500       -1.49464190222554
C           26.97645902695522       -6.62726070460260       -2.40090596419035
C           27.02097498790294       -5.27034705815827       -2.10867647644519
C           26.34523000649277       -2.74285755052119       -0.35652389811970
C           25.06907054820130       -3.42080248716510       -0.20603314437989
C           24.12485559881846       -2.47288250065207       -0.02642571479519
N           26.20087397094655       -1.42017169462113       -0.25059082675440
C           24.86906341106648       -1.23181221336594       -0.06820141966737
C           24.37695519725784        0.03061334459122       -0.00088965133361
C           25.00263424356438        1.28222299680000       -0.03002234646316
C           24.38262306243170        2.49016193048270       -0.31473053523696
C           25.36607152083566        3.46451702050093       -0.14019215021584
C           26.52942420640239        2.81705670502797        0.25382526925945
N           26.33058223340568        1.43881703523046        0.29060308147179
C           27.74870024699218        3.48485443955745        0.60056004945589
C           27.72136065369640        4.93938464552604        0.92692120944688
C           26.98982479661174        5.39110202181234        2.03022995457880
C           26.94859697964731        6.74654952203229        2.33544417632260
C           27.63123626324055        7.66723041802608        1.54782832768024
C           28.37695145822719        7.23801987430371        0.43449837152462
C           29.10065251742639        8.25279178231742       -0.40207546241271
O           29.80817028747466        7.77899237716339       -1.46662225949598
O           29.05872053297330        9.42782247009045       -0.14336939212318
C           28.41393578288372        5.86980081975195        0.14226866882655
C           28.93672635813045        2.81353714914141        0.64220846316332
C           30.22348747733627        3.36315181052444        1.01376032222535
C           31.12257574121754        2.37231671646924        0.84897645658195
C           30.40033955028692        1.20368383603164        0.38886642223805
N           29.09146627702034        1.45928916059583        0.28392142937277
H           32.10367028701884       -0.05524564584749        0.04852533759214
H           32.09604986633834       -2.57609402542324       -0.68118670388155
H           30.27366296467656       -4.37560313350229       -1.04916841295881
H           28.46932532789630       -5.42342429025544        0.95572684656926
H           28.82279896894194      -10.09990325900200        1.04378447657888
H           27.41884096602184       -8.61382037524842       -1.74057317185058
H           26.55265154732734       -6.96077141447061       -3.34304915263517
H           26.63708161393055       -4.55042860111924       -2.82641601656281
H           24.88833049132296       -4.48076147006484       -0.21332255374608
H           23.06332076827464       -2.66480509234466        0.11599999583681
H           23.35267791317150        2.64417847883535       -0.60870924320202
H           25.26614204363723        4.52659877024762       -0.28010189513976
H           26.45579891803638        4.68092660754096        2.65491363547852
H           26.37201688981613        7.08485004731563        3.19330887802606
H           27.57686706309807        8.72057643644676        1.80728199721671
H           30.28523172270258        8.43949258630064       -2.01845826676311
H           28.97364246892979        5.52535641778849       -0.71983160990396
H           30.44711422462533        4.36461264292656        1.35892317139138
H           32.18035929670061        2.44504757656779        1.04111174477515
C           21.86488299728222       -0.01731476702773       -0.00709917795138
C           23.07800786917756        0.01868339431088       -0.00106308408055
126
 energy: -238.592900113994 gnorm: 0.089546541004 xtb: 6.5.1 (b24c23e)
Co          17.26739628349378       -0.05668926275496        0.00378646526432
C           13.92669659316266       -0.01095925262050        0.06935377996282