223
 energy: -395.662432257551 gnorm: 0.647883102366 xtb: 6.5.1 (b24c23e)
Cu          29.51695700000000       -0.01830100000000       -0.03559000000000
C           26.17290600000000        0.11131600000000        0.05678300000000
C           26.84078000000000        0.89580500000000        0.90726500000000
C           26.19589100000000        1.77512900000000        1.87552900000000
C           27.14178500000000        2.42557900000000        2.52700800000000
C           28.44371100000000        1.99439700000000        2.00139200000000
N           28.26045299999999        1.01898200000000        0.97538900000000
C           29.63730500000000        2.47270600000000        2.40407000000000
C           30.93083300000000        2.01990100000000        1.83202800000000
C           32.22239800000000        2.63720100000000        2.15439600000000
C           33.15677000000000        1.98180300000000        1.49667200000000
N           31.06851200000000        1.02314900000000        1.01205600000000
C           32.46927200000000        0.93466400000000        0.75025800000000
C           33.06240700000000        0.00173100000000       -0.01322700000000
C           32.30200400000000       -1.04614100000000       -0.73353300000000
C           32.84863900000000       -2.14013800000000       -1.24948000000000
C           31.80013500000000       -2.86226300000000       -1.94179300000000
C           30.68063600000000       -2.16138600000000       -1.80557900000000
C           29.38593700000000       -2.52732900000000       -2.43563200000000
C           29.38980099999999       -3.53651300000000       -3.52491400000000
C           29.91744500000000       -3.19780700000000       -4.78706100000000
O           30.41547400000000       -1.89906600000000       -4.98647500000000
C           30.97867300000000       -1.42777200000000       -6.20578900000000
C           29.92869200000000       -4.16277300000000       -5.81089700000000
C           29.42409600000000       -5.44219400000000       -5.57911800000000
C           28.90708400000000       -5.77941100000000       -4.32833700000000
C           28.88906200000000       -4.83295800000000       -3.28735300000000
O           28.38968200000000       -5.14360800000000       -2.01102600000000
C           27.84225500000000       -6.40510500000000       -1.64280700000000
C           28.22292200000000       -1.96716600000000       -2.05444600000000
C           26.90626400000000       -2.24901900000000       -2.62284900000000
C           26.04571400000000       -1.53019200000000       -1.92856700000000
C           26.80432100000000       -0.78335600000000       -0.92627100000000
N           28.07486400000000       -1.03073700000000       -0.98982500000000
N           30.90708000000000       -0.97937400000000       -1.03439200000000
C           29.68137600000000        3.51202400000000        3.45866100000000
C           29.81179600000000        3.13223600000000        4.80867700000000
O           29.89702900000000        1.76527100000000        5.12199400000000
C           30.01863500000000        1.24527800000000        6.44211100000000
C           29.85151400000000        4.12751000000000        5.80252900000000
C           29.76481400000000        5.47562900000000        5.45326700000000
C           29.63985700000000        5.85067300000000        4.11502600000000
C           29.59858200000000        4.87285700000000        3.10402400000000
O           29.47805600000000        5.21239600000000        1.74588200000000
C           29.39914800000000        6.54517300000000        1.25064700000000
H           25.08951300000000        0.13411700000000        0.07924000000000
H           25.13208700000000        1.88970900000000        2.04057600000000
H           26.96144800000000        3.15478700000000        3.30638100000000
H           32.39898400000000        3.47863100000000        2.81158600000000
H           34.21604200000000        2.19773800000000        1.53281700000000
H           33.88700900000000       -2.43705200000000       -1.18853100000000
H           31.91908700000000       -3.78863400000000       -2.48864200000000
H           30.22349900000000       -1.47556400000000       -7.01854600000000
H           31.29344000000000       -0.37205800000000       -6.07488400000000
H           31.87027800000000       -2.03307300000000       -6.47352600000000
H           30.32457700000000       -3.93374000000000       -6.79081900000000
H           29.43661000000000       -6.17804900000000       -6.37293300000000
H           28.52785500000000       -6.78104700000000       -4.18000500000000
H           27.52378100000000       -6.36555500000000       -0.58122800000000
H           26.95553400000000       -6.63396900000000       -2.27094600000000
H           28.60787600000000       -7.20191900000000       -1.75518400000000
H           26.65945700000000       -2.91236100000000       -3.44168200000000
H           24.97510500000000       -1.50664600000000       -2.08412200000000
H           30.06612200000000        0.13845500000000        6.39200400000000
H           29.13527300000000        1.53618300000000        7.04909600000000
H           30.95090600000000        1.62063600000000        6.91554000000000
H           29.94773700000000        3.87020700000000        6.84860200000000
H           29.79559300000000        6.23473000000000        6.22445700000000
H           29.57684000000000        6.90385400000000        3.87763700000000
H           30.31714000000000        7.10876600000000        1.52275300000000
H           29.31546400000000        6.51588400000000        0.14516600000000
H           28.50069100000000        7.05180900000000        1.66212400000000
Cu          59.72764100000000        0.02102100000000        0.00977800000000
C           63.07169200000000       -0.05200200000000       -0.13164600000000
C           62.40381800000000       -0.78242300000000       -1.02899200000000
C           63.04870800000000       -1.61596000000000       -2.03694100000000
C           62.10281400000000       -2.16843600000000       -2.77333800000000
C           60.80088700000000       -1.70939900000000       -2.27186500000000
N           60.98414499999999       -0.83235900000000       -1.16059600000000
C           59.60729400000000       -2.04005000000000       -2.80252400000000
C           58.31376500000000       -1.53813000000000       -2.27305100000000
C           57.02220100000000       -1.76954200000000       -2.92988400000000
C           56.08782900000000       -1.21158700000000       -2.18770200000000
N           58.17608700000000       -0.86806200000000       -1.16993000000000
C           56.77532600000000       -0.62148800000000       -1.04515300000000
C           56.18219200000000        0.00173100000000       -0.01322700000000
C           56.94259500000000        0.56588200000000        1.12633800000000
C           56.39595900000000        0.92119300000000        2.28253300000000
C           57.44446300000000        1.50390800000000        3.09567800000000
C           58.56396300000000        1.46863500000000        2.38255900000000
C           59.85866200000000        2.04031600000000        2.83429100000000
C           59.85479800000000        2.97519800000000        3.98797500000000
C           59.32715300000000        4.27265900000000        3.83199200000000
O           58.82912499999999        4.65453700000000        2.57474700000000
C           58.26592500000000        5.92843500000000        2.28143700000000
C           59.31590700000000        5.14903800000000        4.93260900000000
C           59.82050200000000        4.73786700000000        6.16613100000000
C           60.33751500000000        3.45186900000000        6.32225400000000
C           60.35553700000000        2.55588500000000        5.23752600000000
O           60.85491600000000        1.24837200000000        5.36372300000000
C           61.40234399999999        0.70469100000000        6.56012300000000
C           61.02167700000000        1.74256800000000        2.22566100000000
C           62.33833500000000        2.26516900000000        2.58539700000000
C           63.19888400000000        1.68003800000000        1.77523700000000
C           62.44027700000000        0.79399400000000        0.89359700000000
N           61.16973399999999        0.82176300000000        1.14749800000000
N           58.33751800000000        0.87317400000000        1.10298600000000
C           59.56322200000000       -2.93631100000000       -3.98110800000000
C           59.43280299999999       -4.32658600000000       -3.79694200000000
O           59.34756899999999       -4.83090400000000       -2.48834500000000
C           59.22596299999999       -6.21150000000000       -2.16114800000000
C           59.39308399999999       -5.16898100000000       -4.92330000000000
C           59.47978500000000       -4.63175900000000       -6.20813600000000
C           59.60474099999999       -3.25381400000000       -6.38927800000000
C           59.64601700000000       -2.39196300000000       -5.27776400000000
O           59.76654200000000       -0.99936200000000       -5.42093500000000
C           59.84544999999999       -0.31982700000000       -6.66984900000000
H           64.15508500000000       -0.07099300000000       -0.15740500000000
H           64.11251200000000       -1.76305700000000       -2.17380400000000
H           62.28315100000000       -2.83632100000000       -3.60586200000000
H           56.84561399999999       -2.30054100000000       -3.85613500000000
H           55.02855699999999       -1.21669200000000       -2.40658200000000
H           55.35758999999999        0.81868600000000        2.56777800000000
H           57.32551100000000        1.91362000000000        4.09033500000000
H           59.02109999999999        6.72616100000000        2.44419700000000
H           57.95115799999999        5.94882200000000        1.21783300000000
H           57.37432099999999        6.10747300000000        2.91863200000000
H           58.92002100000000        6.15155800000000        4.84509600000000
H           59.80798900000000        5.41910400000000        7.00728600000000
H           60.71674300000000        3.16275800000000        7.29266300000000
H           61.72081700000000       -0.34050500000000        6.37017500000000
H           62.28906500000000        1.29395000000000        6.87589400000000
H           60.63672300000000        0.70274000000000        7.36482000000000
H           62.58514199999999        2.98147100000000        3.35832800000000
H           64.26949399999999        1.83736000000000        1.77402500000000
H           59.17847700000000       -6.31912600000000       -1.05843200000000
H           60.10932499999999       -6.77100600000000       -2.53532600000000
H           58.29369300000000       -6.62680800000000       -2.59995100000000
H           59.29686200000000       -6.24099600000000       -4.81720100000000
H           59.44900500000000       -5.28729800000000       -7.06908700000000
H           59.66775900000000       -2.86922700000000       -7.39805800000000
H           58.92745900000000       -0.50911500000000       -7.26637900000000
H           59.92913500000000        0.77028300000000       -6.48382200000000
H           60.74390799999999       -0.65516300000000       -7.22979800000000
C           36.88054399999999        0.01446300000000       -0.01070200000000
C           35.62827300000000       -0.00471800000000       -0.01505100000000
C           38.19421199999999        0.01369700000000       -0.00877000000000
C           39.69734500000000       -0.00471800000000       -0.01505100000000
C           50.88559399999999        0.01446300000000       -0.01070200000000
C           49.63332299999999       -0.00471800000000       -0.01505100000000
C           52.19926199999999        0.01369700000000       -0.00877000000000
C           53.70239500000000       -0.00471800000000       -0.01505100000000
Cu          44.52936799999999        0.00455200000000       -0.06103000000000
C           41.17389200000000       -0.00297900000000        0.02852300000000
C           41.83111100000000       -0.05093400000000        1.20194200000000
C           41.18996400000000       -0.16736600000000        2.51384400000000
C           42.13012100000000       -0.14860400000000        3.43740200000000
C           43.42894400000000       -0.01711700000000        2.77101700000000
N           43.24982599999999        0.04138700000000        1.35427200000000
C           44.61431600000000        0.06170800000000        3.40904000000000
C           45.91508100000000        0.18167000000000        2.70613000000000
C           47.18692200000000        0.44776700000000        3.38860200000000
C           48.14113000000000        0.43689200000000        2.48075600000000
N           46.08242000000000        0.01260500000000        1.43137700000000
C           47.48491200000000        0.16033200000000        1.20895800000000
C           48.10303800000000       -0.00297900000000        0.02852300000000
C           47.36016399999999       -0.28026400000000       -1.22029300000000
C           47.91299599999999       -0.74744600000000       -2.33261400000000
C           46.87832600000000       -0.77625200000000       -3.34777600000000
C           45.76295100000000       -0.32352000000000       -2.78704700000000
C           44.49550200000000       -0.08941300000000       -3.51944300000000
C           44.54147300000000       -0.00426200000000       -5.00069000000000
C           44.05019099999999       -1.06894300000000       -5.78301300000000
O           43.52588100000000       -2.20029400000000       -5.13511600000000
C           43.00095700000000       -3.34276700000000       -5.80282600000000
C           44.10253699999999       -0.97353800000000       -7.18586700000000
C           44.64154600000000        0.15913300000000       -7.79599500000000
C           45.13586700000000        1.20840000000000       -7.02137300000000
C           45.09191500000000        1.13711000000000       -5.61681200000000
O           45.57771000000000        2.17621600000000       -4.80553200000000
C           46.15090700000000        3.38381700000000       -5.29542800000000
C           43.32132899999999        0.06802300000000       -2.88110100000000
C           42.03803300000000        0.34716100000000       -3.51627700000000
C           41.14728699999999        0.36994300000000       -2.54636100000000
C           41.85081400000000        0.10905200000000       -1.28499800000000
N           43.12250899999999       -0.06675500000000       -1.47399900000000
N           45.97626400000000        0.00994200000000       -1.41604800000000
C           44.64370200000000        0.02177100000000        4.89020000000000
C           44.89018500000000       -1.19764300000000        5.55029700000000
O           45.09698700000000       -2.35442400000000        4.78011100000000
C           45.35408900000000       -3.64732300000000        5.31750700000000
C           44.92075400000000       -1.22481200000000        6.95659200000000
C           44.71180200000000       -0.05595500000000        7.68858600000000
C           44.47255700000000        1.15209200000000        7.03373900000000
C           44.43792500000000        1.20391700000000        5.62811800000000
O           44.20704799999999        2.40350400000000        4.93419100000000
C           43.99560500000000        3.66735500000000        5.55442000000000
H           40.13225200000000       -0.25325000000000        2.72367800000000
H           41.94622300000000       -0.21701100000000        4.50197900000000
H           47.33694400000000        0.62038100000000        4.44625000000000
H           49.19338500000000        0.59734000000000        2.67417200000000
H           48.94843600000000       -1.02652600000000       -2.47387400000000
H           47.00630800000000       -1.07294700000000       -4.38077300000000
H           42.13338200000000       -3.05143500000000       -6.43179200000000
H           42.66066300000000       -4.07969800000000       -5.04668800000000
H           43.78808100000000       -3.81404900000000       -6.42889500000000
H           43.73139000000000       -1.77098800000000       -7.81466400000000
H           44.67801900000000        0.22337500000000       -8.87603500000000
H           45.54881999999999        2.07183100000000       -7.52511400000000
H           46.44827300000000        4.01770900000000       -4.43562100000000
H           45.40804800000000        3.93909900000000       -5.90610300000000
H           47.05383700000000        3.15916200000000       -5.90157600000000
H           41.83186600000000        0.50697500000000       -4.56685900000000
H           40.09024000000000        0.55584200000000       -2.68274400000000
H           44.50018600000000       -3.97543600000000        5.94694100000000
H           45.47871900000000       -4.36736700000000        4.48290700000000
H           46.28869400000000       -3.63289200000000        5.91696100000000
H           45.10551299999999       -2.14452200000000        7.49428600000000
H           44.73766699999999       -0.08613100000000        8.77021400000000
H           44.31804200000000        2.04083100000000        7.63008300000000
H           44.88273800000000        3.94844400000000        6.16020100000000
H           43.08932799999999        3.63099800000000        6.19521100000000
H           43.84443200000000        4.43535800000000        4.76857700000000
223
 energy: -395.886418865236 gnorm: 0.399470504541 xtb: 6.5.1 (b24c23e)
Cu          29.52665571024555       -0.01296237775704       -0.02881084871978
C           26.17258742029983        0.09873810868180        0.04282289377284
C           26.84604047011240        0.89558573449587        0.90756105273026
C           26.19631482598295        1.76991085019600        1.86992937090375
C           27.15354317956324        2.42678031230428        2.52797661657477
C           28.44393494786595        1.98978185752332        1.99737518096689
N           28.23952184345534        1.03259542632515        0.98767449118942
C           29.65389387362568        2.46967146639986        2.39877665102531
C           30.92500067178362        2.03145299992109        1.84418997048066
C           32.20837893368778        2.64366229564232        2.16336105670948
C           33.15522132850028        1.97534892937891        1.49100702844475
N           31.08183523489576        1.02367640145819        1.00912109621571
C           32.48058082435776        0.92989327545718        0.74444664509806
C           33.05765962583430       -0.01550138120444       -0.02213357119754
C           32.29986219262388       -1.03042500352724       -0.73108838309954
C           32.85247821563451       -2.16016972314701       -1.26357442328467
C           31.82469193793266       -2.86536504089646       -1.94225993498780
C           30.67242980819658       -2.14519265959464       -1.80392248645753
C           29.40340069124583       -2.51814847770020       -2.42685481128980
C           29.39985152543648       -3.53610977699968       -3.51916788769693
C           29.92150224743312       -3.19804455981514       -4.78940058392593
O           30.40900479427653       -1.90858346767907       -4.97707632225828
C           30.97272186705660       -1.44026623256656       -6.20027531195868
C           29.92804403761848       -4.16027870361904       -5.80854512266923
C           29.42413999438115       -5.43563613041753       -5.57200528823683
C           28.90698282185556       -5.77666134743017       -4.32574006783024
C           28.88836793246330       -4.83521433001521       -3.28725107755358
O           28.39530264628797       -5.13294238864799       -2.01952517117757
C           27.84821768825135       -6.39848824034793       -1.65498423028598
C           28.22348345224178       -1.96456259181317       -2.05306943207198
C           26.91525895203597       -2.24830126948516       -2.61949664577316
C           26.03497791284731       -1.52104575008547       -1.91864013477762
C           26.78260171701092       -0.77720332609790       -0.91923587676399
N           28.07322394790608       -1.03522534358798       -0.99905316572471
N           30.91470292274609       -0.98410758946548       -1.03558128238105
C           29.68755703873493        3.51339562208611        3.45875325543727
C           29.81296005880519        3.13300902828135        4.81316004248007
O           29.89565934515048        1.77553351816948        5.11137809707611
C           30.01758901058605        1.25871682699782        6.43516323160670
C           29.85101474955541        4.12586956039928        5.80092994513410
C           29.76459052669219        5.46921629581310        5.44672082061811
C           29.63965570435655        5.84921977935077        4.11341613934971
C           29.59941063018653        4.87779201844856        3.10485970431864
O           29.47935291717388        5.20168166689943        1.75585099214855
C           29.40042389852265        6.53802330183758        1.26385347156529
H           25.08964757906561        0.12937604372655        0.07256275642451
H           25.13272737024611        1.88203308060029        2.03272811914116
H           26.97533201973928        3.15537395771504        3.30672740983936
H           32.38755527661918        3.48242379579171        2.81654147979975
H           34.21471235320429        2.18718018753126        1.52417201959163
H           33.88894454376103       -2.44446304835784       -1.19222980255068
H           31.92703857997483       -3.79069487128592       -2.48703766724866
H           30.22964189263494       -1.47705080405776       -7.01598741809879
H           31.28487630490066       -0.38871142353952       -6.06623356186001
H           31.86422293739927       -2.03049936031629       -6.47486435098850
H           30.32471556303894       -3.93112834853007       -6.78945479126957
H           29.43649084609185       -6.17417775164233       -6.36870274133083
H           28.52736697027409       -6.77966553357944       -4.17720772029696
H           27.53221471761274       -6.35557493042167       -0.59703226864016
H           26.96156777689338       -6.63556100222563       -2.26853245036311
H           28.60182058424691       -7.19900454702301       -1.75644057608983
H           26.67261676563930       -2.91183398482773       -3.43910629865516
H           24.96937069777700       -1.49992895206861       -2.07722778003752
H           30.06459934742831        0.15609396968187        6.38162216855841
H           29.14206683067530        1.53593413491260        7.04805262751760
H           30.94406378249500        1.61960810734832        6.91537486887722
H           29.94774222060807        3.86787147902812        6.84775599443099
H           29.79545378256128        6.23090328984301        6.22058137749519
H           29.57660729917447        6.90320655437267        3.87532428396082
H           30.31020365290038        7.10782741348734        1.52268864796835
H           29.31711971769762        6.50518080413597        0.16254315536719
H           28.50742308485305        7.05156461738330        1.66096945238314
Cu          59.71798079098292        0.01515342749262        0.00350741838938
C           63.07198696479949       -0.03999040628452       -0.11723922381161
C           62.39858689866897       -0.78276163597161       -1.02886694685344
C           63.04831894610320       -1.61118962906496       -2.03104044863301
C           62.09109065972548       -2.16922902884036       -2.77470673077633
C           60.80067825297827       -1.70602807096425       -2.26669597725008
N           61.00516877530978       -0.84286394152733       -1.17582864883263
C           59.59050407531428       -2.03511253931463       -2.79863837770928
C           58.31932586531784       -1.54836048651768       -2.28596838220218
C           57.03600596481946       -1.77746088279963       -2.93756699963448
C           56.08895549423762       -1.20704419965640       -2.18081454084860
N           58.16174472866971       -0.86483682072009       -1.16964081365247
C           56.76252654318323       -0.61645767436145       -1.03954544353087
C           56.18384124600309        0.00817422872033        0.00505265788470
C           56.94339229042385        0.56587358523940        1.11045521711819
C           56.39170251453196        0.93235645520657        2.30466933389716
C           57.41974635955162        1.50388247273677        3.09879753714037
C           58.57186605595168        1.46919511653728        2.36603324710641
C           59.84113272184200        2.03286012278117        2.82385507582311
C           59.84470017309954        2.96952976487705        3.98672602821785
C           59.32307605116711        4.27494036515220        3.83253632482147
O           58.83560814349963        4.64386627923729        2.58284380411076
C           58.27185991866757        5.92121557958784        2.29302045548220
C           59.31656050703013        5.14706075455393        4.92979921757105
C           59.82045610975529        4.73175724181960        6.15861844912979
C           60.33761641371156        3.44968451587292        6.31914893958857
C           60.35622543688700        2.55545748952396        5.23972697527077
O           60.84929361432681        1.25828837886716        5.35436397881915
C           61.39638153032759        0.71768401536881        6.55530258908986
C           61.02114044876648        1.74158036214998        2.22291650410775
C           62.32939983862148        2.26197815906663        2.58426794236340
C           63.20966398271928        1.67158646463069        1.76482416139173
C           62.46201464753993        0.78795172636641        0.88657772479404
N           61.17155019375971        0.83034811915960        1.15336157379024
N           58.32897442342536        0.87359514039498        1.10754276245689
C           59.55695994114095       -2.93616598059223       -3.98242939206036
C           59.43162533999058       -4.33091041657694       -3.79831789498046
O           59.34895379211804       -4.81891834566392       -2.49700161796835
C           59.22699737742929       -6.20272540194322       -2.17346340689989
C           59.39359415697716       -5.16762140324086       -4.92144193184266
C           59.48000998080734       -4.62618819873827       -6.20084634500752
C           59.60495116131002       -3.25242374110869       -6.38759508570378
C           59.64517706936383       -2.39208317503549       -5.28274932444602
O           59.76524387872838       -1.01073790329405       -5.41173064551463
C           59.84417217677243       -0.33391498489716       -6.66464858657202
H           64.15493909864901       -0.06506822776418       -0.15176619219984
H           64.11189454528112       -1.75639465661421       -2.16511883108855
H           62.26927406315113       -2.83659045034839       -3.60651469233889
H           56.85702140307405       -2.30490899885091       -3.86058192090438
H           55.02954555239516       -1.20964654136543       -2.39494266928981
H           55.35536276703957        0.82133090402354        2.57582703425601
H           57.31756651159321        1.91170699723342        4.09213550517670
H           59.01495509138572        6.72341291123244        2.44530445221499
H           57.95972021385277        5.93789030945227        1.23308901873289
H           57.38037569461090        6.10915549911571        2.91627517632394
H           58.91988370307467        6.15056930245203        4.84231470239018
H           59.80810651785938        5.41546163018717        7.00284709138038
H           60.71722995921375        3.16018116790290        7.29088810921833
H           61.71238405261109       -0.32344395101801        6.36254251201191
H           62.28303034426558        1.29133539799207        6.87712557546017
H           60.64277826447128        0.70439854607234        7.36211259414727
H           62.57200412536250        2.97902426510191        3.35746844552636
H           64.27525863213643        1.83151470123965        1.76642097152273
H           59.17999750415787       -6.30634127491737       -1.07441781758041
H           60.10252825442689       -6.77000610394096       -2.53493042455311
H           58.30053233279124       -6.62678147388718       -2.59891109305413
H           59.29685577641488       -6.24047805842407       -4.81476517946030
H           59.44914139884384       -5.28399959680717       -7.06474020057071
H           59.66799126681867       -2.86702655010560       -7.39707658909973
H           58.93439441891973       -0.50918635145032       -7.26543841370693
H           59.92747910668265        0.75156243087045       -6.47569788666434
H           60.73717500974190       -0.65405593871316       -7.22939028583376
C           36.90890551269472        0.01342676949949       -0.01206490440217
C           35.64947542675092       -0.00463773420235       -0.01533665475324
C           38.27645305458136        0.01185976169798       -0.00652284169109
C           39.62575186419267       -0.00318745038141       -0.01433775156129
C           50.90037345925912        0.01299974625639       -0.01058331129787
C           49.63588512907022       -0.00431816835577       -0.02169786160376
C           52.26475734772377        0.01311885455234       -0.00878301643562
C           53.59967650184930       -0.00361582792376       -0.01470925111326
Cu          44.53994175423307        0.00139484279158       -0.05280750416009
C           41.11210858223833        0.00280298220446        0.00851332652654
C           41.81732058602868       -0.05155447329252        1.20060508147728
C           41.18710035664397       -0.16805787051378        2.50316045294479
C           42.14252929656608       -0.14792515372764        3.43723474110355
C           43.42622882840944       -0.01872264614821        2.76178830678876
N           43.21736482469092        0.04686393553343        1.36561596626910