      -----------------------------------------------------------      
     |                   =====================                   |     
     |                           x T B                           |     
     |                   =====================                   |     
     |                         S. Grimme                         |     
     |          Mulliken Center for Theoretical Chemistry        |     
     |                    University of Bonn                     |     
      -----------------------------------------------------------      

   * xtb version 6.5.1 (b24c23e) compiled by 'conda@728c89f4b128' on 2022-07-12

   xtb is free software: you can redistribute it and/or modify it under
   the terms of the GNU Lesser General Public License as published by
   the Free Software Foundation, either version 3 of the License, or
   (at your option) any later version.
   
   xtb is distributed in the hope that it will be useful,
   but WITHOUT ANY WARRANTY; without even the implied warranty of
   MERCHANTABILITY or FITNESS FOR A PARTICULAR PURPOSE.  See the
   GNU Lesser General Public License for more details.
   
   Cite this work as:
   * C. Bannwarth, E. Caldeweyher, S. Ehlert, A. Hansen, P. Pracht,
     J. Seibert, S. Spicher, S. Grimme, WIREs Comput. Mol. Sci., 2020, 11,
     e01493. DOI: 10.1002/wcms.1493
   
   for GFN2-xTB:
   * C. Bannwarth, S. Ehlert and S. Grimme., J. Chem. Theory Comput., 2019,
     15, 1652-1671. DOI: 10.1021/acs.jctc.8b01176
   for GFN1-xTB:
   * S. Grimme, C. Bannwarth, P. Shushkov, J. Chem. Theory Comput., 2017,
     13, 1989-2009. DOI: 10.1021/acs.jctc.7b00118
   for GFN0-xTB:
   * P. Pracht, E. Caldeweyher, S. Ehlert, S. Grimme, ChemRxiv, 2019, preprint.
     DOI: 10.26434/chemrxiv.8326202.v1
   for GFN-FF:
   * S. Spicher and S. Grimme, Angew. Chem. Int. Ed., 2020, 59, 15665-15673.
     DOI: 10.1002/anie.202004239
   
   for ALPB and GBSA implicit solvation:
   * S. Ehlert, M. Stahn, S. Spicher, S. Grimme, J. Chem. Theory Comput.,
     2021, 17, 4250-4261. DOI: 10.1021/acs.jctc.1c00471
   
   for DFT-D4:
   * E. Caldeweyher, C. Bannwarth and S. Grimme, J. Chem. Phys., 2017,
     147, 034112. DOI: 10.1063/1.4993215
   * E. Caldeweyher, S. Ehlert, A. Hansen, H. Neugebauer, S. Spicher,
     C. Bannwarth and S. Grimme, J. Chem. Phys., 2019, 150, 154122.
     DOI: 10.1063/1.5090222
   * E. Caldeweyher, J.-M. Mewes, S. Ehlert and S. Grimme, Phys. Chem. Chem. Phys.
     2020, 22, 8499-8512. DOI: 10.1039/D0CP00502A
   
   for sTDA-xTB:
   * S. Grimme and C. Bannwarth, J. Chem. Phys., 2016, 145, 054103.
     DOI: 10.1063/1.4959605
   
   in the mass-spec context:
   * V. Asgeirsson, C. Bauer and S. Grimme, Chem. Sci., 2017, 8, 4879.
     DOI: 10.1039/c7sc00601b
   * J. Koopman and S. Grimme, ACS Omega 2019, 4, 12, 15120-15133.
     DOI: 10.1021/acsomega.9b02011
   
   for metadynamics refer to:
   * S. Grimme, J. Chem. Theory Comput., 2019, 155, 2847-2862
     DOI: 10.1021/acs.jctc.9b00143
   
   for SPH calculations refer to:
   * S. Spicher and S. Grimme, J. Chem. Theory Comput., 2021, 17, 1701-1714
     DOI: 10.1021/acs.jctc.0c01306
   
   with help from (in alphabetical order)
   P. Atkinson, C. Bannwarth, F. Bohle, G. Brandenburg, E. Caldeweyher
   M. Checinski, S. Dohm, S. Ehlert, S. Ehrlich, I. Gerasimov, C. Hölzer
   A. Katbashev, J. Koopman, C. Lavigne, S. Lehtola, F. März, M. Müller,
   F. Musil, H. Neugebauer, J. Pisarek, C. Plett, P. Pracht, F. Pultar,
   J. Seibert, P. Shushkov, S. Spicher, M. Stahn, M. Steiner, T. Strunk,
   J. Stückrath, T. Rose, and J. Unsleber
   
 * started run on 2022/07/29 at 19:43:02.651     

           -------------------------------------------------
          |                Calculation Setup                |
           -------------------------------------------------

          program call               : xtb xtbopt.xyz --gfn 1 --vipea
          hostname                   : cx3-5-14.cx3.hpc.ic.ac.uk
          coordinate file            : xtbopt.xyz
          omp threads                :                     1

   ID    Z sym.   atoms
    1    6 C      1-5, 7-10, 12, 14, 16-19, 21-26, 28-31, 33, 35, 37-41,
                  64-68, 70-73, 75, 77, 79-82, 84-89, 91-94, 96, 98, 100-104,
                  127-167, 169-172, 174, 176, 178-181, 183-188, 190-193, 195,
                  197, 199-203, 225-229, 231-234, 236, 238, 240-243, 245-250,
                  252-255, 257, 259, 261-265, 287-291, 293-296, 298, 300,
                  302-305, 307-312, 314-317, 319, 321, 323-327, 349-353,
                  355-358, 360, 362, 364-367, 369-374, 376-379, 381, 383,
                  385-389, 411-415, 417-420, 422, 424, 426-429, 431-436,
                  438-441, 443, 445, 447-451
    2    7 N      6, 20, 27, 42, 69, 83, 90, 105, 168, 182, 189, 204, 230,
                  244, 251, 266, 292, 306, 313, 328, 354, 368, 375, 390, 416,
                  430, 437, 452
    3    8 O      11, 13, 15, 32, 34, 36, 74, 76, 78, 95, 97, 99, 173, 175,
                  177, 194, 196, 198, 235, 237, 239, 256, 258, 260, 297, 299,
                  301, 318, 320, 322, 359, 361, 363, 380, 382, 384, 421, 423,
                  425, 442, 444, 446
    4    1 H      43-63, 106-126, 205-224, 267-286, 329-348, 391-410, 453-472

           -------------------------------------------------
          |                 I P E A - x T B                 |
           -------------------------------------------------

        Reference                      10.1039/c7sc00601b
      * Hamiltonian:
        H0-scaling (s, p, d)           2.150000    2.300000    2.000000
        zeta-weighting                 0.000000
      * Dispersion:
        s8                             2.400000
        a1                             0.630000
        a2                             5.000000
        s9                             0.000000
      * Repulsion:
        kExp                           1.500000
        rExp                           1.000000
      * Coulomb:
        alpha                          1.000000
        third order                    atomic
        anisotropic                    false
      * Halogen bond correction:
        rad-scale                      1.300000
        damping                        0.440000


          ...................................................
          :                      SETUP                      :
          :.................................................:
          :  # basis functions                1934          :
          :  # atomic orbitals                1934          :
          :  # shells                         1274          :
          :  # electrons                      1574          :
          :  # halogen bonds                     0          :
          :  max. iterations                   250          :
          :  Hamiltonian                  GFN1-xTB          :
          :  restarted?                      false          :
          :  GBSA solvation                  false          :
          :  PC potential                    false          :
          :  electronic temp.          300.0000000     K    :
          :  accuracy                    1.0000000          :
          :  -> integral cutoff          0.2500000E+02      :
          :  -> integral neglect         0.1000000E-07      :
          :  -> SCF convergence          0.1000000E-05 Eh   :
          :  -> wf. convergence          0.2000000E-04 e    :
          :  Broyden damping             0.4000000          :
          ...................................................

 iter      E             dE          RMSdq      gap      omega  full diag
   1  -1022.9948566 -0.102299E+04  0.101E+01    0.17       0.0  T
   2  -1025.8629539 -0.286810E+01  0.619E+00    1.08       1.0  T
   3  -1014.7514196  0.111115E+02  0.441E+00    0.23       1.0  T
   4  -1027.8132568 -0.130618E+02  0.134E+00    1.12       1.0  T
   5  -1029.7767672 -0.196351E+01  0.256E-01    0.89       1.0  T
   6  -1029.8405900 -0.638228E-01  0.107E-01    0.91       1.0  T
   7  -1029.8485871 -0.799707E-02  0.564E-02    0.90       1.0  T
   8  -1029.8510532 -0.246608E-02  0.301E-02    0.89       1.0  T
   9  -1029.8513826 -0.329468E-03  0.210E-02    0.90       1.0  T
  10  -1029.8516916 -0.308960E-03  0.587E-03    0.90       1.0  T
  11  -1029.8517049 -0.132668E-04  0.302E-03    0.90       1.5  T
  12  -1029.8517119 -0.700420E-05  0.117E-03    0.90       3.9  T
  13  -1029.8517131 -0.121201E-05  0.481E-04    0.90       9.6  T
  14  -1029.8517132 -0.172207E-06  0.190E-04    0.90      24.2  T
  15  -1029.8517133 -0.169459E-07  0.112E-04    0.90      40.9  T

   *** convergence criteria satisfied after 15 iterations ***

         #    Occupation            Energy/Eh            Energy/eV
      -------------------------------------------------------------
         1        2.0000           -1.0466507             -28.4808
       ...           ...                  ...                  ...
       781        2.0000           -0.3790792             -10.3153
       782        2.0000           -0.3761603             -10.2358
       783        2.0000           -0.3730240             -10.1505
       784        2.0000           -0.3703847             -10.0787
       785        2.0000           -0.3675581             -10.0018
       786        2.0000           -0.3640341              -9.9059
       787        2.0000           -0.3612798              -9.8309 (HOMO)
       788                         -0.3283355              -8.9345 (LUMO)
       789                         -0.3241396              -8.8203
       790                         -0.3190576              -8.6820
       791                         -0.3141532              -8.5485
       792                         -0.3104619              -8.4481
       ...                                ...                  ...
      1934                        554.3271821           15084.0104
      -------------------------------------------------------------
                  HL-Gap            0.0329443 Eh            0.8965 eV
             Fermi-level           -0.3447873 Eh           -9.3821 eV

 SCC (total)                   0 d,  0 h,  0 min, 33.758 sec
 SCC setup                      ...        0 min,  0.025 sec (  0.073%)
 Dispersion                     ...        0 min,  0.029 sec (  0.087%)
 classical contributions        ...        0 min,  0.007 sec (  0.020%)
 integral evaluation            ...        0 min,  1.647 sec (  4.879%)
 iterations                     ...        0 min, 28.759 sec ( 85.189%)
 molecular gradient             ...        0 min,  2.866 sec (  8.490%)
 printout                       ...        0 min,  0.425 sec (  1.260%)

         :::::::::::::::::::::::::::::::::::::::::::::::::::::
         ::                     SUMMARY                     ::
         :::::::::::::::::::::::::::::::::::::::::::::::::::::
         :: total energy           -1011.550096594265 Eh    ::
         :: gradient norm              0.137300440491 Eh/a0 ::
         :: HOMO-LUMO gap              0.896460241155 eV    ::
         ::.................................................::
         :: SCC energy             -1029.851713264230 Eh    ::
         :: -> electrostatic           1.030333550780 Eh    ::
         :: repulsion energy          18.701732066908 Eh    ::
         :: dispersion energy         -0.400115396943 Eh    ::
         :: halogen bond corr.         0.000000000000 Eh    ::
         :: add. restraining           0.000000000000 Eh    ::
         :: total charge               0.000000000014 e     ::
         :::::::::::::::::::::::::::::::::::::::::::::::::::::

           ------------------------------------------------- 
          |        vertical delta SCC IP calculation        |
           ------------------------------------------------- 
   1  -1029.4713586 -0.102947E+04  0.449E-02    0.90       0.0  T
   2  -1029.4652328  0.612583E-02  0.610E-02    0.82       1.0  T
   3  -1029.4739620 -0.872923E-02  0.280E-02    0.88       1.0  T
   4  -1029.4734823  0.479688E-03  0.270E-02    0.88       1.0  T
   5  -1029.4750365 -0.155413E-02  0.171E-02    0.88       1.0  T
   6  -1029.4757220 -0.685510E-03  0.773E-03    0.88       1.0  T
   7  -1029.4757856 -0.636545E-04  0.620E-03    0.88       1.0  T
   8  -1029.4758608 -0.752107E-04  0.270E-03    0.88       1.7  T
   9  -1029.4758721 -0.112257E-04  0.735E-04    0.88       6.3  T
  10  -1029.4758724 -0.331760E-06  0.429E-04    0.88      10.7  T
  11  -1029.4758726 -0.211921E-06  0.245E-04    0.88      18.8  T
  12  -1029.4758726 -0.453649E-07  0.115E-04    0.88      39.9  T
  13  -1029.4758727 -0.948512E-08  0.594E-05    0.88      77.5  T
     SCC iter.                  ...        0 min, 25.104 sec
     gradient                   ...        0 min,  3.024 sec
------------------------------------------------------------------------
empirical IP shift (eV):    4.8455
delta SCC IP (eV):    5.3816
------------------------------------------------------------------------
           ------------------------------------------------- 
          |        vertical delta SCC EA calculation        |
           ------------------------------------------------- 
   1  -1030.1501383 -0.103015E+04  0.794E-02    0.12       0.0  T
   2  -1030.1540568 -0.391857E-02  0.730E-02    0.03       1.0  T
   3  -1030.1610288 -0.697194E-02  0.417E-02    0.09       1.0  T
   4  -1030.1607472  0.281563E-03  0.354E-02    0.07       1.0  T
   5  -1030.1585902  0.215702E-02  0.350E-02    0.08       1.0  T
   6  -1030.1620426 -0.345238E-02  0.205E-02    0.07       1.0  T
   7  -1030.1633637 -0.132112E-02  0.807E-03    0.06       1.0  T
   8  -1030.1634165 -0.528028E-04  0.370E-03    0.06       1.2  T
   9  -1030.1634291 -0.126241E-04  0.198E-03    0.06       2.3  T
  10  -1030.1634326 -0.346643E-05  0.591E-04    0.06       7.8  T
  11  -1030.1634328 -0.247031E-06  0.356E-04    0.06      12.9  T
  12  -1030.1634329 -0.907064E-07  0.168E-04    0.06      27.4  T
  13  -1030.1634329 -0.192654E-07  0.747E-05    0.06      61.6  T
     SCC iter.                  ...        0 min, 24.630 sec
     gradient                   ...        0 min,  2.799 sec
------------------------------------------------------------------------
empirical EA shift (eV):    4.8455
delta SCC EA (eV):    3.6368
------------------------------------------------------------------------
           -------------------------------------------------
          |                Property Printout                |
           -------------------------------------------------

    * Orbital Energies and Occupations

         #    Occupation            Energy/Eh            Energy/eV
      -------------------------------------------------------------
         1        2.0000           -1.0246861             -27.8831
       ...           ...                  ...                  ...
       776        2.0000           -0.3613103              -9.8318
       777        2.0000           -0.3611836              -9.8283
       778        2.0000           -0.3595368              -9.7835
       779        2.0000           -0.3591909              -9.7741
       780        2.0000           -0.3588721              -9.7654
       781        2.0000           -0.3495095              -9.5106
       782        2.0000           -0.3489786              -9.4962
       783        2.0000           -0.3460264              -9.4159
       784        2.0000           -0.3426001              -9.3226
       785        2.0000           -0.3380591              -9.1991
       786        2.0000           -0.3330811              -9.0636
       787        2.0000           -0.3286834              -8.9439
       788        0.7657           -0.2954809              -8.0404 (HOMO)
       789        0.2278           -0.2931957              -7.9783 (LUMO)
       790        0.0063           -0.2895460              -7.8789
       791        0.0002           -0.2864095              -7.7936
       792        0.0000           -0.2832739              -7.7083
       793        0.0000           -0.2818776              -7.6703
       794        0.0000           -0.2815597              -7.6616
       795                         -0.2784938              -7.5782
       796                         -0.2760820              -7.5126
       797                         -0.2757193              -7.5027
       798                         -0.2747467              -7.4762
       799                         -0.2738139              -7.4509
       ...                                ...                  ...
      1934                        554.3596232           15084.8932
      -------------------------------------------------------------
                  HL-Gap            0.0022851 Eh            0.0622 eV
             Fermi-level           -0.3032376 Eh           -8.2515 eV

  Mulliken/CM5 charges         n(s)   n(p)   n(d)
     1C    -0.02174 -0.06257   1.089  2.933  0.000
     2C     0.06220  0.12260   1.105  2.833  0.000
     3C    -0.03439 -0.07971   1.081  2.953  0.000
     4C    -0.03206 -0.07703   1.076  2.956  0.000
     5C     0.06314  0.12707   1.102  2.835  0.000
     6N    -0.15909 -0.51202   1.312  3.847  0.000
     7C     0.00993  0.01572   1.091  2.899  0.000
     8C    -0.00384 -0.01187   1.076  2.928  0.000
     9C    -0.04681 -0.09624   1.050  2.996  0.000
    10C     0.07367  0.08874   1.104  2.822  0.000
    11O    -0.30131 -0.50486   1.624  4.678  0.000
    12C     0.06809  0.08789   1.093  2.839  0.000
    13O    -0.30035 -0.50025   1.623  4.678  0.000
    14C     0.08223  0.09933   1.115  2.803  0.000
    15O    -0.29278 -0.48799   1.629  4.664  0.000
    16C    -0.04113 -0.08924   1.060  2.981  0.000
    17C     0.05881  0.12685   1.118  2.823  0.000
    18C    -0.03852 -0.08450   1.085  2.954  0.000
    19C    -0.03854 -0.08397   1.091  2.948  0.000
    20N    -0.28523 -0.47187   1.293  3.992  0.000
    21C     0.06418  0.13499   1.130  2.806  0.000
    22C     0.01742  0.02461   1.085  2.898  0.000
    23C     0.06681  0.13173   1.110  2.824  0.000
    24C    -0.03276 -0.07720   1.080  2.953  0.000
    25C    -0.03191 -0.07689   1.075  2.957  0.000
    26C     0.06229  0.12557   1.100  2.838  0.000
    27N    -0.15699 -0.50913   1.314  3.843  0.000
    28C     0.00946  0.01530   1.091  2.899  0.000
    29C    -0.00382 -0.01184   1.076  2.928  0.000
    30C    -0.04062 -0.08872   1.060  2.981  0.000
    31C     0.08253  0.09964   1.115  2.803  0.000
    32O    -0.29221 -0.48742   1.629  4.663  0.000
    33C     0.06809  0.08788   1.093  2.839  0.000
    34O    -0.30027 -0.50016   1.623  4.678  0.000
    35C     0.07333  0.08838   1.104  2.822  0.000
    36O    -0.30178 -0.50534   1.624  4.678  0.000
    37C    -0.04727 -0.09673   1.050  2.997  0.000
    38C     0.06015  0.12954   1.121  2.819  0.000
    39C    -0.03871 -0.08470   1.086  2.952  0.000
    40C    -0.04016 -0.08654   1.092  2.948  0.000
    41C     0.05874  0.12442   1.125  2.816  0.000
    42N    -0.28749 -0.47453   1.293  3.994  0.000
    43H     0.02913  0.08816   0.971  0.000  0.000
    44H     0.04004  0.09672   0.960  0.000  0.000
    45H     0.03401  0.09283   0.966  0.000  0.000
    46H     0.16388  0.37222   0.836  0.000  0.000
    47H     0.03251  0.09275   0.967  0.000  0.000
    48H     0.23365  0.40615   0.766  0.000  0.000
    49H     0.23971  0.41907   0.760  0.000  0.000
    50H     0.23496  0.41437   0.765  0.000  0.000
    51H     0.03414  0.09498   0.966  0.000  0.000
    52H     0.02356  0.08233   0.976  0.000  0.000
    53H     0.02517  0.08324   0.975  0.000  0.000
    54H     0.03569  0.09379   0.964  0.000  0.000
    55H     0.03433  0.09319   0.966  0.000  0.000
    56H     0.16264  0.37094   0.837  0.000  0.000
    57H     0.03490  0.09575   0.965  0.000  0.000
    58H     0.23513  0.41455   0.765  0.000  0.000
    59H     0.23943  0.41879   0.761  0.000  0.000
    60H     0.23289  0.40540   0.767  0.000  0.000
    61H     0.03172  0.09198   0.968  0.000  0.000
    62H     0.02315  0.08188   0.977  0.000  0.000
    63H     0.02969  0.08612   0.970  0.000  0.000
    64C    -0.02146 -0.06230   1.089  2.933  0.000
    65C     0.06226  0.12265   1.105  2.833  0.000
    66C    -0.03425 -0.07957   1.081  2.953  0.000
    67C    -0.03197 -0.07694   1.076  2.956  0.000
    68C     0.06329  0.12723   1.102  2.835  0.000
    69N    -0.15899 -0.51191   1.312  3.847  0.000
    70C     0.01000  0.01578   1.091  2.899  0.000
    71C    -0.00382 -0.01187   1.076  2.928  0.000
    72C    -0.04684 -0.09628   1.050  2.997  0.000
    73C     0.07367  0.08873   1.104  2.822  0.000
    74O    -0.30132 -0.50487   1.624  4.678  0.000
    75C     0.06808  0.08786   1.093  2.839  0.000
    76O    -0.30039 -0.50028   1.623  4.678  0.000
    77C     0.08225  0.09935   1.115  2.803  0.000
    78O    -0.29276 -0.48796   1.629  4.664  0.000
    79C    -0.04110 -0.08920   1.060  2.981  0.000
    80C     0.05901  0.12705   1.118  2.823  0.000
    81C    -0.03838 -0.08437   1.085  2.953  0.000
    82C    -0.03831 -0.08374   1.091  2.947  0.000
    83N    -0.28515 -0.47172   1.293  3.992  0.000
    84C     0.06431  0.13511   1.130  2.806  0.000
    85C     0.01779  0.02497   1.085  2.897  0.000
    86C     0.06701  0.13192   1.110  2.823  0.000
    87C    -0.03234 -0.07678   1.080  2.952  0.000
    88C    -0.03155 -0.07653   1.075  2.956  0.000
    89C     0.06258  0.12585   1.100  2.837  0.000
    90N    -0.15693 -0.50904   1.314  3.843  0.000
    91C     0.00971  0.01554   1.092  2.899  0.000
    92C    -0.00386 -0.01188   1.076  2.928  0.000
    93C    -0.04059 -0.08870   1.060  2.981  0.000
    94C     0.08268  0.09979   1.115  2.802  0.000
    95O    -0.29198 -0.48719   1.629  4.663  0.000
    96C     0.06819  0.08799   1.093  2.839  0.000
    97O    -0.30012 -0.50001   1.623  4.678  0.000
    98C     0.07337  0.08842   1.104  2.822  0.000
    99O    -0.30172 -0.50528   1.624  4.678  0.000
   100C    -0.04731 -0.09676   1.050  2.997  0.000
   101C     0.06035  0.12973   1.121  2.818  0.000
   102C    -0.03856 -0.08454   1.086  2.952  0.000
   103C    -0.04005 -0.08642   1.092  2.948  0.000
   104C     0.05882  0.12450   1.125  2.816  0.000
   105N    -0.28727 -0.47431   1.293  3.994  0.000
   106H     0.02932  0.08835   0.971  0.000  0.000
   107H     0.04018  0.09686   0.960  0.000  0.000
   108H     0.03411  0.09293   0.966  0.000  0.000
   109H     0.16399  0.37232   0.836  0.000  0.000
   110H     0.03251  0.09272   0.967  0.000  0.000
   111H     0.23361  0.40611   0.766  0.000  0.000
   112H     0.23968  0.41905   0.760  0.000  0.000
   113H     0.23496  0.41438   0.765  0.000  0.000
   114H     0.03422  0.09504   0.966  0.000  0.000
   115H     0.02376  0.08254   0.976  0.000  0.000
   116H     0.02545  0.08354   0.975  0.000  0.000
   117H     0.03624  0.09434   0.964  0.000  0.000
   118H     0.03486  0.09373   0.965  0.000  0.000
   119H     0.16274  0.37102   0.837  0.000  0.000
   120H     0.03502  0.09585   0.965  0.000  0.000
   121H     0.23533  0.41474   0.765  0.000  0.000
   122H     0.23952  0.41887   0.760  0.000  0.000
   123H     0.23290  0.40541   0.767  0.000  0.000
   124H     0.03175  0.09201   0.968  0.000  0.000
   125H     0.02336  0.08210   0.977  0.000  0.000
   126H     0.02984  0.08626   0.970  0.000  0.000
   127C    -0.01521 -0.01531   1.077  2.938  0.000
   128C    -0.01792 -0.01803   1.075  2.943  0.000
   129C    -0.01960 -0.02037   1.062  2.958  0.000
   130C    -0.01813 -0.01976   1.091  2.927  0.000
   131C    -0.02240 -0.02314   1.060  2.962  0.000
   132C    -0.01565 -0.01724   1.095  2.921  0.000
   133C    -0.01681 -0.01691   1.076  2.941  0.000
   134C    -0.01756 -0.01766   1.076  2.942  0.000
   135C    -0.02093 -0.02167   1.061  2.960  0.000
   136C    -0.01780 -0.01939   1.092  2.926  0.000
   137C    -0.02188 -0.02262   1.061  2.961  0.000
   138C    -0.01715 -0.01874   1.093  2.924  0.000
   139C    -0.01707 -0.01717   1.076  2.941  0.000
   140C    -0.01693 -0.01703   1.076  2.941  0.000
   141C    -0.02121 -0.02195   1.061  2.960  0.000
   142C    -0.01711 -0.01870   1.093  2.924  0.000
   143C    -0.02137 -0.02211   1.061  2.960  0.000
   144C    -0.01740 -0.01899   1.093  2.925  0.000
   145C    -0.01710 -0.01720   1.076  2.941  0.000
   146C    -0.01687 -0.01697   1.076  2.941  0.000
   147C    -0.02118 -0.02192   1.061  2.960  0.000
   148C    -0.01699 -0.01858   1.093  2.924  0.000
   149C    -0.02136 -0.02210   1.061  2.960  0.000
   150C    -0.01749 -0.01908   1.093  2.925  0.000
   151C    -0.01761 -0.01771   1.075  2.942  0.000
   152C    -0.01652 -0.01662   1.076  2.940  0.000
   153C    -0.02160 -0.02234   1.061  2.961  0.000
   154C    -0.01670 -0.01829   1.093  2.923  0.000
   155C    -0.02097 -0.02170   1.061  2.960  0.000
   156C    -0.01805 -0.01963   1.092  2.926  0.000
   157C    -0.01724 -0.01735   1.075  2.942  0.000
   158C    -0.01438 -0.01449   1.078  2.937  0.000
   159C    -0.02157 -0.02231   1.060  2.961  0.000
   160C    -0.01494 -0.01652   1.095  2.920  0.000
   161C    -0.01898 -0.01975   1.062  2.957  0.000
   162C    -0.01774 -0.01938   1.091  2.926  0.000
   163C     0.01370  0.02093   1.082  2.905  0.000
   164C     0.06556  0.13044   1.109  2.825  0.000
   165C    -0.03603 -0.08046   1.078  2.958  0.000
   166C    -0.03440 -0.07934   1.075  2.959  0.000
   167C     0.05952  0.12289   1.098  2.843  0.000
   168N    -0.15710 -0.50942   1.314  3.843  0.000
   169C     0.01126  0.01694   1.093  2.896  0.000
   170C    -0.00497 -0.01316   1.074  2.931  0.000
   171C    -0.04589 -0.09527   1.050  2.996  0.000
   172C     0.08255  0.09986   1.113  2.805  0.000
   173O    -0.29252 -0.48946   1.624  4.668  0.000
   174C     0.07800  0.10024   1.102  2.820  0.000
   175O    -0.29282 -0.48541   1.626  4.667  0.000
   176C     0.07254  0.08758   1.105  2.823  0.000
   177O    -0.30085 -0.50583   1.622  4.679  0.000
   178C    -0.04759 -0.09703   1.048  2.999  0.000
   179C     0.05701  0.12493   1.117  2.826  0.000
   180C    -0.03905 -0.08506   1.085  2.954  0.000
   181C    -0.03974 -0.08519   1.090  2.950  0.000
   182N    -0.28530 -0.47148   1.293  3.992  0.000
   183C     0.06378  0.13467   1.130  2.806  0.000
   184C     0.01586  0.02309   1.083  2.901  0.000
   185C     0.06619  0.13114   1.110  2.824  0.000
   186C    -0.03455 -0.07899   1.079  2.956  0.000
   187C    -0.03287 -0.07783   1.075  2.958  0.000
   188C     0.06071  0.12404   1.098  2.842  0.000
   189N    -0.15629 -0.50866   1.314  3.842  0.000
   190C     0.01171  0.01740   1.093  2.896  0.000
   191C    -0.00323 -0.01133   1.076  2.927  0.000
   192C    -0.04049 -0.08860   1.060  2.980  0.000
   193C     0.08237  0.09948   1.115  2.803  0.000
   194O    -0.29252 -0.48774   1.629  4.663  0.000
   195C     0.06789  0.08770   1.093  2.840  0.000
   196O    -0.30068 -0.50057   1.623  4.678  0.000
   197C     0.07343  0.08851   1.104  2.822  0.000
   198O    -0.30185 -0.50542   1.624  4.678  0.000
   199C    -0.04664 -0.09612   1.050  2.996  0.000
   200C     0.05750  0.12558   1.117  2.826  0.000
   201C    -0.03916 -0.08516   1.085  2.954  0.000
   202C    -0.04035 -0.08579   1.090  2.950  0.000
   203C     0.06329  0.13402   1.130  2.807  0.000
   204N    -0.28599 -0.47212   1.293  3.993  0.000
   205H     0.03317  0.09126   0.967  0.000  0.000
   206H     0.03195  0.09086   0.968  0.000  0.000
   207H     0.16248  0.37042   0.838  0.000  0.000
   208H     0.03267  0.09324   0.967  0.000  0.000
   209H     0.23122  0.40393   0.769  0.000  0.000
   210H     0.23628  0.41704   0.764  0.000  0.000
   211H     0.23345  0.40609   0.767  0.000  0.000
   212H     0.03234  0.09256   0.968  0.000  0.000
   213H     0.02342  0.08227   0.977  0.000  0.000
   214H     0.02413  0.08215   0.976  0.000  0.000
   215H     0.03436  0.09244   0.966  0.000  0.000
   216H     0.03292  0.09186   0.967  0.000  0.000
   217H     0.16237  0.37033   0.838  0.000  0.000
   218H     0.03442  0.09526   0.966  0.000  0.000
   219H     0.23460  0.41399   0.765  0.000  0.000
   220H     0.23902  0.41837   0.761  0.000  0.000
   221H     0.23293  0.40542   0.767  0.000  0.000
   222H     0.03205  0.09228   0.968  0.000  0.000
   223H     0.02193  0.08078   0.978  0.000  0.000
   224H     0.02279  0.08079   0.977  0.000  0.000
   225C     0.01476  0.02198   1.083  2.903  0.000
   226C     0.06563  0.13056   1.110  2.825  0.000
   227C    -0.03577 -0.08020   1.079  2.957  0.000
   228C    -0.03440 -0.07934   1.075  2.959  0.000
   229C     0.05950  0.12284   1.098  2.843  0.000
   230N    -0.15673 -0.50907   1.314  3.842  0.000
   231C     0.01135  0.01703   1.093  2.895  0.000
   232C    -0.00496 -0.01315   1.074  2.931  0.000
   233C    -0.04593 -0.09532   1.050  2.996  0.000
   234C     0.08247  0.09979   1.113  2.805  0.000
   235O    -0.29264 -0.48958   1.624  4.668  0.000
   236C     0.07803  0.10028   1.102  2.820  0.000
   237O    -0.29281 -0.48539   1.626  4.667  0.000
   238C     0.07264  0.08769   1.105  2.823  0.000
   239O    -0.30069 -0.50568   1.622  4.679  0.000
   240C    -0.04746 -0.09689   1.049  2.999  0.000
   241C     0.05702  0.12494   1.117  2.826  0.000
   242C    -0.03899 -0.08501   1.085  2.954  0.000
   243C    -0.03986 -0.08530   1.090  2.950  0.000
   244N    -0.28543 -0.47161   1.293  3.992  0.000
   245C     0.06375  0.13464   1.130  2.807  0.000
   246C     0.01543  0.02266   1.083  2.902  0.000
   247C     0.06620  0.13116   1.110  2.824  0.000
   248C    -0.03475 -0.07919   1.079  2.956  0.000
   249C    -0.03282 -0.07778   1.075  2.958  0.000
   250C     0.06059  0.12394   1.097  2.842  0.000
   251N    -0.15631 -0.50872   1.314  3.842  0.000
   252C     0.01214  0.01784   1.093  2.895  0.000
   253C    -0.00315 -0.01125   1.076  2.927  0.000
   254C    -0.04043 -0.08854   1.060  2.980  0.000
   255C     0.08242  0.09954   1.115  2.803  0.000
   256O    -0.29250 -0.48773   1.629  4.663  0.000
   257C     0.06795  0.08776   1.093  2.839  0.000
   258O    -0.30065 -0.50054   1.623  4.678  0.000
   259C     0.07349  0.08857   1.104  2.822  0.000
   260O    -0.30181 -0.50537   1.624  4.678  0.000
   261C    -0.04655 -0.09601   1.050  2.996  0.000
   262C     0.05731  0.12527   1.116  2.826  0.000
   263C    -0.03911 -0.08511   1.085  2.954  0.000
   264C    -0.04011 -0.08555   1.090  2.950  0.000
   265C     0.06355  0.13440   1.130  2.807  0.000
   266N    -0.28545 -0.47161   1.293  3.992  0.000
   267H     0.03363  0.09171   0.966  0.000  0.000
   268H     0.03201  0.09090   0.968  0.000  0.000
   269H     0.16246  0.37040   0.838  0.000  0.000
   270H     0.03246  0.09304   0.968  0.000  0.000
   271H     0.23105  0.40376   0.769  0.000  0.000
   272H     0.23632  0.41707   0.764  0.000  0.000
   273H     0.23368  0.40630   0.766  0.000  0.000
   274H     0.03261  0.09284   0.967  0.000  0.000
   275H     0.02333  0.08220   0.977  0.000  0.000
   276H     0.02388  0.08191   0.976  0.000  0.000
   277H     0.03407  0.09215   0.966  0.000  0.000
   278H     0.03280  0.09175   0.967  0.000  0.000
   279H     0.16243  0.37040   0.838  0.000  0.000
   280H     0.03444  0.09528   0.966  0.000  0.000
   281H     0.23456  0.41395   0.765  0.000  0.000
   282H     0.23903  0.41837   0.761  0.000  0.000
   283H     0.23298  0.40548   0.767  0.000  0.000
   284H     0.03213  0.09234   0.968  0.000  0.000
   285H     0.02209  0.08091   0.978  0.000  0.000
   286H     0.02335  0.08138   0.977  0.000  0.000
   287C     0.01526  0.02249   1.083  2.902  0.000
   288C     0.06575  0.13069   1.110  2.825  0.000
   289C    -0.03543 -0.07987   1.079  2.957  0.000
   290C    -0.03423 -0.07917   1.075  2.959  0.000
   291C     0.05971  0.12304   1.098  2.842  0.000
   292N    -0.15662 -0.50899   1.314  3.842  0.000
   293C     0.01138  0.01706   1.093  2.895  0.000
   294C    -0.00499 -0.01317   1.074  2.931  0.000
   295C    -0.04596 -0.09534   1.050  2.996  0.000
   296C     0.08247  0.09979   1.113  2.805  0.000
   297O    -0.29264 -0.48958   1.624  4.668  0.000
   298C     0.07807  0.10032   1.102  2.820  0.000
   299O    -0.29277 -0.48535   1.626  4.667  0.000
   300C     0.07270  0.08776   1.105  2.823  0.000
   301O    -0.30060 -0.50558   1.622  4.679  0.000
   302C    -0.04745 -0.09688   1.049  2.999  0.000
   303C     0.05713  0.12505   1.117  2.826  0.000
   304C    -0.03896 -0.08497   1.085  2.954  0.000
   305C    -0.03979 -0.08524   1.090  2.950  0.000
   306N    -0.28538 -0.47155   1.293  3.992  0.000
   307C     0.06377  0.13466   1.130  2.807  0.000
   308C     0.01555  0.02277   1.083  2.901  0.000
   309C     0.06622  0.13117   1.109  2.824  0.000
   310C    -0.03467 -0.07911   1.079  2.956  0.000
   311C    -0.03277 -0.07772   1.075  2.958  0.000
   312C     0.06069  0.12404   1.098  2.842  0.000
   313N    -0.15629 -0.50869   1.314  3.842  0.000
   314C     0.01220  0.01790   1.093  2.895  0.000
   315C    -0.00318 -0.01127   1.076  2.927  0.000
   316C    -0.04043 -0.08855   1.060  2.980  0.000
   317C     0.08242  0.09955   1.115  2.803  0.000
   318O    -0.29251 -0.48773   1.629  4.663  0.000
   319C     0.06800  0.08781   1.093  2.839  0.000
   320O    -0.30060 -0.50050   1.622  4.678  0.000
   321C     0.07354  0.08862   1.104  2.822  0.000
   322O    -0.30173 -0.50529   1.624  4.678  0.000
   323C    -0.04653 -0.09600   1.050  2.996  0.000
   324C     0.05747  0.12541   1.116  2.826  0.000
   325C    -0.03898 -0.08498   1.085  2.954  0.000
   326C    -0.03988 -0.08532   1.090  2.950  0.000
   327C     0.06363  0.13451   1.130  2.807  0.000
   328N    -0.28526 -0.47147   1.293  3.992  0.000
   329H     0.03401  0.09209   0.966  0.000  0.000
   330H     0.03227  0.09118   0.968  0.000  0.000
   331H     0.16254  0.37049   0.837  0.000  0.000
   332H     0.03249  0.09305   0.968  0.000  0.000
   333H     0.23105  0.40376   0.769  0.000  0.000
   334H     0.23640  0.41715   0.764  0.000  0.000
   335H     0.23379  0.40641   0.766  0.000  0.000
   336H     0.03270  0.09294   0.967  0.000  0.000
   337H     0.02337  0.08221   0.977  0.000  0.000
   338H     0.02389  0.08192   0.976  0.000  0.000
   339H     0.03408  0.09217   0.966  0.000  0.000
   340H     0.03285  0.09178   0.967  0.000  0.000
   341H     0.16251  0.37048   0.837  0.000  0.000
   342H     0.03446  0.09530   0.966  0.000  0.000
   343H     0.23459  0.41398   0.765  0.000  0.000
   344H     0.23910  0.41844   0.761  0.000  0.000
   345H     0.23306  0.40556   0.767  0.000  0.000
   346H     0.03219  0.09241   0.968  0.000  0.000
   347H     0.02232  0.08115   0.978  0.000  0.000
   348H     0.02369  0.08172   0.976  0.000  0.000
   349C     0.01519  0.02242   1.083  2.902  0.000
   350C     0.06572  0.13067   1.110  2.825  0.000
   351C    -0.03548 -0.07992   1.079  2.957  0.000
   352C    -0.03428 -0.07922   1.075  2.959  0.000
   353C     0.05963  0.12297   1.098  2.843  0.000
   354N    -0.15662 -0.50900   1.314  3.842  0.000
   355C     0.01133  0.01701   1.093  2.895  0.000
   356C    -0.00497 -0.01316   1.074  2.931  0.000
   357C    -0.04598 -0.09536   1.050  2.996  0.000
   358C     0.08243  0.09975   1.113  2.805  0.000
   359O    -0.29271 -0.48965   1.624  4.668  0.000
   360C     0.07803  0.10028   1.102  2.820  0.000
   361O    -0.29282 -0.48540   1.626  4.667  0.000
   362C     0.07271  0.08775   1.105  2.823  0.000
   363O    -0.30060 -0.50558   1.622  4.679  0.000
   364C    -0.04743 -0.09687   1.049  2.999  0.000
   365C     0.05701  0.12493   1.117  2.826  0.000
   366C    -0.03906 -0.08507   1.085  2.954  0.000
   367C    -0.04000 -0.08544   1.090  2.950  0.000
   368N    -0.28555 -0.47168   1.293  3.992  0.000
   369C     0.06368  0.13454   1.130  2.807  0.000
   370C     0.01508  0.02230   1.083  2.902  0.000
   371C     0.06613  0.13106   1.110  2.824  0.000
   372C    -0.03495 -0.07939   1.079  2.956  0.000
   373C    -0.03292 -0.07788   1.075  2.958  0.000
   374C     0.06053  0.12387   1.097  2.842  0.000
   375N    -0.15639 -0.50876   1.314  3.842  0.000
   376C     0.01218  0.01787   1.093  2.895  0.000
   377C    -0.00316 -0.01126   1.076  2.927  0.000
   378C    -0.04044 -0.08856   1.060  2.980  0.000
   379C     0.08237  0.09950   1.115  2.803  0.000
   380O    -0.29260 -0.48782   1.629  4.664  0.000
   381C     0.06799  0.08780   1.093  2.839  0.000
   382O    -0.30063 -0.50052   1.623  4.678  0.000
   383C     0.07355  0.08863   1.104  2.822  0.000
   384O    -0.30172 -0.50528   1.624  4.678  0.000
   385C    -0.04649 -0.09596   1.050  2.996  0.000
   386C     0.05739  0.12534   1.116  2.826  0.000
   387C    -0.03903 -0.08504   1.085  2.954  0.000
   388C    -0.03991 -0.08536   1.090  2.950  0.000
   389C     0.06362  0.13450   1.130  2.807  0.000
   390N    -0.28529 -0.47150   1.293  3.992  0.000
   391H     0.03401  0.09209   0.966  0.000  0.000
   392H     0.03225  0.09117   0.968  0.000  0.000
   393H     0.16247  0.37042   0.838  0.000  0.000
   394H     0.03242  0.09298   0.968  0.000  0.000
   395H     0.23097  0.40369   0.769  0.000  0.000
   396H     0.23639  0.41714   0.764  0.000  0.000
   397H     0.23380  0.40642   0.766  0.000  0.000
   398H     0.03270  0.09295   0.967  0.000  0.000
   399H     0.02319  0.08202   0.977  0.000  0.000
   400H     0.02359  0.08161   0.976  0.000  0.000
   401H     0.03374  0.09183   0.966  0.000  0.000
   402H     0.03262  0.09155   0.967  0.000  0.000
   403H     0.16244  0.37040   0.838  0.000  0.000
   404H     0.03439  0.09523   0.966  0.000  0.000
   405H     0.23452  0.41392   0.765  0.000  0.000
   406H     0.23910  0.41845   0.761  0.000  0.000
   407H     0.23307  0.40557   0.767  0.000  0.000
   408H     0.03216  0.09241   0.968  0.000  0.000
   409H     0.02230  0.08115   0.978  0.000  0.000
   410H     0.02371  0.08173   0.976  0.000  0.000
   411C     0.01580  0.02304   1.084  2.901  0.000
   412C     0.06577  0.13072   1.110  2.825  0.000
   413C    -0.03520 -0.07964   1.079  2.956  0.000
   414C    -0.03420 -0.07916   1.075  2.959  0.000
   415C     0.05990  0.12321   1.098  2.842  0.000
   416N    -0.15652 -0.50888   1.314  3.842  0.000
   417C     0.01103  0.01672   1.093  2.896  0.000
   418C    -0.00507 -0.01325   1.073  2.932  0.000
   419C    -0.04596 -0.09534   1.050  2.996  0.000
   420C     0.08249  0.09981   1.113  2.805  0.000
   421O    -0.29261 -0.48955   1.624  4.668  0.000
   422C     0.07816  0.10041   1.102  2.820  0.000
   423O    -0.29266 -0.48525   1.626  4.666  0.000
   424C     0.07273  0.08778   1.105  2.823  0.000
   425O    -0.30052 -0.50551   1.622  4.679  0.000
   426C    -0.04743 -0.09688   1.049  2.999  0.000
   427C     0.05742  0.12547   1.117  2.825  0.000
   428C    -0.03876 -0.08479   1.086  2.953  0.000
   429C    -0.03989 -0.08534   1.090  2.950  0.000
   430N    -0.28587 -0.47203   1.293  3.993  0.000
   431C     0.06366  0.13437   1.130  2.807  0.000
   432C     0.01440  0.02164   1.082  2.904  0.000
   433C     0.06608  0.13096   1.110  2.824  0.000
   434C    -0.03512 -0.07956   1.079  2.957  0.000
   435C    -0.03283 -0.07779   1.075  2.958  0.000
   436C     0.06066  0.12405   1.098  2.842  0.000
   437N    -0.15670 -0.50908   1.314  3.843  0.000
   438C     0.01206  0.01775   1.093  2.895  0.000
   439C    -0.00320 -0.01129   1.076  2.927  0.000
   440C    -0.04055 -0.08867   1.060  2.981  0.000
   441C     0.08226  0.09937   1.115  2.803  0.000
   442O    -0.29282 -0.48803   1.629  4.664  0.000
   443C     0.06800  0.08780   1.093  2.839  0.000
   444O    -0.30064 -0.50054   1.623  4.678  0.000
   445C     0.07363  0.08870   1.104  2.822  0.000
   446O    -0.30159 -0.50515   1.624  4.678  0.000
   447C    -0.04642 -0.09589   1.050  2.996  0.000
   448C     0.05749  0.12544   1.117  2.826  0.000
   449C    -0.03901 -0.08502   1.085  2.954  0.000
   450C    -0.03974 -0.08518   1.090  2.950  0.000
   451C     0.06368  0.13455   1.130  2.807  0.000
   452N    -0.28505 -0.47126   1.293  3.992  0.000
   453H     0.03437  0.09244   0.966  0.000  0.000
   454H     0.03243  0.09135   0.968  0.000  0.000
   455H     0.16246  0.37043   0.838  0.000  0.000
   456H     0.03241  0.09302   0.968  0.000  0.000
   457H     0.23102  0.40373   0.769  0.000  0.000
   458H     0.23652  0.41728   0.763  0.000  0.000
   459H     0.23389  0.40652   0.766  0.000  0.000
   460H     0.03274  0.09299   0.967  0.000  0.000
   461H     0.02347  0.08233   0.977  0.000  0.000
   462H     0.02374  0.08177   0.976  0.000  0.000
   463H     0.03332  0.09139   0.967  0.000  0.000
   464H     0.03258  0.09150   0.967  0.000  0.000
   465H     0.16254  0.37053   0.837  0.000  0.000
   466H     0.03425  0.09509   0.966  0.000  0.000
   467H     0.23449  0.41390   0.766  0.000  0.000
   468H     0.23923  0.41858   0.761  0.000  0.000
   469H     0.23326  0.40575   0.767  0.000  0.000
   470H     0.03234  0.09259   0.968  0.000  0.000
   471H     0.02246  0.08130   0.978  0.000  0.000
   472H     0.02405  0.08205   0.976  0.000  0.000

Wiberg/Mayer (AO) data.
largest (>0.10) Wiberg bond orders for each atom

 ---------------------------------------------------------------------------
     #   Z sym  total        # sym  WBO       # sym  WBO       # sym  WBO
 ---------------------------------------------------------------------------
     1   6 C    3.815 --    41 C    1.385     2 C    1.374    43 H    0.996
     2   6 C    3.925 --     1 C    1.374     3 C    1.239     6 N    1.230
     3   6 C    3.841 --     4 C    1.600     2 C    1.239    44 H    0.992
     4   6 C    3.824 --     3 C    1.600     5 C    1.251    45 H    0.999
     5   6 C    3.900 --     7 C    1.344     4 C    1.251     6 N    1.230
     6   7 N    3.249 --     5 C    1.230     2 C    1.230    46 H    0.961
     7   6 C    3.838 --    17 C    1.368     5 C    1.344     8 C    1.052
     8   6 C    3.889 --    16 C    1.411     9 C    1.404     7 C    1.052
     9   6 C    3.816 --     8 C    1.404    10 C    1.401    47 H    0.992
    10   6 C    3.939 --     9 C    1.401    12 C    1.368    11 O    1.095
    11   8 O    2.113 --    10 C    1.095    48 H    0.962
    12   6 C    3.914 --    10 C    1.368    14 C    1.357    13 O    1.092
    13   8 O    2.105 --    12 C    1.092    49 H    0.960
    14   6 C    3.977 --    16 C    1.393    12 C    1.357    15 O    1.126
    15   8 O    2.160 --    14 C    1.126    50 H    0.963
    16   6 C    3.839 --     8 C    1.411    14 C    1.393    51 H    0.993
    17   6 C    3.926 --     7 C    1.368    20 N    1.356    18 C    1.163
    18   6 C    3.840 --    19 C    1.693    17 C    1.163    52 H    0.999
    19   6 C    3.852 --    18 C    1.693    21 C    1.166    53 H    0.999
    20   7 N    2.568 --    21 C    1.412    17 C    1.356
    21   6 C    3.944 --    20 N    1.412    22 C    1.289    19 C    1.166
    22   6 C    3.851 --    23 C    1.290    21 C    1.289   130 C    1.216
    23   6 C    3.905 --    22 C    1.290    24 C    1.264    27 N    1.250
    24   6 C    3.836 --    25 C    1.587    23 C    1.264    54 H    0.998
    25   6 C    3.818 --    24 C    1.587    26 C    1.258    55 H    0.999
    26   6 C    3.895 --    28 C    1.348    25 C    1.258    27 N    1.221
    27   7 N    3.260 --    23 C    1.250    26 C    1.221    56 H    0.960
    28   6 C    3.825 --    38 C    1.355    26 C    1.348    29 C    1.054
    29   6 C    3.889 --    30 C    1.410    37 C    1.403    28 C    1.054
    30   6 C    3.839 --    29 C    1.410    31 C    1.393    57 H    0.992
    31   6 C    3.978 --    30 C    1.393    33 C    1.357    32 O    1.126
    32   8 O    2.160 --    31 C    1.126    58 H    0.963
    33   6 C    3.913 --    35 C    1.368    31 C    1.357    34 O    1.092
    34   8 O    2.105 --    33 C    1.092    59 H    0.960
    35   6 C    3.939 --    37 C    1.401    33 C    1.368    36 O    1.095
    36   8 O    2.113 --    35 C    1.095    60 H    0.962
    37   6 C    3.815 --    29 C    1.403    35 C    1.401    61 H    0.992
    38   6 C    3.945 --    42 N    1.383    28 C    1.355    39 C    1.155
    39   6 C    3.843 --    40 C    1.706    38 C    1.155    62 H    1.000
    40   6 C    3.863 --    39 C    1.706    41 C    1.148    63 H    0.993
    41   6 C    3.968 --     1 C    1.385    42 N    1.374    40 C    1.148
    42   7 N    2.556 --    38 C    1.383    41 C    1.374
    43   1 H    1.032 --     1 C    0.996
    44   1 H    1.016 --     3 C    0.992
    45   1 H    1.026 --     4 C    0.999
    46   1 H    1.082 --     6 N    0.961
    47   1 H    1.024 --     9 C    0.992
    48   1 H    0.995 --    11 O    0.962
    49   1 H    0.990 --    13 O    0.960
    50   1 H    0.994 --    15 O    0.963
    51   1 H    1.030 --    16 C    0.993
    52   1 H    1.028 --    18 C    0.999
    53   1 H    1.031 --    19 C    0.999
    54   1 H    1.028 --    24 C    0.998
    55   1 H    1.026 --    25 C    0.999
    56   1 H    1.086 --    27 N    0.960
    57   1 H    1.031 --    30 C    0.992
    58   1 H    0.994 --    32 O    0.963
    59   1 H    0.990 --    34 O    0.960
    60   1 H    0.996 --    36 O    0.962
    61   1 H    1.024 --    37 C    0.992
    62   1 H    1.028 --    39 C    1.000
    63   1 H    1.018 --    40 C    0.993
    64   6 C    3.817 --   104 C    1.385    65 C    1.374   106 H    0.996
    65   6 C    3.925 --    64 C    1.374    66 C    1.239    69 N    1.230
    66   6 C    3.841 --    67 C    1.601    65 C    1.239   107 H    0.992
    67   6 C    3.824 --    66 C    1.601    68 C    1.251   108 H    0.999
    68   6 C    3.900 --    70 C    1.344    67 C    1.251    69 N    1.230
    69   7 N    3.250 --    68 C    1.230    65 C    1.230   109 H    0.961
    70   6 C    3.838 --    80 C    1.368    68 C    1.344    71 C    1.052
    71   6 C    3.889 --    79 C    1.411    72 C    1.404    70 C    1.052
    72   6 C    3.816 --    71 C    1.404    73 C    1.401   110 H    0.992
    73   6 C    3.939 --    72 C    1.401    75 C    1.368    74 O    1.095
    74   8 O    2.113 --    73 C    1.095   111 H    0.962
    75   6 C    3.914 --    73 C    1.368    77 C    1.357    76 O    1.092
    76   8 O    2.105 --    75 C    1.092   112 H    0.960
    77   6 C    3.978 --    79 C    1.393    75 C    1.357    78 O    1.126
    78   8 O    2.160 --    77 C    1.126   113 H    0.963
    79   6 C    3.839 --    71 C    1.411    77 C    1.393   114 H    0.992
    80   6 C    3.927 --    70 C    1.368    83 N    1.357    81 C    1.162
    81   6 C    3.840 --    82 C    1.693    80 C    1.162   115 H    0.999
    82   6 C    3.853 --    81 C    1.693    84 C    1.165   116 H    0.999
    83   7 N    2.569 --    84 C    1.412    80 C    1.357
    84   6 C    3.944 --    83 N    1.412    85 C    1.289    82 C    1.165
    85   6 C    3.852 --    86 C    1.291    84 C    1.289   162 C    1.214
    86   6 C    3.905 --    85 C    1.291    87 C    1.264    90 N    1.249
    87   6 C    3.837 --    88 C    1.588    86 C    1.264   117 H    0.998
    88   6 C    3.818 --    87 C    1.588    89 C    1.257   118 H    0.999
    89   6 C    3.896 --    91 C    1.349    88 C    1.257    90 N    1.221
    90   7 N    3.260 --    86 C    1.249    89 C    1.221   119 H    0.960
    91   6 C    3.826 --   101 C    1.355    89 C    1.349    92 C    1.054
    92   6 C    3.889 --    93 C    1.411   100 C    1.403    91 C    1.054
    93   6 C    3.839 --    92 C    1.411    94 C    1.393   120 H    0.992
    94   6 C    3.978 --    93 C    1.393    96 C    1.357    95 O    1.127
    95   8 O    2.161 --    94 C    1.127   121 H    0.963
    96   6 C    3.914 --    98 C    1.368    94 C    1.357    97 O    1.092
    97   8 O    2.104 --    96 C    1.092   122 H    0.960
    98   6 C    3.939 --   100 C    1.401    96 C    1.368    99 O    1.095
    99   8 O    2.113 --    98 C    1.095   123 H    0.962
   100   6 C    3.815 --    92 C    1.403    98 C    1.401   124 H    0.992
   101   6 C    3.946 --   105 N    1.383    91 C    1.355   102 C    1.155
   102   6 C    3.843 --   103 C    1.706   101 C    1.155   125 H    1.000
   103   6 C    3.863 --   102 C    1.706   104 C    1.148   126 H    0.993
   104   6 C    3.968 --    64 C    1.385   105 N    1.374   103 C    1.148
   105   7 N    2.557 --   101 C    1.383   104 C    1.374
   106   1 H    1.032 --    64 C    0.996
   107   1 H    1.016 --    66 C    0.992
   108   1 H    1.026 --    67 C    0.999
   109   1 H    1.082 --    69 N    0.961
   110   1 H    1.024 --    72 C    0.992
   111   1 H    0.995 --    74 O    0.962
   112   1 H    0.990 --    76 O    0.960
   113   1 H    0.994 --    78 O    0.963
   114   1 H    1.030 --    79 C    0.992
   115   1 H    1.028 --    81 C    0.999
   116   1 H    1.031 --    82 C    0.999
   117   1 H    1.028 --    87 C    0.998
   118   1 H    1.026 --    88 C    0.999
   119   1 H    1.086 --    90 N    0.960
   120   1 H    1.031 --    93 C    0.992
   121   1 H    0.994 --    95 O    0.963
   122   1 H    0.990 --    97 O    0.960
   123   1 H    0.996 --    99 O    0.962
   124   1 H    1.023 --   100 C    0.992
   125   1 H    1.028 --   102 C    1.000
   126   1 H    1.018 --   103 C    0.993
   127   6 C    3.835 --   128 C    2.380   131 C    1.353   130 C    0.171
   128   6 C    3.832 --   127 C    2.380   129 C    1.351   132 C    0.171
   129   6 C    3.809 --   130 C    2.478   128 C    1.351
   130   6 C    3.767 --   129 C    2.478    22 C    1.216   127 C    0.171
   131   6 C    3.804 --   132 C    2.473   127 C    1.353
   132   6 C    3.769 --   131 C    2.473   163 C    1.221   128 C    0.171
   133   6 C    3.834 --   134 C    2.367   137 C    1.363   136 C    0.170
   134   6 C    3.834 --   133 C    2.367   135 C    1.362   138 C    0.170
   135   6 C    3.803 --   136 C    2.463   134 C    1.362
   136   6 C    3.767 --   135 C    2.463   184 C    1.230   133 C    0.170
   137   6 C    3.803 --   138 C    2.462   133 C    1.363
   138   6 C    3.767 --   137 C    2.462   225 C    1.230   134 C    0.170
   139   6 C    3.834 --   140 C    2.367   143 C    1.362   142 C    0.170
   140   6 C    3.834 --   139 C    2.367   141 C    1.362   144 C    0.170
   141   6 C    3.803 --   142 C    2.463   140 C    1.362
   142   6 C    3.768 --   141 C    2.463   246 C    1.230   139 C    0.170
   143   6 C    3.803 --   144 C    2.463   139 C    1.362
   144   6 C    3.767 --   143 C    2.463   287 C    1.230   140 C    0.170
   145   6 C    3.834 --   146 C    2.367   149 C    1.362   148 C    0.170
   146   6 C    3.834 --   145 C    2.367   147 C    1.362   150 C    0.170
   147   6 C    3.804 --   148 C    2.463   146 C    1.362
   148   6 C    3.768 --   147 C    2.463   308 C    1.230   145 C    0.170
   149   6 C    3.803 --   150 C    2.463   145 C    1.362
   150   6 C    3.767 --   149 C    2.463   349 C    1.230   146 C    0.170
   151   6 C    3.834 --   152 C    2.367   155 C    1.362   154 C    0.170
   152   6 C    3.834 --   151 C    2.367   153 C    1.362   156 C    0.170
   153   6 C    3.803 --   154 C    2.463   152 C    1.362
   154   6 C    3.768 --   153 C    2.463   370 C    1.230   151 C    0.170
   155   6 C    3.803 --   156 C    2.463   151 C    1.362
   156   6 C    3.767 --   155 C    2.463   411 C    1.230   152 C    0.170
   157   6 C    3.833 --   158 C    2.382   161 C    1.350   160 C    0.171
   158   6 C    3.836 --   157 C    2.382   159 C    1.351   162 C    0.171
   159   6 C    3.805 --   160 C    2.475   158 C    1.351
   160   6 C    3.769 --   159 C    2.475   432 C    1.220   157 C    0.171
   161   6 C    3.810 --   162 C    2.480   157 C    1.350
   162   6 C    3.767 --   161 C    2.480    85 C    1.214   158 C    0.171
   163   6 C    3.828 --   203 C    1.285   164 C    1.281   132 C    1.221
   164   6 C    3.905 --   163 C    1.281   165 C    1.271   168 N    1.251
   165   6 C    3.828 --   166 C    1.577   164 C    1.271   205 H    0.998
   166   6 C    3.819 --   165 C    1.577   167 C    1.266   206 H    0.999
   167   6 C    3.887 --   169 C    1.338   166 C    1.266   168 N    1.221
   168   7 N    3.251 --   164 C    1.251   167 C    1.221   207 H    0.961
   169   6 C    3.829 --   179 C    1.373   167 C    1.338   170 C    1.053
   170   6 C    3.886 --   171 C    1.411   178 C    1.402   169 C    1.053
   171   6 C    3.814 --   170 C    1.411   172 C    1.395   208 H    0.993
   172   6 C    3.970 --   171 C    1.395   174 C    1.353   173 O    1.118
   173   8 O    2.150 --   172 C    1.118   209 H    0.963
   174   6 C    3.947 --   176 C    1.358   172 C    1.353   175 O    1.118
   175   8 O    2.148 --   174 C    1.118   210 H    0.961
   176   6 C    3.937 --   178 C    1.407   174 C    1.358   177 O    1.091
   177   8 O    2.107 --   176 C    1.091   211 H    0.962
   178   6 C    3.811 --   176 C    1.407   170 C    1.402   212 H    0.992
   179   6 C    3.924 --   169 C    1.373   182 N    1.351   180 C    1.164
   180   6 C    3.839 --   181 C    1.690   179 C    1.164   213 H    1.000
   181   6 C    3.849 --   180 C    1.690   183 C    1.169   214 H    0.999
   182   7 N    2.553 --   183 C    1.417   179 C    1.351
   183   6 C    3.943 --   182 N    1.417   184 C    1.280   181 C    1.169
   184   6 C    3.829 --   183 C    1.280   185 C    1.280   136 C    1.230
   185   6 C    3.904 --   184 C    1.280   186 C    1.271   189 N    1.252
   186   6 C    3.829 --   187 C    1.577   185 C    1.271   215 H    0.998
   187   6 C    3.816 --   186 C    1.577   188 C    1.265   216 H    0.999
   188   6 C    3.887 --   190 C    1.337   187 C    1.265   189 N    1.221
   189   7 N    3.252 --   185 C    1.252   188 C    1.221   217 H    0.961
   190   6 C    3.827 --   200 C    1.374   188 C    1.337   191 C    1.052
   191   6 C    3.890 --   192 C    1.411   199 C    1.405   190 C    1.052
   192   6 C    3.839 --   191 C    1.411   193 C    1.393   218 H    0.993
   193   6 C    3.978 --   192 C    1.393   195 C    1.357   194 O    1.126
   194   8 O    2.160 --   193 C    1.126   219 H    0.963
   195   6 C    3.914 --   197 C    1.368   193 C    1.357   196 O    1.092
   196   8 O    2.104 --   195 C    1.092   220 H    0.961
   197   6 C    3.939 --   199 C    1.401   195 C    1.368   198 O    1.095
   198   8 O    2.113 --   197 C    1.095   221 H    0.962
   199   6 C    3.815 --   191 C    1.405   197 C    1.401   222 H    0.992
   200   6 C    3.925 --   190 C    1.374   204 N    1.352   201 C    1.163
   201   6 C    3.840 --   202 C    1.691   200 C    1.163   223 H    1.000
   202   6 C    3.849 --   201 C    1.691   203 C    1.167   224 H    0.999
   203   6 C    3.945 --   204 N    1.414   163 C    1.285   202 C    1.167
   204   7 N    2.550 --   203 C    1.414   200 C    1.352
   205   1 H    1.028 --   165 C    0.998
   206   1 H    1.024 --   166 C    0.999
   207   1 H    1.083 --   168 N    0.961
   208   1 H    1.022 --   171 C    0.993
   209   1 H    1.001 --   173 O    0.963
   210   1 H    0.996 --   175 O    0.961
   211   1 H    0.996 --   177 O    0.962
   212   1 H    1.021 --   178 C    0.992
   213   1 H    1.027 --   180 C    1.000
   214   1 H    1.032 --   181 C    0.999
   215   1 H    1.028 --   186 C    0.998
   216   1 H    1.026 --   187 C    0.999
   217   1 H    1.084 --   189 N    0.961
   218   1 H    1.031 --   192 C    0.993
   219   1 H    0.995 --   194 O    0.963
   220   1 H    0.991 --   196 O    0.961
   221   1 H    0.996 --   198 O    0.962
   222   1 H    1.024 --   199 C    0.992
   223   1 H    1.028 --   201 C    1.000
   224   1 H    1.032 --   202 C    0.999
   225   6 C    3.828 --   265 C    1.281   226 C    1.278   138 C    1.230
   226   6 C    3.904 --   225 C    1.278   227 C    1.273   230 N    1.252
   227   6 C    3.829 --   228 C    1.575   226 C    1.273   267 H    0.998
   228   6 C    3.818 --   227 C    1.575   229 C    1.267   268 H    0.999
   229   6 C    3.887 --   231 C    1.336   228 C    1.267   230 N    1.221
   230   7 N    3.252 --   226 C    1.252   229 C    1.221   269 H    0.961
   231   6 C    3.828 --   241 C    1.374   229 C    1.336   232 C    1.053
   232   6 C    3.886 --   233 C    1.411   240 C    1.401   231 C    1.053
   233   6 C    3.814 --   232 C    1.411   234 C    1.395   270 H    0.993
   234   6 C    3.969 --   233 C    1.395   236 C    1.353   235 O    1.118
   235   8 O    2.150 --   234 C    1.118   271 H    0.964
   236   6 C    3.947 --   238 C    1.358   234 C    1.353   237 O    1.118
   237   8 O    2.148 --   236 C    1.118   272 H    0.961
   238   6 C    3.937 --   240 C    1.407   236 C    1.358   239 O    1.091
   239   8 O    2.108 --   238 C    1.091   273 H    0.961
   240   6 C    3.811 --   238 C    1.407   232 C    1.401   274 H    0.992
   241   6 C    3.924 --   231 C    1.374   244 N    1.350   242 C    1.164
   242   6 C    3.839 --   243 C    1.690   241 C    1.164   275 H    1.000
   243   6 C    3.849 --   242 C    1.690   245 C    1.168   276 H    0.999
   244   7 N    2.551 --   245 C    1.418   241 C    1.350
   245   6 C    3.943 --   244 N    1.418   246 C    1.281   243 C    1.168
   246   6 C    3.829 --   245 C    1.281   247 C    1.279   142 C    1.230
   247   6 C    3.904 --   246 C    1.279   248 C    1.271   251 N    1.252
   248   6 C    3.830 --   249 C    1.578   247 C    1.271   277 H    0.998
   249   6 C    3.817 --   248 C    1.578   250 C    1.265   278 H    0.999
   250   6 C    3.887 --   252 C    1.338   249 C    1.265   251 N    1.221
   251   7 N    3.252 --   247 C    1.252   250 C    1.221   279 H    0.961
   252   6 C    3.827 --   262 C    1.374   250 C    1.338   253 C    1.052
   253   6 C    3.890 --   254 C    1.411   261 C    1.405   252 C    1.052
   254   6 C    3.839 --   253 C    1.411   255 C    1.393   280 H    0.993
   255   6 C    3.977 --   254 C    1.393   257 C    1.357   256 O    1.126
   256   8 O    2.160 --   255 C    1.126   281 H    0.963
   257   6 C    3.914 --   259 C    1.369   255 C    1.357   258 O    1.092
   258   8 O    2.103 --   257 C    1.092   282 H    0.961
   259   6 C    3.939 --   261 C    1.401   257 C    1.369   260 O    1.095
   260   8 O    2.113 --   259 C    1.095   283 H    0.962
   261   6 C    3.815 --   253 C    1.405   259 C    1.401   284 H    0.992
   262   6 C    3.924 --   252 C    1.374   266 N    1.350   263 C    1.164
   263   6 C    3.839 --   264 C    1.690   262 C    1.164   285 H    1.000
   264   6 C    3.849 --   263 C    1.690   265 C    1.168   286 H    0.999
   265   6 C    3.943 --   266 N    1.417   225 C    1.281   264 C    1.168
   266   7 N    2.551 --   265 C    1.417   262 C    1.350
   267   1 H    1.027 --   227 C    0.998
   268   1 H    1.024 --   228 C    0.999
   269   1 H    1.083 --   230 N    0.961
   270   1 H    1.023 --   233 C    0.993
   271   1 H    1.002 --   235 O    0.964
   272   1 H    0.996 --   237 O    0.961
   273   1 H    0.995 --   239 O    0.961
   274   1 H    1.020 --   240 C    0.992
   275   1 H    1.027 --   242 C    1.000
   276   1 H    1.032 --   243 C    0.999
   277   1 H    1.028 --   248 C    0.998
   278   1 H    1.025 --   249 C    0.999
   279   1 H    1.083 --   251 N    0.961
   280   1 H    1.031 --   254 C    0.993
   281   1 H    0.995 --   256 O    0.963
   282   1 H    0.991 --   258 O    0.961
   283   1 H    0.996 --   260 O    0.962
   284   1 H    1.024 --   261 C    0.992
   285   1 H    1.028 --   263 C    1.000
   286   1 H    1.032 --   264 C    0.999
   287   6 C    3.830 --   327 C    1.282   288 C    1.278   144 C    1.230
   288   6 C    3.904 --   287 C    1.278   289 C    1.273   292 N    1.252
   289   6 C    3.829 --   290 C    1.576   288 C    1.273   329 H    0.998
   290   6 C    3.818 --   289 C    1.576   291 C    1.267   330 H    0.999
   291   6 C    3.887 --   293 C    1.336   290 C    1.267   292 N    1.221
   292   7 N    3.252 --   288 C    1.252   291 C    1.221   331 H    0.961
   293   6 C    3.828 --   303 C    1.374   291 C    1.336   294 C    1.053
   294   6 C    3.885 --   295 C    1.411   302 C    1.401   293 C    1.053
   295   6 C    3.814 --   294 C    1.411   296 C    1.395   332 H    0.993
   296   6 C    3.969 --   295 C    1.395   298 C    1.353   297 O    1.118
   297   8 O    2.150 --   296 C    1.118   333 H    0.964
   298   6 C    3.947 --   300 C    1.357   296 C    1.353   299 O    1.118
   299   8 O    2.148 --   298 C    1.118   334 H    0.961
   300   6 C    3.937 --   302 C    1.407   298 C    1.357   301 O    1.091
   301   8 O    2.108 --   300 C    1.091   335 H    0.961
   302   6 C    3.811 --   300 C    1.407   294 C    1.401   336 H    0.992
   303   6 C    3.925 --   293 C    1.374   306 N    1.350   304 C    1.164
   304   6 C    3.840 --   305 C    1.690   303 C    1.164   337 H    1.000
   305   6 C    3.850 --   304 C    1.690   307 C    1.168   338 H    0.999
   306   7 N    2.552 --   307 C    1.417   303 C    1.350
   307   6 C    3.943 --   306 N    1.417   308 C    1.281   305 C    1.168
   308   6 C    3.830 --   307 C    1.281   309 C    1.280   148 C    1.230
   309   6 C    3.904 --   308 C    1.280   310 C    1.271   313 N    1.252
   310   6 C    3.830 --   311 C    1.578   309 C    1.271   339 H    0.998
   311   6 C    3.817 --   310 C    1.578   312 C    1.265   340 H    0.999
   312   6 C    3.887 --   314 C    1.338   311 C    1.265   313 N    1.221
   313   7 N    3.252 --   309 C    1.252   312 C    1.221   341 H    0.961
   314   6 C    3.827 --   324 C    1.374   312 C    1.338   315 C    1.052
   315   6 C    3.890 --   316 C    1.411   323 C    1.405   314 C    1.052
   316   6 C    3.839 --   315 C    1.411   317 C    1.393   342 H    0.993
   317   6 C    3.977 --   316 C    1.393   319 C    1.357   318 O    1.126
   318   8 O    2.160 --   317 C    1.126   343 H    0.963
   319   6 C    3.914 --   321 C    1.368   317 C    1.357   320 O    1.092
   320   8 O    2.104 --   319 C    1.092   344 H    0.960
   321   6 C    3.939 --   323 C    1.401   319 C    1.368   322 O    1.095
   322   8 O    2.113 --   321 C    1.095   345 H    0.962
   323   6 C    3.815 --   315 C    1.405   321 C    1.401   346 H    0.992
   324   6 C    3.925 --   314 C    1.374   328 N    1.351   325 C    1.164
   325   6 C    3.839 --   326 C    1.690   324 C    1.164   347 H    1.000
   326   6 C    3.850 --   325 C    1.690   327 C    1.168   348 H    0.999
   327   6 C    3.943 --   328 N    1.417   287 C    1.282   326 C    1.168
   328   7 N    2.551 --   327 C    1.417   324 C    1.351
   329   1 H    1.027 --   289 C    0.998
   330   1 H    1.024 --   290 C    0.999
   331   1 H    1.083 --   292 N    0.961
   332   1 H    1.023 --   295 C    0.993
   333   1 H    1.001 --   297 O    0.964
   334   1 H    0.996 --   299 O    0.961
   335   1 H    0.995 --   301 O    0.961
   336   1 H    1.020 --   302 C    0.992
   337   1 H    1.027 --   304 C    1.000
   338   1 H    1.032 --   305 C    0.999
   339   1 H    1.028 --   310 C    0.998
   340   1 H    1.026 --   311 C    0.999
   341   1 H    1.083 --   313 N    0.961
   342   1 H    1.031 --   316 C    0.993
   343   1 H    0.995 --   318 O    0.963
   344   1 H    0.991 --   320 O    0.960
   345   1 H    0.995 --   322 O    0.962
   346   1 H    1.024 --   323 C    0.992
   347   1 H    1.028 --   325 C    1.000
   348   1 H    1.032 --   326 C    0.999
   349   6 C    3.829 --   389 C    1.281   350 C    1.278   150 C    1.230
   350   6 C    3.904 --   349 C    1.278   351 C    1.273   354 N    1.252
   351   6 C    3.829 --   352 C    1.575   350 C    1.273   391 H    0.998
   352   6 C    3.818 --   351 C    1.575   353 C    1.267   392 H    0.999
   353   6 C    3.887 --   355 C    1.336   352 C    1.267   354 N    1.221
   354   7 N    3.252 --   350 C    1.252   353 C    1.221   393 H    0.961
   355   6 C    3.828 --   365 C    1.374   353 C    1.336   356 C    1.053
   356   6 C    3.885 --   357 C    1.411   364 C    1.401   355 C    1.053
   357   6 C    3.814 --   356 C    1.411   358 C    1.394   394 H    0.993
   358   6 C    3.969 --   357 C    1.394   360 C    1.353   359 O    1.118
   359   8 O    2.150 --   358 C    1.118   395 H    0.964
   360   6 C    3.947 --   362 C    1.357   358 C    1.353   361 O    1.118
   361   8 O    2.148 --   360 C    1.118   396 H    0.961
   362   6 C    3.937 --   364 C    1.407   360 C    1.357   363 O    1.091
   363   8 O    2.108 --   362 C    1.091   397 H    0.961
   364   6 C    3.811 --   362 C    1.407   356 C    1.401   398 H    0.992
   365   6 C    3.925 --   355 C    1.374   368 N    1.350   366 C    1.164
   366   6 C    3.840 --   367 C    1.690   365 C    1.164   399 H    1.000
   367   6 C    3.849 --   366 C    1.690   369 C    1.168   400 H    0.999
   368   7 N    2.551 --   369 C    1.418   365 C    1.350
   369   6 C    3.943 --   368 N    1.418   370 C    1.280   367 C    1.168
   370   6 C    3.829 --   369 C    1.280   371 C    1.279   154 C    1.230
   371   6 C    3.904 --   370 C    1.279   372 C    1.272   375 N    1.252
   372   6 C    3.829 --   373 C    1.577   371 C    1.272   401 H    0.998
   373   6 C    3.817 --   372 C    1.577   374 C    1.266   402 H    0.999
   374   6 C    3.887 --   376 C    1.338   373 C    1.266   375 N    1.221
   375   7 N    3.251 --   371 C    1.252   374 C    1.221   403 H    0.961
   376   6 C    3.827 --   386 C    1.373   374 C    1.338   377 C    1.052
   377   6 C    3.890 --   378 C    1.411   385 C    1.404   376 C    1.052
   378   6 C    3.839 --   377 C    1.411   379 C    1.393   404 H    0.993
   379   6 C    3.977 --   378 C    1.393   381 C    1.357   380 O    1.126
   380   8 O    2.160 --   379 C    1.126   405 H    0.963
   381   6 C    3.913 --   383 C    1.368   379 C    1.357   382 O    1.092
   382   8 O    2.104 --   381 C    1.092   406 H    0.960
   383   6 C    3.939 --   385 C    1.401   381 C    1.368   384 O    1.095
   384   8 O    2.113 --   383 C    1.095   407 H    0.962
   385   6 C    3.815 --   377 C    1.404   383 C    1.401   408 H    0.992
   386   6 C    3.924 --   376 C    1.373   390 N    1.351   387 C    1.164
   387   6 C    3.839 --   388 C    1.690   386 C    1.164   409 H    1.000
   388   6 C    3.849 --   387 C    1.690   389 C    1.168   410 H    0.999
   389   6 C    3.943 --   390 N    1.417   349 C    1.281   388 C    1.168
   390   7 N    2.551 --   389 C    1.417   386 C    1.351
   391   1 H    1.027 --   351 C    0.998
   392   1 H    1.024 --   352 C    0.999
   393   1 H    1.083 --   354 N    0.961
   394   1 H    1.023 --   357 C    0.993
   395   1 H    1.002 --   359 O    0.964
   396   1 H    0.996 --   361 O    0.961
   397   1 H    0.995 --   363 O    0.961
   398   1 H    1.020 --   364 C    0.992
   399   1 H    1.027 --   366 C    1.000
   400   1 H    1.032 --   367 C    0.999
   401   1 H    1.028 --   372 C    0.998
   402   1 H    1.027 --   373 C    0.999
   403   1 H    1.084 --   375 N    0.961
   404   1 H    1.031 --   378 C    0.993
   405   1 H    0.995 --   380 O    0.963
   406   1 H    0.991 --   382 O    0.960
   407   1 H    0.995 --   384 O    0.962
   408   1 H    1.024 --   385 C    0.992
   409   1 H    1.028 --   387 C    1.000
   410   1 H    1.032 --   388 C    0.999
   411   6 C    3.829 --   451 C    1.282   412 C    1.278   156 C    1.230
   412   6 C    3.904 --   411 C    1.278   413 C    1.273   416 N    1.252
   413   6 C    3.829 --   414 C    1.575   412 C    1.273   453 H    0.998
   414   6 C    3.818 --   413 C    1.575   415 C    1.267   454 H    0.999
   415   6 C    3.887 --   417 C    1.336   414 C    1.267   416 N    1.222
   416   7 N    3.253 --   412 C    1.252   415 C    1.222   455 H    0.961
   417   6 C    3.828 --   427 C    1.373   415 C    1.336   418 C    1.054
   418   6 C    3.885 --   419 C    1.410   426 C    1.401   417 C    1.054
   419   6 C    3.814 --   418 C    1.410   420 C    1.395   456 H    0.993
   420   6 C    3.969 --   419 C    1.395   422 C    1.353   421 O    1.118
   421   8 O    2.150 --   420 C    1.118   457 H    0.964
   422   6 C    3.947 --   424 C    1.357   420 C    1.353   423 O    1.118
   423   8 O    2.148 --   422 C    1.118   458 H    0.961
   424   6 C    3.937 --   426 C    1.408   422 C    1.357   425 O    1.091
   425   8 O    2.108 --   424 C    1.091   459 H    0.961
   426   6 C    3.811 --   424 C    1.408   418 C    1.401   460 H    0.992
   427   6 C    3.925 --   417 C    1.373   430 N    1.352   428 C    1.163
   428   6 C    3.840 --   429 C    1.692   427 C    1.163   461 H    1.000
   429   6 C    3.849 --   428 C    1.692   431 C    1.167   462 H    0.999
   430   7 N    2.550 --   431 C    1.414   427 C    1.352
   431   6 C    3.945 --   430 N    1.414   432 C    1.285   429 C    1.167
   432   6 C    3.829 --   431 C    1.285   433 C    1.283   160 C    1.220
   433   6 C    3.906 --   432 C    1.283   434 C    1.269   437 N    1.251
   434   6 C    3.829 --   435 C    1.579   433 C    1.269   463 H    0.998
   435   6 C    3.818 --   434 C    1.579   436 C    1.264   464 H    0.999
   436   6 C    3.887 --   438 C    1.339   435 C    1.264   437 N    1.221
   437   7 N    3.250 --   433 C    1.251   436 C    1.221   465 H    0.961
   438   6 C    3.829 --   448 C    1.372   436 C    1.339   439 C    1.052
   439   6 C    3.890 --   440 C    1.411   447 C    1.404   438 C    1.052
   440   6 C    3.839 --   439 C    1.411   441 C    1.393   466 H    0.993
   441   6 C    3.977 --   440 C    1.393   443 C    1.357   442 O    1.126
   442   8 O    2.160 --   441 C    1.126   467 H    0.963
   443   6 C    3.914 --   445 C    1.368   441 C    1.357   444 O    1.092
   444   8 O    2.104 --   443 C    1.092   468 H    0.960
   445   6 C    3.939 --   447 C    1.401   443 C    1.368   446 O    1.095
   446   8 O    2.113 --   445 C    1.095   469 H    0.962
   447   6 C    3.815 --   439 C    1.404   445 C    1.401   470 H    0.992
   448   6 C    3.924 --   438 C    1.372   452 N    1.352   449 C    1.164
   449   6 C    3.839 --   450 C    1.690   448 C    1.164   471 H    1.000
   450   6 C    3.849 --   449 C    1.690   451 C    1.169   472 H    0.999
   451   6 C    3.943 --   452 N    1.416   411 C    1.282   450 C    1.169
   452   7 N    2.552 --   451 C    1.416   448 C    1.352
   453   1 H    1.027 --   413 C    0.998
   454   1 H    1.024 --   414 C    0.999
   455   1 H    1.083 --   416 N    0.961
   456   1 H    1.023 --   419 C    0.993
   457   1 H    1.001 --   421 O    0.964
   458   1 H    0.996 --   423 O    0.961
   459   1 H    0.995 --   425 O    0.961
   460   1 H    1.020 --   426 C    0.992
   461   1 H    1.027 --   428 C    1.000
   462   1 H    1.031 --   429 C    0.999
   463   1 H    1.028 --   434 C    0.998
   464   1 H    1.027 --   435 C    0.999
   465   1 H    1.083 --   437 N    0.961
   466   1 H    1.031 --   440 C    0.993
   467   1 H    0.995 --   442 O    0.963
   468   1 H    0.991 --   444 O    0.960
   469   1 H    0.995 --   446 O    0.962
   470   1 H    1.024 --   447 C    0.992
   471   1 H    1.028 --   449 C    1.000
   472   1 H    1.032 --   450 C    0.999
 ---------------------------------------------------------------------------

Topologies differ in total number of bonds
Writing topology from bond orders to xtbtopo.mol

 dipole moment from electron density (au)
     X       Y       Z   
-258.1208   8.6559  -0.0734  total (Debye):  656.447


           -------------------------------------------------
          | TOTAL ENERGY            -1011.861816256139 Eh   |
          | GRADIENT NORM               0.135790698764 Eh/α |
          | HOMO-LUMO GAP               0.062181897340 eV   |
           -------------------------------------------------
########################################################################
[WARNING] Runtime exception occurred
-1- restart_readRestart: Dimension missmatch in restart file.
########################################################################

------------------------------------------------------------------------
 * finished run on 2022/07/29 at 19:44:37.211     
------------------------------------------------------------------------
 total:
 * wall-time:     0 d,  0 h,  1 min, 34.560 sec
 *  cpu-time:     0 d,  0 h,  1 min, 34.054 sec
 * ratio c/w:     0.995 speedup
 SCF:
 * wall-time:     0 d,  0 h,  1 min, 33.348 sec
 *  cpu-time:     0 d,  0 h,  1 min, 32.890 sec
 * ratio c/w:     0.995 speedup

