324
 energy: -569.158741355880 gnorm: 1.772533291488 xtb: 6.5.1 (b24c23e)
C           45.23911900000000        0.01270800000000        0.06037100000000
C           45.96398700000000        1.20603600000000       -0.63400700000000
C           45.34918200000000        2.23139000000000       -1.31573200000000
C           46.37019600000000        3.12334000000000       -1.73411500000000
C           47.57459599999999        2.61474500000000       -1.28801000000000
N           47.31839400000000        1.42198200000000       -0.65900000000000
C           49.00120500000000        3.28915700000000       -1.44237000000000
C           49.04697599999999        4.68696100000000       -1.93286900000000
C           49.31263900000000        4.94641600000000       -3.28415200000000
C           49.34842100000000        6.25897100000000       -3.75763300000000
C           49.11462000000000        7.31025000000000       -2.87360500000000
O           49.14227200000000        8.60758200000000       -3.30108100000000
C           48.84703700000000        7.07008700000000       -1.53002100000000
C           48.81311300000000        5.75599000000000       -1.05878600000000
C           50.13101300000000        2.60833100000000       -1.10901700000000
C           51.44002400000000        3.22554500000000       -1.17320700000000
C           52.34217900000000        2.33879100000000       -0.76993600000000
N           50.32431499999999        1.32752000000000       -0.66198700000000
C           51.65866100000000        1.10328600000000       -0.44090800000000
C           52.32664400000000        0.00224400000000       -0.00421300000000
C           51.54655500000000       -1.34363700000000        0.31191400000000
C           52.08359400000000       -2.61629300000000        0.30709900000000
C           51.05880200000000       -3.51485600000000        0.69423000000000
C           49.92114000000000       -2.76786700000000        0.91343500000000
N           50.21454800000000       -1.45434500000000        0.63048600000000
C           48.51236000000000       -3.32419500000000        1.38563500000000
C           48.47866999999999       -4.63761300000000        2.06768900000000
C           48.85738100000000       -4.74873900000000        3.41112200000000
C           48.83768300000000       -5.99178600000000        4.04748600000000
C           48.44079700000000       -7.11988100000000        3.33744100000000
O           48.43156599999999       -8.31981800000000        3.99058000000000
C           48.06362200000000       -7.02896600000000        1.99936700000000
C           48.08539500000000       -5.78536100000000        1.36586800000000
C           47.38869300000000       -2.59508900000000        1.15854700000000
C           46.06846800000000       -3.03601600000000        1.57361500000000
C           45.18365200000000       -2.11776800000000        1.19697000000000
C           45.90409199999999       -1.05495700000000        0.53980000000000
N           47.22400900000000       -1.38202500000000        0.54979700000000
H           44.16247700000000        0.06742200000000        0.16843700000000
H           44.28748500000000        2.33459600000000       -1.47869900000000
H           46.23810800000000        4.04602400000000       -2.27884100000000
H           48.02241699999999        0.80019200000000       -0.26853600000000
H           49.49519500000000        4.10930100000000       -3.95497900000000
H           49.55932500000000        6.43048100000000       -4.80662400000000
H           49.35975000000000        8.59359000000000       -4.24650500000000
H           48.66711600000000        7.89407800000000       -0.84832200000000
H           48.60767599999999        5.54910400000000       -0.01092900000000
H           51.65494400000000        4.23440900000000       -1.47733000000000
H           53.39833699999999        2.52743400000000       -0.70935300000000
H           53.10345200000000       -2.87312900000000        0.06447600000000
H           51.14251300000000       -4.58543500000000        0.80508700000000
H           49.53391800000000       -0.69919600000000        0.60834000000000
H           49.16468400000000       -3.85629500000000        3.95158800000000
H           49.13030600000000       -6.07097800000000        5.08872500000000
H           48.12230899999999       -8.98805300000000        3.35891800000000
H           47.75164099999999       -7.89859500000000        1.43311000000000
H           47.79322900000000       -5.68943500000000        0.32197100000000
H           45.84040100000000       -3.94510800000000        2.10019800000000
H           44.12172100000000       -2.15014800000000        1.35987200000000
C          131.22407400000000        0.05089700000000        0.03953100000000
C          130.49920700000001       -1.17872300000000        0.66740600000000
C          131.11401200000000       -2.30681900000000        1.16086400000000
C          130.09299700000000       -3.14126800000000        1.68461300000000
C          128.88859700000000       -2.49092100000000        1.49825900000000
N          129.14480000000000       -1.31658100000000        0.83549100000000
C          127.46198900000000       -2.98563100000000        1.98191400000000
C          127.41621700000000       -4.15442400000000        2.89206100000000
C          127.15055399999999       -5.43121500000000        2.37913900000000
C          127.11477300000000       -6.53957100000000        3.22680100000000
C          127.34857300000000       -6.36491600000000        4.58922200000000
O          127.32092200000000       -7.42634700000000        5.44897200000000
C          127.61615599999999       -5.10503800000000        5.11420100000000
C          127.65008100000000       -3.99773600000000        4.26402800000000
C          126.33218100000001       -2.33692000000000        1.58971100000000
C          125.02316899999998       -2.72485100000000        2.07404900000000
C          124.12101400000000       -1.90592100000000        1.54649300000000
N          126.13887900000000       -1.26798300000000        0.75443400000000
C          124.80453199999998       -0.96073600000000        0.68547200000000
C          124.13654900000000        0.00224400000000       -0.00421300000000
C          124.91663799999999        0.99629900000000       -0.96503800000000
C          124.37960000000000        1.68082900000000       -2.03793000000000
C          125.40439099999999        2.49257300000000       -2.58415000000000
C          126.54205399999998        2.27275900000000       -1.83734000000000
N          126.24864499999998        1.32411300000000       -0.88577700000000
C          127.95083400000000        2.97087700000000       -2.04971800000000
C          127.98452399999999        4.25510800000000       -2.78525600000000
C          127.60581199999999        5.44504300000000       -2.15183900000000
C          127.62551000000001        6.65277400000000       -2.85291700000000
C          128.02239700000001        6.66599800000000       -4.18580300000000
O          128.03162800000001        7.86451200000000       -4.84155000000000
C          128.39957200000001        5.49150600000000       -4.83331800000000
C          128.37779800000001        4.28588100000000       -4.13022100000000
C          129.07450000000000        2.38541200000000       -1.55941700000000
C          130.39472499999999        2.97304400000000       -1.70565600000000
C          131.27954099999999        2.15946800000000       -1.13720800000000
C          130.55910200000000        1.03175600000000       -0.59896400000000
N          129.23918399999999        1.21712600000000       -0.86861400000000
H          132.30071599999999        0.11217500000000        0.14401400000000
H          132.17570799999999       -2.49971200000000        1.15948500000000
H          130.22508500000001       -4.09859800000000        2.16585100000000
H          128.44077600000000       -0.65178200000000        0.52383700000000
H          126.96799900000001       -5.54244500000000        1.31218200000000
H          126.90386799999999       -7.51455500000000        2.80347600000000
H          127.10344400000000       -8.21386500000000        4.92567700000000
H          127.79607700000000       -4.97756300000000        6.17600400000000
H          127.85551700000001       -3.00456500000000        4.65698800000000
H          124.80825000000000       -3.52646600000000        2.75794300000000
H          123.06485600000001       -1.95703800000000        1.73791800000000
H          123.35974199999998        1.61574800000000       -2.38519800000000
H          125.32068000000000        3.16504500000000       -3.42451300000000
H          126.92927500000000        0.89691100000000       -0.26268900000000
H          127.29850899999998        5.41670500000000       -1.10888400000000
H          127.33288699999999        7.57128900000000       -2.35614800000000
H          128.34088399999999        7.69484500000000       -5.74529100000000
H          128.71155200000001        5.48580900000000       -5.87104100000000
H          128.66996499999999        3.35607600000000       -4.61435500000000
H          130.62279300000000        3.90776400000000       -2.18528000000000
H          132.34147300000001        2.31398500000000       -1.07630000000000
C           55.25315600000000        0.01590200000000        0.00534000000000
C           56.71138200000000       -0.00593500000000       -0.01253300000000
C           57.84531000000000       -0.02668800000000       -0.01402400000000
C           59.20669200000000       -0.03927800000000       -0.01621500000000
C           60.48091100000000       -0.02897200000000       -0.02098000000000
C           61.66937300000000       -0.01017400000000       -0.02713600000000
C           63.02173400000000        0.01461100000000       -0.01126800000000
C           64.12200100000000        0.01590200000000        0.00534000000000
C           74.24406100000000        0.01590200000000        0.00534000000000
C           75.70228700000000       -0.00593500000000       -0.01253300000000
C           76.83621499999998       -0.02668800000000       -0.01402400000000
C           78.19759700000000       -0.03927800000000       -0.01621500000000
C           79.47181599999999       -0.02897200000000       -0.02098000000000
C           80.66027799999999       -0.01017400000000       -0.02713600000000
C           82.01263899999998        0.01461100000000       -0.01126800000000
C           83.11290599999998        0.01590200000000        0.00534000000000
C           93.23496600000000        0.01590200000000        0.00534000000000
C           94.69319299999999       -0.00593500000000       -0.01253300000000
C           95.82712100000001       -0.02668800000000       -0.01402400000000
C           97.18850200000000       -0.03927800000000       -0.01621500000000
C           98.46272099999999       -0.02897200000000       -0.02098000000000
C           99.65118400000000       -0.01017400000000       -0.02713600000000
C          101.00354399999999        0.01461100000000       -0.01126800000000
C          102.10381199999999        0.01590200000000        0.00534000000000
C          112.22587199999998        0.01590200000000        0.00534000000000
C          113.68409800000001       -0.00593500000000       -0.01253300000000
C          114.81802600000000       -0.02668800000000       -0.01402400000000
C          116.17940800000000       -0.03927800000000       -0.01621500000000
C          117.45362700000000       -0.02897200000000       -0.02098000000000
C          118.64208900000000       -0.01017400000000       -0.02713600000000
C          119.99444999999999        0.01461100000000       -0.01126800000000
C          121.09471699999999        0.01590200000000        0.00534000000000
C           65.67025300000000       -0.00444600000000        0.00187500000000
C           66.47439500000000       -1.03601800000000       -0.90344100000000
C           65.96362400000000       -1.76722400000000       -1.96072000000000
C           66.99946400000000       -2.58451900000000       -2.45751300000000
C           68.11940699999998       -2.33057900000000       -1.68573700000000
N           67.80837699999999       -1.33365600000000       -0.79451400000000
C           69.52272499999999       -3.06496800000000       -1.82027800000000
C           69.52526200000000       -4.40904900000000       -2.43844700000000
C           69.99787900000000       -4.58186600000000       -3.74757900000000
C           70.00281099999999       -5.84589000000000       -4.33752500000000
C           69.52319100000000       -6.93429000000000       -3.61262800000000
O           69.50677500000000       -8.18711300000000       -4.15858400000000
C           69.03214800000001       -6.78126900000000       -2.32182100000000
C           69.03311799999999       -5.51586700000000       -1.73491000000000
C           70.65251800000000       -2.46444300000000       -1.36969500000000
C           71.94609000000000       -3.11220700000000       -1.43702300000000
C           72.85852600000000       -2.27532000000000       -0.94563100000000
N           70.85450100000000       -1.24454400000000       -0.79720600000000
C           72.18508100000000       -1.06065300000000       -0.53694600000000
C           72.84099999999998       -0.00444600000000        0.00187500000000
C           72.04098999999999        1.30085200000000        0.43267100000000
C           72.58596000000000        2.55263100000000        0.63536400000000
C           71.56474400000000        3.38500800000000        1.13434600000000
C           70.40339000000000        2.63662100000000        1.17092700000000
N           70.70087100000001        1.37446100000000        0.71796400000000
C           68.98759400000000        3.13522800000000        1.70634200000000
C           68.95786999999999        4.35230300000000        2.55119600000000
C           69.10619699999999        5.61251900000000        1.95993600000000
C           69.06642500000000        6.77112400000000        2.74093200000000
C           68.84083699999998        6.66565300000000        4.11191600000000
O           68.74634199999998        7.81331600000000        4.84433500000000
C           68.69794899999999        5.41866900000000        4.72087700000000
C           68.76916400000000        4.26221000000000        3.93795600000000
C           67.85035099999999        2.44686400000000        1.39416300000000
C           66.55088100000000        2.86441600000000        1.87825500000000
C           65.64467700000000        1.99312400000000        1.43235200000000
C           66.32253000000000        1.01160800000000        0.61761500000000
N           67.65176700000001        1.34297000000000        0.62978800000000
H           64.94932100000000       -1.72492300000000       -2.32318800000000
H           66.94077900000001       -3.29747400000000       -3.27263300000000
H           68.47281800000000       -0.87222900000000       -0.17712900000000
H           70.36747099999999       -3.71555800000000       -4.29682500000000
H           70.39572099999999       -5.95011400000000       -5.33624700000000
H           69.80794899999998       -8.10234000000000       -5.07718200000000
H           68.64494899999998       -7.63427000000000       -1.78236800000000
H           68.64960800000000       -5.37243400000000       -0.72679900000000
H           72.15455100000000       -4.10188700000000       -1.81095100000000
H           73.90776400000000       -2.49067900000000       -0.86620500000000
H           73.61970700000001        2.82669100000000        0.49128300000000
H           71.67066300000000        4.41362800000000        1.45626500000000
H           70.02829400000000        0.62475100000000        0.60588300000000
H           69.25434500000000        5.67694400000000        0.88395200000000
H           69.19178100000001        7.74573600000000        2.28672300000000
H           68.13408800000001        7.61665100000000        5.58094600000000
H           68.53228500000000        5.32603600000000        5.78611000000000
H           68.65415299999998        3.28010000000000        4.38644700000000
H           66.33474800000000        3.72293600000000        2.48933500000000
H           64.58868900000000        2.05062600000000        1.63079800000000
C           84.66115900000000       -0.00444600000000        0.00187500000000
C           85.46530000000000       -1.03601800000000       -0.90344100000000
C           84.95452999999999       -1.76722400000000       -1.96072000000000
C           85.99036899999999       -2.58451900000000       -2.45751300000000
C           87.11031199999998       -2.33057900000000       -1.68573700000000
N           86.79928200000001       -1.33365600000000       -0.79451400000000
C           88.51362999999999       -3.06496800000000       -1.82027800000000
C           88.51616700000000       -4.40904900000000       -2.43844700000000
C           88.98878400000000       -4.58186600000000       -3.74757900000000
C           88.99371600000001       -5.84589000000000       -4.33752500000000
C           88.51409600000000       -6.93429000000000       -3.61262800000000
O           88.49768000000000       -8.18711300000000       -4.15858400000000
C           88.02305299999999       -6.78126900000000       -2.32182100000000
C           88.02402299999999       -5.51586700000000       -1.73491000000000
C           89.64342299999998       -2.46444300000000       -1.36969500000000
C           90.93699500000000       -3.11220700000000       -1.43702300000000
C           91.84943199999999       -2.27532000000000       -0.94563100000000
N           89.84540600000000       -1.24454400000000       -0.79720600000000
C           91.17598700000001       -1.06065300000000       -0.53694600000000
C           91.83190499999999       -0.00444600000000        0.00187500000000
C           91.03189499999999        1.30085200000000        0.43267100000000
C           91.57686600000000        2.55263100000000        0.63536400000000
C           90.55565000000000        3.38500800000000        1.13434600000000
C           89.39429499999999        2.63662100000000        1.17092700000000
N           89.69177600000000        1.37446100000000        0.71796400000000
C           87.97850000000000        3.13522800000000        1.70634200000000
C           87.94877499999998        4.35230300000000        2.55119600000000
C           88.09710200000001        5.61251900000000        1.95993600000000
C           88.05732999999999        6.77112400000000        2.74093200000000
C           87.83174300000000        6.66565300000000        4.11191600000000
O           87.73724699999998        7.81331600000000        4.84433500000000
C           87.68885400000001        5.41866900000000        4.72087700000000
C           87.76007000000000        4.26221000000000        3.93795600000000
C           86.84125699999998        2.44686400000000        1.39416300000000
C           85.54178599999999        2.86441600000000        1.87825500000000
C           84.63558300000000        1.99312400000000        1.43235200000000
C           85.31343500000000        1.01160800000000        0.61761500000000
N           86.64267200000000        1.34297000000000        0.62978800000000
H           83.94022699999999       -1.72492300000000       -2.32318800000000
H           85.93168399999999       -3.29747400000000       -3.27263300000000
H           87.46372300000000       -0.87222900000000       -0.17712900000000
H           89.35837599999999       -3.71555800000000       -4.29682500000000
H           89.38662600000001       -5.95011400000000       -5.33624700000000
H           88.79885399999999       -8.10234000000000       -5.07718200000000
H           87.63585399999998       -7.63427000000000       -1.78236800000000
H           87.64051300000000       -5.37243400000000       -0.72679900000000
H           91.14545599999998       -4.10188700000000       -1.81095100000000
H           92.89866900000000       -2.49067900000000       -0.86620500000000
H           92.61061200000000        2.82669100000000        0.49128300000000
H           90.66156800000000        4.41362800000000        1.45626500000000
H           89.01919899999999        0.62475100000000        0.60588300000000
H           88.24525000000000        5.67694400000000        0.88395200000000
H           88.18268599999999        7.74573600000000        2.28672300000000
H           87.12499300000000        7.61665100000000        5.58094600000000
H           87.52319000000000        5.32603600000000        5.78611000000000
H           87.64505800000001        3.28010000000000        4.38644700000000
H           85.32565300000000        3.72293600000000        2.48933500000000
H           83.57959400000000        2.05062600000000        1.63079800000000
C          103.65206400000000       -0.00444600000000        0.00187500000000
C          104.45620599999998       -1.03601800000000       -0.90344100000000
C          103.94543499999999       -1.76722400000000       -1.96072000000000
C          104.98127399999998       -2.58451900000000       -2.45751300000000
C          106.10121800000000       -2.33057900000000       -1.68573700000000
N          105.79018700000000       -1.33365600000000       -0.79451400000000
C          107.50453499999999       -3.06496800000000       -1.82027800000000
C          107.50707199999999       -4.40904900000000       -2.43844700000000
C          107.97968999999999       -4.58186600000000       -3.74757900000000
C          107.98462100000000       -5.84589000000000       -4.33752500000000
C          107.50500099999999       -6.93429000000000       -3.61262800000000
O          107.48858500000000       -8.18711300000000       -4.15858400000000
C          107.01395799999999       -6.78126900000000       -2.32182100000000
C          107.01492799999998       -5.51586700000000       -1.73491000000000
C          108.63432799999998       -2.46444300000000       -1.36969500000000
C          109.92790100000001       -3.11220700000000       -1.43702300000000
C          110.84033699999999       -2.27532000000000       -0.94563100000000
N          108.83631200000001       -1.24454400000000       -0.79720600000000
C          110.16689200000000       -1.06065300000000       -0.53694600000000
C          110.82281100000000       -0.00444600000000        0.00187500000000
C          110.02279999999999        1.30085200000000        0.43267100000000
C          110.56777099999999        2.55263100000000        0.63536400000000
C          109.54655500000000        3.38500800000000        1.13434600000000
C          108.38520099999998        2.63662100000000        1.17092700000000
N          108.68268200000000        1.37446100000000        0.71796400000000
C          106.96940499999999        3.13522800000000        1.70634200000000
C          106.93967999999998        4.35230300000000        2.55119600000000
C          107.08800700000000        5.61251900000000        1.95993600000000
C          107.04823500000001        6.77112400000000        2.74093200000000
C          106.82264800000000        6.66565300000000        4.11191600000000
O          106.72815199999998        7.81331600000000        4.84433500000000
C          106.67975900000000        5.41866900000000        4.72087700000000
C          106.75097500000000        4.26221000000000        3.93795600000000
C          105.83216199999998        2.44686400000000        1.39416300000000
C          104.53269099999999        2.86441600000000        1.87825500000000
C          103.62648799999999        1.99312400000000        1.43235200000000
C          104.30434000000000        1.01160800000000        0.61761500000000
N          105.63357699999999        1.34297000000000        0.62978800000000
H          102.93113200000001       -1.72492300000000       -2.32318800000000
H          104.92258899999999       -3.29747400000000       -3.27263300000000
H          106.45462800000000       -0.87222900000000       -0.17712900000000
H          108.34928199999999       -3.71555800000000       -4.29682500000000
H          108.37753200000000       -5.95011400000000       -5.33624700000000
H          107.78975900000000       -8.10234000000000       -5.07718200000000
H          106.62675899999999       -7.63427000000000       -1.78236800000000
H          106.63141899999999       -5.37243400000000       -0.72679900000000
H          110.13636199999999       -4.10188700000000       -1.81095100000000
H          111.88957499999999       -2.49067900000000       -0.86620500000000
H          111.60151700000000        2.82669100000000        0.49128300000000
H          109.65247300000000        4.41362800000000        1.45626500000000
H          108.01010499999998        0.62475100000000        0.60588300000000
H          107.23615500000000        5.67694400000000        0.88395200000000
H          107.17359099999999        7.74573600000000        2.28672300000000
H          106.11589800000000        7.61665100000000        5.58094600000000
H          106.51409600000000        5.32603600000000        5.78611000000000
H          106.63596300000000        3.28010000000000        4.38644700000000
H          104.31655800000000        3.72293600000000        2.48933500000000
H          102.57050000000000        2.05062600000000        1.63079800000000
324
 energy: -569.766745029149 gnorm: 0.716999114368 xtb: 6.5.1 (b24c23e)
C           45.25290768652253        0.03148221096388        0.04949397568336
C           45.95977103624428        1.19380625843621       -0.62728891823349
C           45.35192211052647        2.23582540341583       -1.31643035485458
C           46.36753626300490        3.12280468297776       -1.73198487154168
C           47.58907149291266        2.61896762177463       -1.28891833891772
N           47.31857748221145        1.42231475411212       -0.65797659899302
C           48.97893279893468        3.27651085583226       -1.43892248309883
C           49.04297871614362        4.68332857978221       -1.93269068823466
C           49.31257316242881        4.94640412486482       -3.28199078996221
C           49.34839421205288        6.25583168791156       -3.75567317431540
C           49.11457511241313        7.31019734822913       -2.87328646611814
O           49.14276757223615        8.60458479692692       -3.30244632429143
C           48.84711747357021        7.06676364304018       -1.52865246586632
C           48.81280440965315        5.75531358679730       -1.06065171220536
C           50.13409304528736        2.60502856288727       -1.10661684833282
C           51.44112623510004        3.23013189502948       -1.17464696223137
C           52.34763667269802        2.33883626634448       -0.76957546921345
N           50.31784900663001        1.32460360451404       -0.66065576196590
C           51.65803477390448        1.10219900941565       -0.44178073649599
C           52.30141269129869       -0.01990673012891        0.00161444641662
C           51.55180187770315       -1.32911521431294        0.30496809137436
C           52.08226186120457       -2.61854823706578        0.31006568706488
C           51.06241374014111       -3.51260205643196        0.69495022341328
C           49.90696838832993       -2.77006954157975        0.91763318772301
N           50.21443925487056       -1.45424392657566        0.63222451303544
C           48.53368838103807       -3.31342079904688        1.37806811664930
C           48.48277964533289       -4.63535757778439        2.06452742848533
C           48.85768727782305       -4.74976177942418        3.40936744754787
C           48.83757046551840       -5.98845209282644        4.04606697418259
C           48.44090471293040       -7.11958860158976        3.33761118568763
O           48.43079342218562       -8.31876382402685        3.98756563874680
C           48.06364058897257       -7.02539889916581        1.99836953558883
C           48.08541262688961       -5.78384800002038        1.36731746320503
C           47.38628924847205       -2.59072775306947        1.15794163972849
C           46.06722830864931       -3.04100556320772        1.57623553992021
C           45.17932506935334       -2.11999895593399        1.19877738385717
C           45.90791169107334       -1.05690796146988        0.54153524722387
N           47.23051137179428       -1.37852537662996        0.54735087373769
H           44.16817877844265        0.07135482397300        0.16459269003209
H           44.28889020959041        2.33580294414815       -1.47936198383322
H           46.23725484086981        4.04513822171817       -2.27849119787287
H           48.02170631780213        0.80084667846068       -0.26884619199634
H           49.49481120053686        4.11094197172194       -3.95446349516812
H           49.55908463275945        6.43145492612556       -4.80581155231518
H           49.35951913948747        8.59602435693748       -4.24642160984032
H           48.66740207100219        7.89350696306266       -0.84927952496413
H           48.60780566064588        5.54989722024503       -0.01243332730088
H           51.65341720551503        4.23756322890156       -1.47867462401225
H           53.40218937509911        2.52491674529471       -0.70815820636669
H           53.10250985036333       -2.87363450601736        0.06509831412845
H           51.14353902710864       -4.58429726484697        0.80477110228673
H           49.53491417270340       -0.70020918715870        0.60876222844829
H           49.16441692272499       -3.85790118904396        3.95114320129299
H           49.12986957080046       -6.07127152548788        5.08771435728857
H           48.12265311206413       -8.98967117935286        3.36069847871612
H           47.75203411447156       -7.89872842902761        1.43432328050342
H           47.79375188619898       -5.69022009128338        0.32344868678047
H           45.84173034869519       -3.94866511906925        2.10169983012562