134
 energy: -245.810950311400 gnorm: 1.055311341800 xtb: 6.5.1 (b24c23e)
C           11.83347900000000       -0.00175400000000        0.06229700000000
C           12.56387600000000       -1.37934600000000        0.03308200000000
C           11.95859000000000       -2.61195100000000        0.12337600000000
C           12.98155600000000       -3.58773100000000       -0.00012900000000
C           14.17738000000000       -2.91618200000000       -0.16640600000000
N           13.91643600000000       -1.57065600000000       -0.09120300000000
C           15.59944300000000       -3.56608400000000       -0.42621000000000
C           16.72845400000000       -2.80902100000000       -0.37782500000000
C           18.03240200000000       -3.36072000000000       -0.68419800000000
C           18.93256100000000       -2.38987700000000       -0.58427700000000
N           16.92320200000000       -1.48501100000000       -0.08550500000000
C           18.25313100000000       -1.17065700000000       -0.19249700000000
C           18.91940200000000       -0.00096000000000       -0.00067100000000
C           18.14207700000000        1.30339800000000        0.46075100000000
C           18.68421000000000        2.37778200000000        1.13812400000000
C           17.65862500000000        3.34209600000000        1.30156900000000
C           16.51591600000000        2.82482100000000        0.73017400000000
C           15.10460600000000        3.54172200000000        0.64099700000000
C           15.06799400000000        5.01640400000000        0.74701000000000
C           15.37775400000000        5.81043400000000       -0.36302400000000
C           15.35130100000000        7.20370000000000       -0.26190600000000
C           15.01593700000000        7.81179300000000        0.95479900000000
C           14.99806700000000        9.29293800000000        1.01924200000000
O           14.67075000000000        9.76389400000000        2.23775300000000
O           15.24344600000000       10.06125000000000        0.10651100000000
C           14.70790800000000        7.02000000000000        2.06877000000000
C           14.73556600000000        5.62755700000000        1.96243400000000
C           13.98022400000000        2.80074100000000        0.46309700000000
C           12.65716600000000        3.39050900000000        0.35991400000000
C           11.77323200000000        2.40892600000000        0.20627400000000
C           12.49684700000000        1.16154300000000        0.19936800000000
N           13.81785200000000        1.44894100000000        0.34368900000000
N           16.80705500000000        1.56313100000000        0.26726800000000
C           15.63756900000000       -5.00538800000000       -0.77374400000000
C           15.37076600000000       -5.41898000000000       -2.08412300000000
C           15.38926800000000       -6.77662400000000       -2.41373100000000
C           15.67845700000000       -7.73073900000000       -1.42910200000000
C           15.70982100000000       -9.18212100000000       -1.73006500000000
O           15.44318000000000       -9.46000500000000       -3.02001900000000
O           15.94447600000000      -10.08005300000000       -0.94087900000000
C           15.94724000000000       -7.32004200000000       -0.11706000000000
C           15.92374200000000       -5.96168900000000        0.20779500000000
H           10.75543500000000        0.00351800000000       -0.04411700000000
H           10.90120200000000       -2.78892100000000        0.24601000000000
H           12.85496300000000       -4.66009600000000        0.00597800000000
H           14.61601500000000       -0.83327400000000       -0.12718600000000
H           18.24612500000000       -4.37741400000000       -0.96113600000000
H           19.98514600000000       -2.51243400000000       -0.76334600000000
H           19.70751200000000        2.46678900000000        1.46944300000000
H           17.74608900000000        4.30578900000000        1.77946500000000
H           15.63542000000000        5.32871700000000       -1.30412500000000
H           15.59171600000000        7.80401500000000       -1.13552100000000
H           14.70153400000000       10.73375200000000        2.11702100000000
H           14.44309700000000        7.46811700000000        3.02142500000000
H           14.49505700000000        5.00152200000000        2.81963900000000
H           12.42540900000000        4.43918200000000        0.39856200000000
H           10.70934600000000        2.51853400000000        0.10028800000000
H           16.12308600000000        0.90959500000000       -0.10501600000000
H           15.15056300000000       -4.66861100000000       -2.84056800000000
H           15.17727700000000       -7.07054600000000       -3.43745600000000
H           15.50236600000000      -10.43573400000000       -3.05419400000000
H           16.17651700000000       -8.04749500000000        0.65753100000000
H           16.13042700000000       -5.63147300000000        1.22327900000000
C           37.28913600000000       -0.02848300000000        0.05596900000000
C           36.55873900000000        1.21598100000000        0.64751300000000
C           37.16402500000000        2.27726400000000        1.28087300000000
C           36.14106000000000        3.20484300000000        1.60797800000000
C           34.94523500000000        2.67912800000000        1.15825500000000
N           35.20617899999999        1.44270900000000        0.62219500000000
C           33.52317200000000        3.37653100000000        1.21741900000000
C           32.39416100000000        2.67813400000000        0.92123100000000
C           31.09021299999999        3.30863800000000        0.89473900000000
C           30.19005400000000        2.39604600000000        0.54876600000000
N           32.19941300000000        1.36359900000000        0.58888900000000
C           30.86948400000000        1.13058400000000        0.35231000000000
C           30.20321400000000       -0.00096000000000       -0.00067100000000
C           30.98053800000000       -1.37374800000000       -0.17305000000000
C           30.43840500000000       -2.63779600000000       -0.04928900000000
C           31.46399000000000       -3.57303300000000       -0.33555200000000
C           32.60669900000000       -2.85447400000000       -0.61437100000000
C           34.01800900000000       -3.45529600000000       -1.01551200000000
C           34.05462200000000       -4.82097600000000       -1.58194000000000
C           33.74486100000000       -5.03302700000000       -2.93015900000000
C           33.77131400000000       -6.32373900000000       -3.46445900000000
C           34.10667800000000       -7.41280700000000       -2.64954800000000
C           34.12454800000000       -8.76562700000000       -3.25603200000000
O           34.45186500000000       -9.73292500000000       -2.37802000000000
O           33.87916899999999       -9.04315300000000       -4.41636000000000
C           34.41470800000000       -7.20452100000000       -1.29881300000000
C           34.38704900000000       -5.91220500000000       -0.76954600000000
C           35.14239100000000       -2.71320500000000       -0.84230200000000
C           36.46544900000000       -3.19410700000000       -1.19896000000000
C           37.34938300000000       -2.24782900000000       -0.89619000000000
C           36.62576799999999       -1.12975600000000       -0.34308600000000
N           35.30476299999999       -1.45135500000000       -0.34294200000000
N           32.31556000000000       -1.51916100000000       -0.46244900000000
C           33.48504600000000        4.81887800000000        1.55210100000000
C           33.75184900000000        5.77609000000000        0.56625300000000
C           33.73334700000000        7.13740700000000        0.88034500000000
C           33.44415800000000        7.54877800000000        2.18824700000000
C           33.41279400000000        8.98103900000000        2.56997100000000
O           33.67943600000000        9.80779000000000        1.54153400000000
O           33.17813900000000        9.42981900000000        3.67798500000000
C           33.17537500000000        6.59340800000000        3.17687900000000
C           33.19887300000000        5.23358700000000        2.85822000000000
H           38.36717999999999        0.01451600000000       -0.04151300000000
H           38.22141299999999        2.38046500000000        1.46983600000000
H           36.26765200000000        4.16064100000000        2.09424300000000
H           34.50660000000000        0.79973000000000        0.25941900000000
H           30.87649000000000        4.34158000000000        1.10304200000000
H           29.13746900000000        2.58588200000000        0.44365500000000
H           29.41510300000000       -2.86590500000000        0.20695500000000
H           31.37652600000000       -4.64870300000000       -0.34046500000000
H           33.48719600000000       -4.18049100000000       -3.55538200000000
H           33.53089900000000       -6.46863900000000       -4.51449900000000
H           34.42108200000000      -10.54570300000000       -2.92078300000000
H           34.67951800000000       -8.03220400000000       -0.64819800000000
H           34.62755799999999       -5.73695800000000        0.27735800000000
H           36.69720600000000       -4.14879500000000       -1.63459800000000
H           38.41326899999999       -2.29828300000000       -1.04006900000000
H           32.99952900000000       -0.76807800000000       -0.50219700000000
H           33.97205200000000        5.44453000000000       -0.44633300000000
H           33.94533900000000        7.85912800000000        0.09706900000000
H           33.62024900000000       10.69527200000000        1.94846500000000
H           32.94609800000000        6.89634800000000        4.19541000000000
H           32.99218800000000        4.48312000000000        3.61785800000000
C           20.05900300000000        0.01511900000000        0.01057600000000
C           21.51722900000000       -0.00671700000000       -0.00729700000000
C           22.65115700000000       -0.02747100000000       -0.00878800000000
C           24.01253900000000       -0.04006100000000       -0.01097900000000
C           25.28675800000000       -0.02975400000000       -0.01574400000000
C           26.47522000000000       -0.01095600000000       -0.02190000000000
C           27.82758100000000        0.01382800000000       -0.00603300000000
C           28.92784800000000        0.01511900000000        0.01057600000000
134
 energy: -246.069436711376 gnorm: 0.385506736950 xtb: 6.5.1 (b24c23e)
C           11.85634009539508       -0.03147234576193        0.06169665742693
C           12.56042483639588       -1.36373680495026        0.03463879284519
C           11.96286746630184       -2.61594318320095        0.11969542348353
C           12.98005680651699       -3.58541264108661       -0.00384546778752
C           14.19332916707005       -2.92009331722638       -0.16795928520543
N           13.91703538034810       -1.57032909415326       -0.09403365798074
C           15.57032753985611       -3.54758321720481       -0.42034972895112
C           16.72635267857275       -2.80965099048789       -0.37814012100490
C           18.03040027139385       -3.37217587156019       -0.68674021942458
C           18.93330638644141       -2.39175534310914       -0.58528370965553
N           16.90816299872073       -1.47872783507026       -0.08554502257994
C           18.21388519217600       -1.19294013149915       -0.19955919115807
C           18.86354387223161        0.02122600487960        0.01660849100416
C           18.12937977851467        1.30175622360730        0.46338995299143
C           18.67980520532372        2.38130672673787        1.13455477942043
C           17.65851336644145        3.34212878949849        1.29764393791192
C           16.49803168711561        2.83198720366806        0.72988165045608
C           15.13162704999595        3.52253325739528        0.64126396354008
C           15.07690428389010        5.00930437616400        0.74890216593712
C           15.37890636128569        5.80968513306894       -0.36032870452017
C           15.35050879531093        7.19792372900810       -0.26093605560486
C           15.01645529720369        7.80947401718283        0.95296650143184
C           14.99836989953574        9.29238719824962        1.01883592817273
O           14.67170368254810        9.76703177354380        2.23378508977822
O           15.24275179609782       10.05128439031614        0.10898248870045
C           14.70808498138080        7.01590239189249        2.06546836554883
C           14.73586324646203        5.62755084389918        1.95959487285955
C           13.97927276523984        2.79524682708476        0.46077406251047
C           12.65545295018549        3.39881628864491        0.36070407315840
C           11.76768471950935        2.41310181846494        0.20594229027924
C           12.50420190607118        1.16301054213186        0.19796879064467
N           13.82873154722629        1.44123609307087        0.34320905210542
N           16.80039327018488        1.56856003679273        0.26522287533907
C           15.62830008862129       -4.99902953584231       -0.77005959356849
C           15.36980663448600       -5.41963497679389       -2.08098211943961
C           15.39042739505856       -6.77304815410548       -2.40993741481107
C           15.67873583475019       -7.72862020731883       -1.42685846569052
C           15.70984273547021       -9.18184427264617       -1.72947354726651
O           15.44421806352620       -9.46371872796157       -3.01658176955147
O           15.94361087561443      -10.06973888625191       -0.94189730161689
C           15.94730912419846       -7.31401899490961       -0.11738113405481
C           15.92326146865674       -5.96013650801327        0.20581935346131
H           10.76922831291750       -0.00936419788971       -0.04155120898343
H           10.90454849778607       -2.79179453136301        0.24555977885871
H           12.85354853370728       -4.65796958620605        0.00611977603747
H           14.61519668947429       -0.83431922343321       -0.12753797278434
H           18.24315550621199       -4.38609148457410       -0.96267376428833
H           19.98930722940320       -2.50534023264787       -0.76212037303376
H           19.70466192734380        2.46700613546135        1.46768836071641
H           17.74796390264922        4.30422755968120        1.77848213503737
H           15.63526367383788        5.33089738014797       -1.30204222745379
H           15.59057173301445        7.80346227470072       -1.13189962404277
H           14.70008513383631       10.73464286931828        2.12255932522258
H           14.44422583021286        7.46822738340727        3.01769615349565
H           14.49594456081303        5.00451526800595        2.81794239373690
H           12.42822436310901        4.44703314811114        0.39967767378448
H           10.70368741621198        2.51706426270834        0.09982610183936
H           16.12243030787548        0.91171192239149       -0.10500043483262
H           15.15061701900235       -4.67184194569831       -2.83928315819629
H           15.17844075297482       -7.07117134885295       -3.43353356356720
H           15.50108264447974      -10.43569199812181       -3.05990639571670
H           16.17550387801206       -8.04629634760135        0.65388907341837
H           16.12976906561041       -5.63320626890856        1.22129830505802
C           37.26595330030450       -0.00113884426141        0.06906995621177
C           36.56230220910831        1.20083755545759        0.64160353759568
C           37.15976918147928        2.28283291635543        1.27937217497560
C           36.14302696209457        3.20427919628739        1.60354435491212
C           34.92881889423832        2.68311148861068        1.15832419520821
N           35.20533498244636        1.44366433479418        0.61966967886914
C           33.55314999281615        3.35735285520663        1.21454335298241
C           32.39639363369817        2.67676758401146        0.92047050436545
C           31.09039995908579        3.31836752958451        0.89699558279416
C           30.18793929853228        2.39771459559980        0.54908367134331
N           32.21826920032132        1.36029595630056        0.58579053092411
C           30.90628528142130        1.14619775024940        0.35438642278878
C           30.28284876025945       -0.02945628069012        0.00414504436748
C           30.98905694199599       -1.36667059658131       -0.16975558856546
C           30.44187648262917       -2.63950552644945       -0.05499935671725
C           31.46230441456918       -3.57060732490401       -0.33890886785130
C           32.62462646811298       -2.85940724220037       -0.61788087345086
C           33.98947585959166       -3.43776402041904       -1.00634226357306
C           34.04547839429488       -4.81539240797875       -1.57688826701675
C           33.74374846793295       -5.03350514801868       -2.92734255080647
C           33.77213596236356       -6.31899085622215       -3.46097312063290
C           34.10616086335567       -7.40989026575704       -2.65013635208824
C           34.12424740154054       -8.76497613953895       -3.25615762586835
O           34.45090518297607       -9.73393557022887       -2.38298122361807
O           33.87986259469514       -9.03533992487294       -4.40966788388446
C           34.41453428415684       -7.19936407909970       -1.29992960209130
C           34.38672304267064       -5.91088806292983       -0.77205435034275
C           35.14325055652082       -2.70672814746479       -0.84201634865684
C           36.46699943931826       -3.20186038171006       -1.20193972660012
C           37.35493073991137       -2.25132986004650       -0.89832226107540
C           36.61828087679056       -1.13046189841842       -0.34504766893605
N           35.29402235284523       -1.44448877867763       -0.34006449225595
N           32.32064193544275       -1.52181609790188       -0.46538935618821
C           33.49444610628542        4.81156115827310        1.55261820613773
C           33.75282184430063        5.77533729361618        0.56941159746502
C           33.73219483565679        7.13255487550324        0.88211093640055
C           33.44387339048745        7.54592456324942        2.18931392393820
C           33.41276388923215        8.98043692114011        2.57035957373219
O           33.67841676063589        9.80961463077315        1.54624287833121
O           33.17900937687322        9.42111455648727        3.67247754980996
C           33.17524819197960        6.58820027043370        3.17392941296411
C           33.19930511465533        5.23318337712463        2.85576631247470
H           38.35324082551595        0.02495972161664       -0.03330532775849
H           38.21810095511736        2.38331220531189        1.47077472211016
H           36.26919608126831        4.15857134451471        2.09342349429422
H           34.50712126133462        0.80091226593525        0.25963662089700
H           30.87918701009272        4.34936137368823        1.10538577390998
H           29.13288113162706        2.57992285176348        0.44169841314293
H           29.41783074584388       -2.86608472014197        0.20539805754921
H           31.37443991399261       -4.64662600323848       -0.34042687449913
H           33.48734336715422       -4.18336292390937       -3.55447580587272
H           33.53204099021720       -6.46975605332296       -4.51099286576532
H           34.42253415633270      -10.54898565805923       -2.91622816263860
H           34.67839175001942       -8.03062455356964       -0.65158495008357
H           34.62665908288364       -5.73887557618229        0.27451619547874
H           36.69431598141760       -4.15629281892424       -1.63709434284443
H           38.41892059303592       -2.29674364975790       -1.03981437043224
H           32.99981499092459       -0.76974929307035       -0.50288214000001
H           33.97200161876247        5.44684767398629       -0.44370107166024
H           33.94417424434467        7.85796753371196        0.10084265624568
H           33.62152229221785       10.69778640584485        1.94335705294902
H           32.94711299518977        6.89694252016492        4.19164863208772
H           32.99285553738848        4.48558238317120        3.61685435761015
C           20.14659659099392        0.03483775789353        0.01190905482245
C           21.45529345810210       -0.00381356839685       -0.00778888432988
C           22.69949270283190       -0.02793956712775       -0.00851685832762
C           23.98456575760150       -0.04087378725902       -0.01124011822113
C           25.25044717583452       -0.02972922374869       -0.01540698166947
C           26.47513213126064       -0.00872922005169       -0.02285530692731
C           27.75979643735579        0.00748539667128       -0.01000782488807
C           28.97560031390260       -0.00152743698468        0.00739883300766
134
 energy: -246.155157454159 gnorm: 0.161928459656 xtb: 6.5.1 (b24c23e)
C           11.90035635986479       -0.07122509222305        0.06200568873810
C           12.56432457127351       -1.34725137579254        0.03541239897928
C           11.97282105636795       -2.62161635357596        0.11002950225739
C           12.97860294774216       -3.57983069919308       -0.01310942114451
C           14.21307446509619       -2.92065998402019       -0.17148927636012
N           13.92278650393673       -1.56927267101340       -0.09676830572107
C           15.52868619951377       -3.51771263550508       -0.41172428280382
C           16.71935511944768       -2.80346317080609       -0.38069698722646
C           18.02459593726125       -3.37838973865422       -0.68870636224672
C           18.93297745641642       -2.38988628099528       -0.58636117265764
N           16.89467795928202       -1.46691701963223       -0.09295665642113
C           18.19577424330868       -1.19381044866595       -0.20218058432404
C           18.83633589894409        0.05074639870763        0.05055082448844
C           18.12441553376858        1.28396711071352        0.46193416369940
C           18.67269828705733        2.38754820923212        1.12400109486281
C           17.66098949707507        3.34113819682584        1.28528747475744
C           16.47754487389911        2.83508527473100        0.72609220152493
C           15.17095482782160        3.49169300345932        0.64116216361107
C           15.09778437983872        4.99229814433612        0.75364339001067
C           15.38412308400117        5.80212345003295       -0.35464154037556
C           15.34872082731288        7.18691468471562       -0.25833941649416
C           15.01669718051416        7.80293600170232        0.95160586912238
C           14.99869789808068        9.28775336447687        1.01878490776134
O           14.67252789959084        9.76892683313992        2.23009632371501
O           15.24369374155009       10.03478182066590        0.10576044708172
C           14.70778857972376        7.00677733066531        2.05953528917655
C           14.74004592010287        5.62133497103303        1.95503258085699
C           13.98413907939780        2.78735536082961        0.45445252991204
C           12.65968566279738        3.40515841564638        0.36143327413533
C           11.76740981674352        2.41330637817831        0.20503775846870
C           12.51885510094575        1.16172844578434        0.19358063433218
N           13.84340897278253        1.43400985662998        0.33876009908361
N           16.79446669721357        1.56734358519941        0.26506421751062
C           15.60536085214165       -4.98403002615079       -0.76095668736258
C           15.36429717116073       -5.41541573513062       -2.07296887276449
C           15.39263669702277       -6.76507629721281       -2.40318141018896
C           15.67896010697498       -7.72231429522847       -1.42430088300334
C           15.70957010424263       -9.17729628195608       -1.72841679739474
O           15.44503832938677       -9.46608394090058       -3.01331001460646
O           15.94388187813047      -10.05411026387339       -0.93611627763614
C           15.94798777845832       -7.30218910979447       -0.11866299468349
C           15.91853278913722       -5.95166537367287        0.20438383730252
H           10.80749387514960       -0.04137845545103       -0.03235206583215
H           10.91434702650964       -2.79759785467000        0.24342147606287
H           12.85103951496565       -4.65242127290637        0.00537917755752
H           14.61910811961386       -0.83401725547336       -0.12778943624816
H           18.23229318220319       -4.39691821183926       -0.96272367726553
H           19.99227696457003       -2.49296997986634       -0.75905836630483
H           19.69596478159038        2.47045432075492        1.46365110124941
H           17.75152362873062        4.30000990334943        1.77414973507068
H           15.63705115682395        5.33169863137807       -1.29934211784521
H           15.58736659650348        7.79976212338701       -1.12470615087031
H           14.69727916582354       10.73616621050805        2.13332185965624
H           14.44573244847254        7.46592236177710        3.00923584298862
H           14.49799302531681        5.00682566201343        2.81638249173906
H           12.43831694991309        4.45716325486031        0.40271095995761
H           10.69959169611636        2.51034192603087        0.09986566482797
H           16.11923295409803        0.91089202751708       -0.10505522424377
H           15.14866583742318       -4.67496313432480       -2.83709184089603
H           15.18189621605483       -7.07020991710387       -3.42501033389100
H           15.49860656664602      -10.43535987552166       -3.07096709372602
H           16.17431825620664       -8.04116061884832        0.64679848048051
H           16.12790086811034       -5.63340278292111        1.22011212756489
C           37.22185998958244        0.03422339280231        0.08711261630036
C           36.55835890203809        1.18582057481769        0.63498634094669
C           37.14985151884871        2.29223850043477        1.27331820667009
C           36.14495347190640        3.20363026643150        1.59278738996283
C           34.90952189707450        2.68586703385810        1.15557792985177
N           35.19967486862560        1.44418705077502        0.61695464668281
C           33.59744041948264        3.32964496754688        1.20988708051770
C           32.40707998861031        2.67686936172350        0.91690311313419
C           31.09884329540353        3.32698938994766        0.89898815394597
C           30.19388106652030        2.39631827344729        0.54775037991987
N           32.24283341286782        1.35966281175242        0.57553223976733
C           30.94164105083419        1.15619479910335        0.35254713145484
C           30.33922407928305       -0.07331530779449        0.01959841533222
C           31.00594419762708       -1.35635246253543       -0.16271365432685
C           30.45222932561200       -2.64085587194412       -0.06723686741126
C           31.46129197315136       -3.56518674387252       -0.34995703608862
C           32.64795204023294       -2.86375263721706       -0.62321309484629
C           33.95191365151933       -3.41108933845752       -0.99295257965985
C           34.02502032981022       -4.80274508800444       -1.56524179067559
C           33.73854358811321       -5.02943485982514       -2.91894715803997
C           33.77393555470366       -6.31038362275541       -3.45378099531539
C           34.10593297913505       -7.40348444856660       -2.64843794240437
C           34.12390616445270       -8.76083770851309       -3.25412915291786
O           34.45007695754270       -9.73399333553790       -2.38712485970258
O           33.87890912400525       -9.01915934291884       -4.40517071006110
C           34.41488131218811       -7.18866829239851       -1.30115046881791
C           34.38261572761468       -5.90349042463031       -0.77334975009376
C           35.13892457261851       -2.69715573580987       -0.84414305826162
C           36.46311220590938       -3.20788916148251       -1.20420045968219
C           37.35529198465526       -2.25106662149999       -0.89921666542771
C           36.60357698743958       -1.12730164042088       -0.34840907127801
N           35.27925357825479       -1.43605506324236       -0.34089819749266
N           32.33420523067202       -1.52507365195191       -0.46621633039635
C           33.51825927829166        4.79545865950935        1.55453982845609
C           33.75851641046732        5.76856313402913        0.57465176814409
C           33.72994270589917        7.12279832845586        0.88456127085497
C           33.44363524763740        7.53933015011818        2.18882726822493
C           33.41305110028522        8.97603950551263        2.56931905844073
O           33.67758327847447        9.81030023205907        1.55025811544220
O           33.17873624104376        9.40461554856958        3.67062902839680
C           33.17450142810478        6.57854094490579        3.16766047360967
C           33.20413827847184        5.22672949992053        2.85102890241439
H           38.31486475596189        0.04937613023357       -0.01069145333285
H           38.20836063848841        2.38931980400848        1.47142807861333
H           36.27195840402548        4.15406855650799        2.09033909932686
H           34.50326124365792        0.80097710967683        0.25937954281884
H           30.88992813253668        4.35993967377808        1.11055959001151
H           29.13341930059417        2.56440643470662        0.43879547201777
H           29.42801999984351       -2.86524861837838        0.19989195526165
H           31.37058391534895       -4.64132363578325       -0.34256272294878