      -----------------------------------------------------------      
     |                   =====================                   |     
     |                           x T B                           |     
     |                   =====================                   |     
     |                         S. Grimme                         |     
     |          Mulliken Center for Theoretical Chemistry        |     
     |                    University of Bonn                     |     
      -----------------------------------------------------------      

   * xtb version 6.5.1 (b24c23e) compiled by 'conda@728c89f4b128' on 2022-07-12

   xtb is free software: you can redistribute it and/or modify it under
   the terms of the GNU Lesser General Public License as published by
   the Free Software Foundation, either version 3 of the License, or
   (at your option) any later version.
   
   xtb is distributed in the hope that it will be useful,
   but WITHOUT ANY WARRANTY; without even the implied warranty of
   MERCHANTABILITY or FITNESS FOR A PARTICULAR PURPOSE.  See the
   GNU Lesser General Public License for more details.
   
   Cite this work as:
   * C. Bannwarth, E. Caldeweyher, S. Ehlert, A. Hansen, P. Pracht,
     J. Seibert, S. Spicher, S. Grimme, WIREs Comput. Mol. Sci., 2020, 11,
     e01493. DOI: 10.1002/wcms.1493
   
   for GFN2-xTB:
   * C. Bannwarth, S. Ehlert and S. Grimme., J. Chem. Theory Comput., 2019,
     15, 1652-1671. DOI: 10.1021/acs.jctc.8b01176
   for GFN1-xTB:
   * S. Grimme, C. Bannwarth, P. Shushkov, J. Chem. Theory Comput., 2017,
     13, 1989-2009. DOI: 10.1021/acs.jctc.7b00118
   for GFN0-xTB:
   * P. Pracht, E. Caldeweyher, S. Ehlert, S. Grimme, ChemRxiv, 2019, preprint.
     DOI: 10.26434/chemrxiv.8326202.v1
   for GFN-FF:
   * S. Spicher and S. Grimme, Angew. Chem. Int. Ed., 2020, 59, 15665-15673.
     DOI: 10.1002/anie.202004239
   
   for ALPB and GBSA implicit solvation:
   * S. Ehlert, M. Stahn, S. Spicher, S. Grimme, J. Chem. Theory Comput.,
     2021, 17, 4250-4261. DOI: 10.1021/acs.jctc.1c00471
   
   for DFT-D4:
   * E. Caldeweyher, C. Bannwarth and S. Grimme, J. Chem. Phys., 2017,
     147, 034112. DOI: 10.1063/1.4993215
   * E. Caldeweyher, S. Ehlert, A. Hansen, H. Neugebauer, S. Spicher,
     C. Bannwarth and S. Grimme, J. Chem. Phys., 2019, 150, 154122.
     DOI: 10.1063/1.5090222
   * E. Caldeweyher, J.-M. Mewes, S. Ehlert and S. Grimme, Phys. Chem. Chem. Phys.
     2020, 22, 8499-8512. DOI: 10.1039/D0CP00502A
   
   for sTDA-xTB:
   * S. Grimme and C. Bannwarth, J. Chem. Phys., 2016, 145, 054103.
     DOI: 10.1063/1.4959605
   
   in the mass-spec context:
   * V. Asgeirsson, C. Bauer and S. Grimme, Chem. Sci., 2017, 8, 4879.
     DOI: 10.1039/c7sc00601b
   * J. Koopman and S. Grimme, ACS Omega 2019, 4, 12, 15120-15133.
     DOI: 10.1021/acsomega.9b02011
   
   for metadynamics refer to:
   * S. Grimme, J. Chem. Theory Comput., 2019, 155, 2847-2862
     DOI: 10.1021/acs.jctc.9b00143
   
   for SPH calculations refer to:
   * S. Spicher and S. Grimme, J. Chem. Theory Comput., 2021, 17, 1701-1714
     DOI: 10.1021/acs.jctc.0c01306
   
   with help from (in alphabetical order)
   P. Atkinson, C. Bannwarth, F. Bohle, G. Brandenburg, E. Caldeweyher
   M. Checinski, S. Dohm, S. Ehlert, S. Ehrlich, I. Gerasimov, C. Hölzer
   A. Katbashev, J. Koopman, C. Lavigne, S. Lehtola, F. März, M. Müller,
   F. Musil, H. Neugebauer, J. Pisarek, C. Plett, P. Pracht, F. Pultar,
   J. Seibert, P. Shushkov, S. Spicher, M. Stahn, M. Steiner, T. Strunk,
   J. Stückrath, T. Rose, and J. Unsleber
   
 * started run on 2022/07/30 at 09:36:34.772     

           -------------------------------------------------
          |                Calculation Setup                |
           -------------------------------------------------

          program call               : xtb xtbopt.xyz --gfn 1 --vipea
          hostname                   : cx3-15-11.cx3.hpc.ic.ac.uk
          coordinate file            : xtbopt.xyz
          omp threads                :                     1

   ID    Z sym.   atoms
    1   30 Zn     1, 61, 127, 186
    2    6 C      2-6, 8-12, 14-18, 20-25, 27-31, 33-38, 62-66, 68-72, 74-78,
                  80-85, 87-91, 93-98, 121-126, 128-132, 134-138, 140-144,
                  146-151, 153-157, 159-164, 187-191, 193-197, 199-203,
                  205-210, 212-216, 218-223
    3    7 N      7, 13, 19, 26, 32, 39, 67, 73, 79, 86, 92, 99, 133, 139,
                  145, 152, 158, 165, 192, 198, 204, 211, 217, 224
    4    1 H      40-60, 100-120, 166-185, 225-244

           -------------------------------------------------
          |                 I P E A - x T B                 |
           -------------------------------------------------

        Reference                      10.1039/c7sc00601b
      * Hamiltonian:
        H0-scaling (s, p, d)           2.150000    2.300000    2.000000
        zeta-weighting                 0.000000
      * Dispersion:
        s8                             2.400000
        a1                             0.630000
        a2                             5.000000
        s9                             0.000000
      * Repulsion:
        kExp                           1.500000
        rExp                           1.000000
      * Coulomb:
        alpha                          1.000000
        third order                    atomic
        anisotropic                    false
      * Halogen bond correction:
        rad-scale                      1.300000
        damping                        0.440000


          ...................................................
          :                      SETUP                      :
          :.................................................:
          :  # basis functions                 970          :
          :  # atomic orbitals                 970          :
          :  # shells                          646          :
          :  # electrons                       746          :
          :  # halogen bonds                     0          :
          :  max. iterations                   250          :
          :  Hamiltonian                  GFN1-xTB          :
          :  restarted?                      false          :
          :  GBSA solvation                  false          :
          :  PC potential                    false          :
          :  electronic temp.          300.0000000     K    :
          :  accuracy                    1.0000000          :
          :  -> integral cutoff          0.2500000E+02      :
          :  -> integral neglect         0.1000000E-07      :
          :  -> SCF convergence          0.1000000E-05 Eh   :
          :  -> wf. convergence          0.2000000E-04 e    :
          :  Broyden damping             0.4000000          :
          ...................................................

 iter      E             dE          RMSdq      gap      omega  full diag
   1   -468.6809935 -0.468681E+03  0.103E+01    0.36       0.0  T
   2   -469.9799103 -0.129892E+01  0.660E+00    1.30       1.0  T
   3   -467.7003759  0.227953E+01  0.446E+00    0.77       1.0  T
   4   -471.5245011 -0.382413E+01  0.169E+00    1.35       1.0  T
   5   -473.0971772 -0.157268E+01  0.313E-01    1.00       1.0  T
   6   -473.1539878 -0.568106E-01  0.820E-02    1.07       1.0  T
   7   -473.1551009 -0.111309E-02  0.581E-02    1.05       1.0  T
   8   -473.1566850 -0.158412E-02  0.220E-02    1.06       1.0  T
   9   -473.1567088 -0.238493E-04  0.143E-02    1.06       1.0  T
  10   -473.1567739 -0.650725E-04  0.608E-03    1.06       1.1  T
  11   -473.1567866 -0.127021E-04  0.251E-03    1.06       2.6  T
  12   -473.1567903 -0.368984E-05  0.489E-04    1.06      13.1  T
  13   -473.1567904 -0.114403E-06  0.230E-04    1.06      27.9  T
  14   -473.1567904 -0.208088E-07  0.908E-05    1.06      70.5  T
  15   -473.1567904 -0.376178E-08  0.376E-05    1.06     170.1  T

   *** convergence criteria satisfied after 15 iterations ***

         #    Occupation            Energy/Eh            Energy/eV
      -------------------------------------------------------------
         1        2.0000           -1.0033653             -27.3030
       ...           ...                  ...                  ...
       367        2.0000           -0.3814719             -10.3804
       368        2.0000           -0.3810995             -10.3702
       369        2.0000           -0.3809722             -10.3668
       370        2.0000           -0.3753832             -10.2147
       371        2.0000           -0.3712695             -10.1028
       372        2.0000           -0.3638993              -9.9022
       373        2.0000           -0.3557565              -9.6806 (HOMO)
       374                         -0.3168846              -8.6229 (LUMO)
       375                         -0.3061997              -8.3321
       376                         -0.2953929              -8.0381
       377                         -0.2953564              -8.0371
       378                         -0.2952012              -8.0328
       ...                                ...                  ...
       970                        694.1010959           18887.4522
      -------------------------------------------------------------
                  HL-Gap            0.0388718 Eh            1.0578 eV
             Fermi-level           -0.3363205 Eh           -9.1517 eV

 SCC (total)                   0 d,  0 h,  0 min,  9.557 sec
 SCC setup                      ...        0 min,  0.009 sec (  0.091%)
 Dispersion                     ...        0 min,  0.012 sec (  0.127%)
 classical contributions        ...        0 min,  0.004 sec (  0.044%)
 integral evaluation            ...        0 min,  0.808 sec (  8.456%)
 iterations                     ...        0 min,  6.887 sec ( 72.060%)
 molecular gradient             ...        0 min,  1.704 sec ( 17.827%)
 printout                       ...        0 min,  0.133 sec (  1.393%)

         :::::::::::::::::::::::::::::::::::::::::::::::::::::
         ::                     SUMMARY                     ::
         :::::::::::::::::::::::::::::::::::::::::::::::::::::
         :: total energy            -463.988410059634 Eh    ::
         :: gradient norm              0.081938605804 Eh/a0 ::
         :: HOMO-LUMO gap              1.057756772666 eV    ::
         ::.................................................::
         :: SCC energy              -473.156790439734 Eh    ::
         :: -> electrostatic           0.478412859087 Eh    ::
         :: repulsion energy           9.394300500168 Eh    ::
         :: dispersion energy         -0.225920120068 Eh    ::
         :: halogen bond corr.         0.000000000000 Eh    ::
         :: add. restraining           0.000000000000 Eh    ::
         :: total charge               0.000000000000 e     ::
         :::::::::::::::::::::::::::::::::::::::::::::::::::::

           ------------------------------------------------- 
          |        vertical delta SCC IP calculation        |
           ------------------------------------------------- 
   1   -472.7692253 -0.472769E+03  0.816E-02    1.06       0.0  T
   2   -472.7710851 -0.185979E-02  0.778E-02    1.00       1.0  T
   3   -472.7758611 -0.477602E-02  0.387E-02    1.03       1.0  T
   4   -472.7756796  0.181511E-03  0.315E-02    1.02       1.0  T
   5   -472.7756465  0.330937E-04  0.268E-02    1.02       1.0  T
   6   -472.7763647 -0.718198E-03  0.141E-02    1.02       1.0  T
   7   -472.7765627 -0.197964E-03  0.478E-03    1.02       1.3  T
   8   -472.7765755 -0.128692E-04  0.184E-03    1.02       3.5  T
   9   -472.7765770 -0.149814E-05  0.796E-04    1.02       8.0  T
  10   -472.7765773 -0.260072E-06  0.400E-04    1.02      16.0  T
  11   -472.7765774 -0.723338E-07  0.144E-04    1.02      44.3  T
  12   -472.7765774 -0.679540E-08  0.704E-05    1.02      91.0  T
     SCC iter.                  ...        0 min,  5.476 sec
     gradient                   ...        0 min,  1.676 sec
------------------------------------------------------------------------
empirical IP shift (eV):    4.8455
delta SCC IP (eV):    5.5006
------------------------------------------------------------------------
           ------------------------------------------------- 
          |        vertical delta SCC EA calculation        |
           ------------------------------------------------- 
   1   -473.4221229 -0.473422E+03  0.147E-01    0.34       0.0  T
   2   -473.4358790 -0.137560E-01  0.129E-01    0.17       1.0  T
   3   -473.4456006 -0.972160E-02  0.708E-02    0.24       1.0  T
   4   -473.4461150 -0.514487E-03  0.513E-02    0.22       1.0  T
   5   -473.4446225  0.149253E-02  0.473E-02    0.23       1.0  T
   6   -473.4455886 -0.966062E-03  0.348E-02    0.22       1.0  T
   7   -473.4471158 -0.152719E-02  0.779E-03    0.22       1.0  T
   8   -473.4471589 -0.431070E-04  0.308E-03    0.22       2.1  T
   9   -473.4471625 -0.367285E-05  0.132E-03    0.22       4.9  T
  10   -473.4471633 -0.766860E-06  0.673E-04    0.22       9.5  T
  11   -473.4471635 -0.166521E-06  0.282E-04    0.22      22.7  T
  12   -473.4471635 -0.303734E-07  0.139E-04    0.22      45.9  T
  13   -473.4471635 -0.619855E-08  0.592E-05    0.22     108.2  T
     SCC iter.                  ...        0 min,  6.054 sec
     gradient                   ...        0 min,  1.723 sec
------------------------------------------------------------------------
empirical EA shift (eV):    4.8455
delta SCC EA (eV):    3.0559
------------------------------------------------------------------------
           -------------------------------------------------
          |                Property Printout                |
           -------------------------------------------------

    * Orbital Energies and Occupations

         #    Occupation            Energy/Eh            Energy/eV
      -------------------------------------------------------------
         1        2.0000           -0.9557669             -26.0077
       ...           ...                  ...                  ...
       362        2.0000           -0.3439391              -9.3591
       363        2.0000           -0.3412219              -9.2851
       364        2.0000           -0.3386410              -9.2149
       365        2.0000           -0.3383775              -9.2077
       366        2.0000           -0.3348482              -9.1117
       367        2.0000           -0.3342423              -9.0952
       368        2.0000           -0.3293006              -8.9607
       369        2.0000           -0.3272552              -8.9051
       370        2.0000           -0.3269437              -8.8966
       371        2.0000           -0.3254449              -8.8558
       372        2.0000           -0.3152538              -8.5785
       373        2.0000           -0.3040996              -8.2750
       374        0.9851           -0.2642878              -7.1916 (HOMO)
       375        0.0149           -0.2563198              -6.9748 (LUMO)
       376        0.0000           -0.2500975              -6.8055
       377        0.0000           -0.2494442              -6.7877
       378                         -0.2441833              -6.6446
       379                         -0.2426108              -6.6018
       380                         -0.2423020              -6.5934
       381                         -0.2318002              -6.3076
       382                         -0.2091805              -5.6921
       383                         -0.2026263              -5.5137
       384                         -0.2024700              -5.5095
       385                         -0.2004410              -5.4543
       ...                                ...                  ...
       970                        694.1529348           18888.8628
      -------------------------------------------------------------
                  HL-Gap            0.0079680 Eh            0.2168 eV
             Fermi-level           -0.2722493 Eh           -7.4083 eV

  Mulliken/CM5 charges         n(s)   n(p)   n(d)
     1Zn    0.36130  0.68644   0.762  0.876  0.000
     2C    -0.02882 -0.06993   1.086  2.943  0.000
     3C     0.05523  0.11698   1.118  2.827  0.000
     4C    -0.04143 -0.08746   1.088  2.953  0.000
     5C    -0.03663 -0.08228   1.085  2.952  0.000
     6C     0.05586  0.12124   1.111  2.833  0.000
     7N    -0.23988 -0.48357   1.350  3.890  0.000
     8C     0.00799  0.01327   1.094  2.898  0.000
     9C    -0.00613 -0.01482   1.073  2.933  0.000
    10C    -0.02559 -0.07870   1.079  2.947  0.000
    11C    -0.04099 -0.08952   1.067  2.974  0.000
    12C     0.05689  0.10705   1.102  2.841  0.000
    13N    -0.30882 -0.76251   1.332  3.977  0.000
    14C    -0.04159 -0.09013   1.067  2.975  0.000
    15C    -0.02632 -0.07940   1.079  2.948  0.000
    16C     0.05506  0.11946   1.109  2.836  0.000
    17C    -0.03615 -0.08186   1.079  2.957  0.000
    18C    -0.03584 -0.08156   1.081  2.955  0.000
    19N    -0.23702 -0.47965   1.352  3.885  0.000
    20C     0.06042  0.12660   1.122  2.818  0.000
    21C     0.01471  0.02146   1.087  2.898  0.000
    22C     0.06042  0.12661   1.122  2.818  0.000
    23C    -0.03597 -0.08173   1.081  2.955  0.000
    24C    -0.03617 -0.08193   1.079  2.957  0.000
    25C     0.05496  0.11932   1.109  2.836  0.000
    26N    -0.23688 -0.47981   1.352  3.884  0.000
    27C     0.00803  0.01332   1.094  2.898  0.000
    28C    -0.00618 -0.01487   1.073  2.933  0.000
    29C    -0.02543 -0.07854   1.079  2.946  0.000
    30C    -0.04096 -0.08949   1.067  2.974  0.000
    31C     0.05702  0.10724   1.102  2.841  0.000
    32N    -0.30864 -0.76246   1.332  3.977  0.000
    33C    -0.04168 -0.09022   1.067  2.975  0.000
    34C    -0.02633 -0.07942   1.079  2.948  0.000
    35C     0.05582  0.12121   1.111  2.833  0.000
    36C    -0.03665 -0.08232   1.085  2.952  0.000
    37C    -0.04147 -0.08749   1.088  2.953  0.000
    38C     0.05523  0.11700   1.118  2.827  0.000
    39N    -0.23998 -0.48344   1.350  3.890  0.000
    40H     0.02059  0.07941   0.979  0.000  0.000
    41H     0.02616  0.08264   0.974  0.000  0.000
    42H     0.01825  0.07702   0.982  0.000  0.000
    43H     0.01818  0.07604   0.982  0.000  0.000
    44H     0.02596  0.08494   0.974  0.000  0.000
    45H     0.16198  0.35285   0.838  0.000  0.000
    46H     0.16136  0.35224   0.839  0.000  0.000
    47H     0.02507  0.08404   0.975  0.000  0.000
    48H     0.01715  0.07506   0.983  0.000  0.000
    49H     0.02059  0.07946   0.979  0.000  0.000
    50H     0.02149  0.08018   0.979  0.000  0.000
    51H     0.02133  0.08005   0.979  0.000  0.000
    52H     0.02046  0.07936   0.980  0.000  0.000
    53H     0.01830  0.07623   0.982  0.000  0.000
    54H     0.02614  0.08511   0.974  0.000  0.000
    55H     0.16215  0.35305   0.838  0.000  0.000
    56H     0.16157  0.35248   0.838  0.000  0.000
    57H     0.02502  0.08400   0.975  0.000  0.000
    58H     0.01713  0.07506   0.983  0.000  0.000
    59H     0.01819  0.07694   0.982  0.000  0.000
    60H     0.02614  0.08262   0.974  0.000  0.000
    61Zn    0.36178  0.68674   0.762  0.876  0.000
    62C    -0.02868 -0.06980   1.086  2.942  0.000
    63C     0.05523  0.11695   1.118  2.827  0.000
    64C    -0.04134 -0.08736   1.088  2.953  0.000
    65C    -0.03656 -0.08224   1.085  2.952  0.000
    66C     0.05596  0.12131   1.111  2.833  0.000
    67N    -0.23984 -0.48353   1.350  3.890  0.000
    68C     0.00798  0.01330   1.094  2.898  0.000
    69C    -0.00622 -0.01489   1.073  2.933  0.000
    70C    -0.02545 -0.07853   1.079  2.946  0.000
    71C    -0.04093 -0.08946   1.067  2.974  0.000
    72C     0.05714  0.10737   1.102  2.841  0.000
    73N    -0.30849 -0.76230   1.332  3.977  0.000
    74C    -0.04159 -0.09013   1.067  2.975  0.000
    75C    -0.02624 -0.07934   1.079  2.948  0.000
    76C     0.05530  0.11983   1.109  2.835  0.000
    77C    -0.03594 -0.08164   1.080  2.956  0.000
    78C    -0.03562 -0.08109   1.082  2.953  0.000
    79N    -0.23675 -0.47949   1.352  3.885  0.000
    80C     0.06055  0.12683   1.122  2.817  0.000
    81C     0.01481  0.02161   1.086  2.899  0.000
    82C     0.06055  0.12682   1.122  2.817  0.000
    83C    -0.03559 -0.08113   1.082  2.954  0.000
    84C    -0.03592 -0.08164   1.080  2.956  0.000
    85C     0.05526  0.11976   1.109  2.835  0.000
    86N    -0.23666 -0.47963   1.352  3.885  0.000
    87C     0.00799  0.01331   1.094  2.898  0.000
    88C    -0.00619 -0.01486   1.073  2.933  0.000
    89C    -0.02540 -0.07848   1.079  2.946  0.000
    90C    -0.04085 -0.08939   1.067  2.974  0.000
    91C     0.05709  0.10726   1.102  2.841  0.000
    92N    -0.30854 -0.76222   1.332  3.976  0.000
    93C    -0.04158 -0.09012   1.067  2.975  0.000
    94C    -0.02627 -0.07937   1.079  2.948  0.000
    95C     0.05597  0.12133   1.111  2.833  0.000
    96C    -0.03655 -0.08224   1.085  2.952  0.000
    97C    -0.04134 -0.08736   1.088  2.953  0.000
    98C     0.05524  0.11698   1.118  2.827  0.000
    99N    -0.23993 -0.48346   1.350  3.890  0.000
   100H     0.02076  0.07958   0.979  0.000  0.000
   101H     0.02633  0.08280   0.974  0.000  0.000
   102H     0.01832  0.07708   0.982  0.000  0.000
   103H     0.01847  0.07641   0.982  0.000  0.000
   104H     0.02612  0.08510   0.974  0.000  0.000
   105H     0.16228  0.35318   0.838  0.000  0.000
   106H     0.16173  0.35262   0.838  0.000  0.000
   107H     0.02523  0.08420   0.975  0.000  0.000
   108H     0.01728  0.07522   0.983  0.000  0.000
   109H     0.02009  0.07891   0.980  0.000  0.000
   110H     0.02141  0.07978   0.979  0.000  0.000
   111H     0.02123  0.07965   0.979  0.000  0.000
   112H     0.02020  0.07903   0.980  0.000  0.000
   113H     0.01849  0.07644   0.982  0.000  0.000
   114H     0.02621  0.08519   0.974  0.000  0.000
   115H     0.16218  0.35304   0.838  0.000  0.000
   116H     0.16162  0.35249   0.838  0.000  0.000
   117H     0.02521  0.08418   0.975  0.000  0.000
   118H     0.01725  0.07518   0.983  0.000  0.000
   119H     0.01834  0.07709   0.982  0.000  0.000
   120H     0.02633  0.08280   0.974  0.000  0.000
   121C    -0.03153 -0.03369   1.069  2.962  0.000
   122C    -0.02704 -0.02920   1.075  2.952  0.000
   123C    -0.02901 -0.03117   1.072  2.957  0.000
   124C    -0.02918 -0.03134   1.072  2.957  0.000
   125C    -0.02664 -0.02886   1.074  2.952  0.000
   126C    -0.03131 -0.03354   1.068  2.963  0.000
   127Zn    0.36194  0.68540   0.764  0.874  0.000
   128C     0.00928  0.01607   1.082  2.909  0.000
   129C     0.06007  0.12635   1.122  2.818  0.000
   130C    -0.03882 -0.08455   1.079  2.959  0.000
   131C    -0.03660 -0.08232   1.080  2.957  0.000
   132C     0.05286  0.11725   1.107  2.840  0.000
   133N    -0.23799 -0.48045   1.351  3.887  0.000
   134C     0.01042  0.01558   1.096  2.894  0.000
   135C    -0.00531 -0.01406   1.074  2.932  0.000
   136C    -0.02550 -0.07857   1.079  2.946  0.000
   137C    -0.04133 -0.08987   1.067  2.974  0.000
   138C     0.05684  0.10699   1.102  2.841  0.000
   139N    -0.30881 -0.76245   1.332  3.977  0.000
   140C    -0.04096 -0.08951   1.066  2.975  0.000
   141C    -0.02518 -0.07834   1.078  2.947  0.000
   142C     0.05330  0.11765   1.107  2.839  0.000
   143C    -0.03607 -0.08183   1.080  2.956  0.000
   144C    -0.03751 -0.08325   1.080  2.957  0.000
   145N    -0.23738 -0.47995   1.352  3.886  0.000
   146C     0.06045  0.12676   1.122  2.817  0.000
   147C     0.01172  0.01851   1.084  2.904  0.000
   148C     0.06055  0.12691   1.122  2.817  0.000
   149C    -0.03745 -0.08316   1.080  2.957  0.000
   150C    -0.03597 -0.08173   1.080  2.956  0.000
   151C     0.05322  0.11758   1.107  2.839  0.000
   152N    -0.23731 -0.47976   1.351  3.886  0.000
   153C     0.01044  0.01561   1.096  2.893  0.000
   154C    -0.00534 -0.01408   1.074  2.932  0.000
   155C    -0.02536 -0.07850   1.079  2.947  0.000
   156C    -0.04133 -0.08987   1.067  2.975  0.000
   157C     0.05696  0.10716   1.102  2.841  0.000
   158N    -0.30865 -0.76240   1.332  3.977  0.000
   159C    -0.04095 -0.08949   1.067  2.974  0.000
   160C    -0.02506 -0.07815   1.079  2.946  0.000
   161C     0.05283  0.11720   1.107  2.840  0.000
   162C    -0.03662 -0.08239   1.080  2.957  0.000
   163C    -0.03891 -0.08468   1.079  2.960  0.000
   164C     0.06006  0.12634   1.122  2.818  0.000
   165N    -0.23801 -0.48049   1.351  3.887  0.000
   166H     0.01794  0.07659   0.982  0.000  0.000
   167H     0.01820  0.07706   0.982  0.000  0.000
   168H     0.01731  0.07521   0.983  0.000  0.000
   169H     0.02452  0.08350   0.975  0.000  0.000
   170H     0.16065  0.35150   0.839  0.000  0.000
   171H     0.16085  0.35170   0.839  0.000  0.000
   172H     0.02552  0.08450   0.974  0.000  0.000
   173H     0.01810  0.07598   0.982  0.000  0.000
   174H     0.01888  0.07782   0.981  0.000  0.000
   175H     0.01968  0.07835   0.980  0.000  0.000
   176H     0.01936  0.07801   0.981  0.000  0.000
   177H     0.01844  0.07730   0.982  0.000  0.000
   178H     0.01743  0.07537   0.983  0.000  0.000
   179H     0.02468  0.08366   0.975  0.000  0.000
   180H     0.16101  0.35190   0.839  0.000  0.000
   181H     0.16080  0.35168   0.839  0.000  0.000
   182H     0.02559  0.08457   0.974  0.000  0.000
   183H     0.01823  0.07619   0.982  0.000  0.000
   184H     0.01823  0.07715   0.982  0.000  0.000
   185H     0.01814  0.07685   0.982  0.000  0.000
   186Zn    0.36209  0.68564   0.764  0.874  0.000
   187C     0.01192  0.01870   1.084  2.904  0.000
   188C     0.06041  0.12670   1.122  2.817  0.000
   189C    -0.03738 -0.08312   1.080  2.957  0.000
   190C    -0.03605 -0.08178   1.080  2.956  0.000
   191C     0.05345  0.11781   1.107  2.839  0.000
   192N    -0.23736 -0.48005   1.352  3.886  0.000
   193C     0.01042  0.01562   1.096  2.894  0.000
   194C    -0.00532 -0.01406   1.074  2.932  0.000
   195C    -0.02535 -0.07847   1.079  2.947  0.000
   196C    -0.04097 -0.08952   1.067  2.974  0.000
   197C     0.05667  0.10675   1.102  2.842  0.000
   198N    -0.30901 -0.76250   1.332  3.977  0.000
   199C    -0.04128 -0.08982   1.067  2.974  0.000
   200C    -0.02561 -0.07874   1.079  2.947  0.000
   201C     0.05312  0.11763   1.107  2.840  0.000
   202C    -0.03649 -0.08217   1.081  2.956  0.000
   203C    -0.03868 -0.08420   1.080  2.959  0.000
   204N    -0.23789 -0.48049   1.351  3.887  0.000
   205C     0.06012  0.12650   1.122  2.818  0.000
   206C     0.00915  0.01598   1.081  2.910  0.000
   207C     0.06010  0.12650   1.122  2.818  0.000
   208C    -0.03877 -0.08426   1.080  2.959  0.000
   209C    -0.03649 -0.08222   1.081  2.956  0.000
   210C     0.05302  0.11749   1.107  2.840  0.000
   211N    -0.23789 -0.48033   1.351  3.887  0.000
   212C     0.01041  0.01561   1.096  2.894  0.000
   213C    -0.00536 -0.01406   1.073  2.932  0.000
   214C    -0.02492 -0.07801   1.079  2.946  0.000
   215C    -0.04082 -0.08936   1.067  2.974  0.000
   216C     0.05707  0.10724   1.102  2.841  0.000
   217N    -0.30850 -0.76217   1.332  3.976  0.000
   218C    -0.04131 -0.08985   1.067  2.975  0.000
   219C    -0.02535 -0.07848   1.079  2.947  0.000
   220C     0.05332  0.11764   1.108  2.839  0.000
   221C    -0.03594 -0.08172   1.080  2.956  0.000
   222C    -0.03736 -0.08307   1.080  2.957  0.000
   223C     0.06049  0.12679   1.122  2.817  0.000
   224N    -0.23722 -0.47990   1.352  3.886  0.000
   225H     0.01980  0.07849   0.980  0.000  0.000
   226H     0.01907  0.07800   0.981  0.000  0.000
   227H     0.01799  0.07586   0.982  0.000  0.000
   228H     0.02544  0.08441   0.975  0.000  0.000
   229H     0.16059  0.35141   0.839  0.000  0.000
   230H     0.16049  0.35131   0.840  0.000  0.000
   231H     0.02466  0.08364   0.975  0.000  0.000
   232H     0.01727  0.07511   0.983  0.000  0.000
   233H     0.01836  0.07723   0.982  0.000  0.000
   234H     0.01836  0.07682   0.982  0.000  0.000
   235H     0.01806  0.07642   0.982  0.000  0.000
   236H     0.01774  0.07660   0.982  0.000  0.000
   237H     0.01835  0.07636   0.982  0.000  0.000
   238H     0.02581  0.08479   0.974  0.000  0.000
   239H     0.16082  0.35167   0.839  0.000  0.000
   240H     0.16114  0.35200   0.839  0.000  0.000
   241H     0.02465  0.08362   0.975  0.000  0.000
   242H     0.01759  0.07554   0.982  0.000  0.000
   243H     0.01845  0.07731   0.982  0.000  0.000
   244H     0.01946  0.07810   0.981  0.000  0.000

Wiberg/Mayer (AO) data.
largest (>0.10) Wiberg bond orders for each atom

 ---------------------------------------------------------------------------
     #   Z sym  total        # sym  WBO       # sym  WBO       # sym  WBO
 ---------------------------------------------------------------------------
     1  30 Zn   2.429 --     7 N    0.568    39 N    0.566    26 N    0.564
                            19 N    0.563
     2   6 C    3.803 --     3 C    1.387    38 C    1.387    40 H    0.999
     3   6 C    3.947 --     2 C    1.387     7 N    1.283     4 C    1.200
     4   6 C    3.848 --     5 C    1.643     3 C    1.200    41 H    0.995
     5   6 C    3.838 --     4 C    1.643     6 C    1.208    42 H    1.001
     6   6 C    3.916 --     8 C    1.367     7 N    1.279     5 C    1.208
     7   7 N    3.001 --     3 C    1.283     6 C    1.279     1 Zn   0.568
     8   6 C    3.832 --     6 C    1.367    16 C    1.362     9 C    1.050
     9   6 C    3.878 --    10 C    1.412    15 C    1.412     8 C    1.050
    10   6 C    3.872 --    11 C    1.464     9 C    1.412    43 H    0.991
    11   6 C    3.871 --    10 C    1.464    12 C    1.378    44 H    0.989
    12   6 C    3.973 --    14 C    1.378    11 C    1.378    13 N    1.145
    13   7 N    3.056 --    12 C    1.145    46 H    0.973    45 H    0.972
    14   6 C    3.871 --    15 C    1.463    12 C    1.378    47 H    0.990
    15   6 C    3.871 --    14 C    1.463     9 C    1.412    48 H    0.991
    16   6 C    3.904 --     8 C    1.362    19 N    1.271    17 C    1.220
    17   6 C    3.818 --    18 C    1.622    16 C    1.220    49 H    1.000
    18   6 C    3.821 --    17 C    1.622    20 C    1.231    50 H    0.997
    19   7 N    3.012 --    20 C    1.309    16 C    1.271     1 Zn   0.563
    20   6 C    3.917 --    19 N    1.309    21 C    1.294    18 C    1.231
    21   6 C    3.826 --    20 C    1.294    22 C    1.292   121 C    1.221
    22   6 C    3.917 --    26 N    1.310    21 C    1.292    23 C    1.232
    23   6 C    3.821 --    24 C    1.621    22 C    1.232    51 H    0.996
    24   6 C    3.818 --    23 C    1.621    25 C    1.221    52 H    1.000
    25   6 C    3.904 --    27 C    1.361    26 N    1.271    24 C    1.221
    26   7 N    3.013 --    22 C    1.310    25 C    1.271     1 Zn   0.564
    27   6 C    3.833 --    35 C    1.366    25 C    1.361    28 C    1.052
    28   6 C    3.878 --    34 C    1.411    29 C    1.411    27 C    1.052
    29   6 C    3.871 --    30 C    1.464    28 C    1.411    53 H    0.991
    30   6 C    3.871 --    29 C    1.464    31 C    1.377    54 H    0.989
    31   6 C    3.972 --    33 C    1.378    30 C    1.377    32 N    1.146
    32   7 N    3.057 --    31 C    1.146    56 H    0.972    55 H    0.972
    33   6 C    3.870 --    34 C    1.463    31 C    1.378    57 H    0.990
    34   6 C    3.871 --    33 C    1.463    28 C    1.411    58 H    0.991
    35   6 C    3.916 --    27 C    1.366    39 N    1.279    36 C    1.208
    36   6 C    3.836 --    37 C    1.643    35 C    1.208    59 H    1.001
    37   6 C    3.848 --    36 C    1.643    38 C    1.200    60 H    0.995
    38   6 C    3.947 --     2 C    1.387    39 N    1.284    37 C    1.200
    39   7 N    3.000 --    38 C    1.284    35 C    1.279     1 Zn   0.566
    40   1 H    1.034 --     2 C    0.999
    41   1 H    1.023 --     4 C    0.995
    42   1 H    1.040 --     5 C    1.001
    43   1 H    1.056 --    10 C    0.991
    44   1 H    1.024 --    11 C    0.989
    45   1 H    1.030 --    13 N    0.972
    46   1 H    1.030 --    13 N    0.973
    47   1 H    1.023 --    14 C    0.990
    48   1 H    1.055 --    15 C    0.991
    49   1 H    1.039 --    17 C    1.000
    50   1 H    1.038 --    18 C    0.997
    51   1 H    1.038 --    23 C    0.996
    52   1 H    1.037 --    24 C    1.000
    53   1 H    1.056 --    29 C    0.991
    54   1 H    1.024 --    30 C    0.989
    55   1 H    1.029 --    32 N    0.972
    56   1 H    1.030 --    32 N    0.972
    57   1 H    1.023 --    33 C    0.990
    58   1 H    1.055 --    34 C    0.991
    59   1 H    1.040 --    36 C    1.001
    60   1 H    1.023 --    37 C    0.995
    61  30 Zn   2.429 --    67 N    0.568    99 N    0.567    86 N    0.563
                            79 N    0.562
    62   6 C    3.803 --    63 C    1.387    98 C    1.387   100 H    0.999
    63   6 C    3.947 --    62 C    1.387    67 N    1.283    64 C    1.200
    64   6 C    3.848 --    65 C    1.642    63 C    1.200   101 H    0.995
    65   6 C    3.836 --    64 C    1.642    66 C    1.208   102 H    1.000
    66   6 C    3.915 --    68 C    1.366    67 N    1.279    65 C    1.208
    67   7 N    3.002 --    63 C    1.283    66 C    1.279    61 Zn   0.568
    68   6 C    3.833 --    66 C    1.366    76 C    1.360    69 C    1.053
    69   6 C    3.878 --    75 C    1.411    70 C    1.410    68 C    1.053
    70   6 C    3.872 --    71 C    1.465    69 C    1.410   103 H    0.990
    71   6 C    3.871 --    70 C    1.465    72 C    1.377   104 H    0.989
    72   6 C    3.972 --    74 C    1.378    71 C    1.377    73 N    1.146
    73   7 N    3.057 --    72 C    1.146   106 H    0.972   105 H    0.972
    74   6 C    3.870 --    75 C    1.464    72 C    1.378   107 H    0.990
    75   6 C    3.871 --    74 C    1.464    69 C    1.411   108 H    0.991
    76   6 C    3.904 --    68 C    1.360    79 N    1.272    77 C    1.220
    77   6 C    3.821 --    78 C    1.622    76 C    1.220   109 H    0.999
    78   6 C    3.824 --    77 C    1.622    80 C    1.230   110 H    0.999
    79   7 N    3.012 --    80 C    1.309    76 C    1.272    61 Zn   0.562
    80   6 C    3.921 --    79 N    1.309    81 C    1.296    78 C    1.230
    81   6 C    3.826 --    80 C    1.296    82 C    1.295   126 C    1.217
    82   6 C    3.920 --    86 N    1.309    81 C    1.295    83 C    1.230
    83   6 C    3.823 --    84 C    1.621    82 C    1.230   111 H    0.999
    84   6 C    3.820 --    83 C    1.621    85 C    1.220   112 H    0.999
    85   6 C    3.904 --    87 C    1.360    86 N    1.272    84 C    1.220
    86   7 N    3.013 --    82 C    1.309    85 C    1.272    61 Zn   0.563
    87   6 C    3.833 --    95 C    1.366    85 C    1.360    88 C    1.054
    88   6 C    3.878 --    94 C    1.411    89 C    1.410    87 C    1.054
    89   6 C    3.872 --    90 C    1.465    88 C    1.410   113 H    0.990
    90   6 C    3.871 --    89 C    1.465    91 C    1.377   114 H    0.989
    91   6 C    3.972 --    93 C    1.378    90 C    1.377    92 N    1.146
    92   7 N    3.057 --    91 C    1.146   116 H    0.973   115 H    0.972
    93   6 C    3.871 --    94 C    1.464    91 C    1.378   117 H    0.990
    94   6 C    3.871 --    93 C    1.464    88 C    1.411   118 H    0.991
    95   6 C    3.916 --    87 C    1.366    99 N    1.279    96 C    1.208
    96   6 C    3.836 --    97 C    1.643    95 C    1.208   119 H    1.000
    97   6 C    3.848 --    96 C    1.643    98 C    1.200   120 H    0.995
    98   6 C    3.947 --    62 C    1.387    99 N    1.284    97 C    1.200
    99   7 N    3.001 --    98 C    1.284    95 C    1.279    61 Zn   0.567
   100   1 H    1.034 --    62 C    0.999
   101   1 H    1.023 --    64 C    0.995
   102   1 H    1.040 --    65 C    1.000
   103   1 H    1.056 --    70 C    0.990
   104   1 H    1.024 --    71 C    0.989
   105   1 H    1.029 --    73 N    0.972
   106   1 H    1.029 --    73 N    0.972
   107   1 H    1.023 --    74 C    0.990
   108   1 H    1.055 --    75 C    0.991
   109   1 H    1.038 --    77 C    0.999
   110   1 H    1.039 --    78 C    0.999
   111   1 H    1.040 --    83 C    0.999
   112   1 H    1.038 --    84 C    0.999
   113   1 H    1.056 --    89 C    0.990
   114   1 H    1.024 --    90 C    0.989
   115   1 H    1.029 --    92 N    0.972
   116   1 H    1.030 --    92 N    0.973
   117   1 H    1.023 --    93 C    0.990
   118   1 H    1.055 --    94 C    0.991
   119   1 H    1.040 --    96 C    1.000
   120   1 H    1.023 --    97 C    0.995
   121   6 C    3.763 --   122 C    2.607    21 C    1.221
   122   6 C    3.766 --   121 C    2.607   128 C    1.222
   123   6 C    3.764 --   124 C    2.601   147 C    1.228
   124   6 C    3.764 --   123 C    2.601   187 C    1.227
   125   6 C    3.765 --   126 C    2.611   206 C    1.218
   126   6 C    3.762 --   125 C    2.611    81 C    1.217
   127  30 Zn   2.419 --   145 N    0.565   165 N    0.563   133 N    0.563
                           152 N    0.563
   128   6 C    3.812 --   129 C    1.289   164 C    1.289   122 C    1.222
   129   6 C    3.919 --   133 N    1.312   128 C    1.289   130 C    1.232
   130   6 C    3.817 --   131 C    1.620   129 C    1.232   166 H    0.997
   131   6 C    3.823 --   130 C    1.620   132 C    1.222   167 H    1.001
   132   6 C    3.902 --   134 C    1.367   133 N    1.266   131 C    1.222
   133   7 N    3.000 --   129 C    1.312   132 C    1.266   127 Zn   0.563
   134   6 C    3.828 --   132 C    1.367   142 C    1.365   135 C    1.051
   135   6 C    3.877 --   136 C    1.412   141 C    1.412   134 C    1.051
   136   6 C    3.871 --   137 C    1.463   135 C    1.412   168 H    0.991
   137   6 C    3.871 --   136 C    1.463   138 C    1.378   169 H    0.990
   138   6 C    3.972 --   140 C    1.379   137 C    1.378   139 N    1.144
   139   7 N    3.056 --   138 C    1.144   171 H    0.973   170 H    0.973
   140   6 C    3.870 --   141 C    1.463   138 C    1.379   172 H    0.990
   141   6 C    3.870 --   140 C    1.463   135 C    1.412   173 H    0.991
   142   6 C    3.902 --   134 C    1.365   145 N    1.267   143 C    1.222
   143   6 C    3.822 --   144 C    1.620   142 C    1.222   174 H    1.001
   144   6 C    3.818 --   143 C    1.620   146 C    1.233   175 H    0.996
   145   7 N    3.003 --   146 C    1.313   142 C    1.267   127 Zn   0.565
   146   6 C    3.919 --   145 N    1.313   147 C    1.289   144 C    1.233
   147   6 C    3.814 --   146 C    1.289   148 C    1.287   123 C    1.228
   148   6 C    3.919 --   152 N    1.313   147 C    1.287   149 C    1.233
   149   6 C    3.818 --   150 C    1.618   148 C    1.233   176 H    0.998
   150   6 C    3.823 --   149 C    1.618   151 C    1.223   177 H    1.000
   151   6 C    3.902 --   153 C    1.363   152 N    1.267   150 C    1.223
   152   7 N    3.002 --   148 C    1.313   151 C    1.267   127 Zn   0.563
   153   6 C    3.829 --   161 C    1.366   151 C    1.363   154 C    1.054
   154   6 C    3.877 --   155 C    1.411   160 C    1.411   153 C    1.054
   155   6 C    3.870 --   156 C    1.464   154 C    1.411   178 H    0.991
   156   6 C    3.870 --   155 C    1.464   157 C    1.378   179 H    0.990
   157   6 C    3.972 --   159 C    1.378   156 C    1.378   158 N    1.145
   158   7 N    3.056 --   157 C    1.145   180 H    0.973   181 H    0.973
   159   6 C    3.870 --   160 C    1.464   157 C    1.378   182 H    0.990
   160   6 C    3.870 --   159 C    1.464   154 C    1.411   183 H    0.991
   161   6 C    3.902 --   153 C    1.366   165 N    1.266   162 C    1.222
   162   6 C    3.822 --   163 C    1.620   161 C    1.222   184 H    1.001
   163   6 C    3.816 --   162 C    1.620   164 C    1.232   185 H    0.996
   164   6 C    3.919 --   165 N    1.313   128 C    1.289   163 C    1.232
   165   7 N    3.000 --   164 C    1.313   161 C    1.266   127 Zn   0.563
   166   1 H    1.038 --   130 C    0.997
   167   1 H    1.040 --   131 C    1.001
   168   1 H    1.056 --   136 C    0.991
   169   1 H    1.025 --   137 C    0.990
   170   1 H    1.030 --   139 N    0.973
   171   1 H    1.030 --   139 N    0.973
   172   1 H    1.023 --   140 C    0.990
   173   1 H    1.055 --   141 C    0.991
   174   1 H    1.040 --   143 C    1.001
   175   1 H    1.037 --   144 C    0.996
   176   1 H    1.038 --   149 C    0.998
   177   1 H    1.041 --   150 C    1.000
   178   1 H    1.056 --   155 C    0.991
   179   1 H    1.024 --   156 C    0.990
   180   1 H    1.030 --   158 N    0.973
   181   1 H    1.030 --   158 N    0.973
   182   1 H    1.023 --   159 C    0.990
   183   1 H    1.055 --   160 C    0.991
   184   1 H    1.040 --   162 C    1.001
   185   1 H    1.037 --   163 C    0.996
   186  30 Zn   2.419 --   192 N    0.565   224 N    0.564   204 N    0.563
                           211 N    0.562
   187   6 C    3.814 --   188 C    1.289   223 C    1.287   124 C    1.227
   188   6 C    3.919 --   192 N    1.312   187 C    1.289   189 C    1.232
   189   6 C    3.818 --   190 C    1.620   188 C    1.232   225 H    0.996
   190   6 C    3.822 --   189 C    1.620   191 C    1.222   226 H    1.001
   191   6 C    3.902 --   193 C    1.365   192 N    1.267   190 C    1.222
   192   7 N    3.003 --   188 C    1.312   191 C    1.267   186 Zn   0.565
   193   6 C    3.829 --   201 C    1.368   191 C    1.365   194 C    1.049
   194   6 C    3.877 --   200 C    1.414   195 C    1.413   193 C    1.049
   195   6 C    3.871 --   196 C    1.463   194 C    1.413   227 H    0.991
   196   6 C    3.870 --   195 C    1.463   197 C    1.379   228 H    0.990
   197   6 C    3.972 --   196 C    1.379   199 C    1.379   198 N    1.143
   198   7 N    3.055 --   197 C    1.143   229 H    0.973   230 H    0.973
   199   6 C    3.871 --   200 C    1.463   197 C    1.379   231 H    0.990
   200   6 C    3.871 --   199 C    1.463   194 C    1.414   232 H    0.991
   201   6 C    3.902 --   193 C    1.368   204 N    1.266   202 C    1.220
   202   6 C    3.824 --   203 C    1.622   201 C    1.220   233 H    1.001
   203   6 C    3.818 --   202 C    1.622   205 C    1.229   234 H    0.999
   204   7 N    3.001 --   205 C    1.312   201 C    1.266   186 Zn   0.563
   205   6 C    3.923 --   204 N    1.312   206 C    1.293   203 C    1.229
   206   6 C    3.813 --   205 C    1.293   207 C    1.291   125 C    1.218
   207   6 C    3.923 --   211 N    1.313   206 C    1.291   208 C    1.230
   208   6 C    3.819 --   209 C    1.620   207 C    1.230   235 H    0.999
   209   6 C    3.825 --   208 C    1.620   210 C    1.222   236 H    1.000
   210   6 C    3.902 --   212 C    1.366   211 N    1.266   209 C    1.222
   211   7 N    3.000 --   207 C    1.313   210 C    1.266   186 Zn   0.562
   212   6 C    3.829 --   210 C    1.366   220 C    1.362   213 C    1.055
   213   6 C    3.877 --   219 C    1.411   214 C    1.410   212 C    1.055
   214   6 C    3.870 --   215 C    1.465   213 C    1.410   237 H    0.991
   215   6 C    3.870 --   214 C    1.465   216 C    1.378   238 H    0.989
   216   6 C    3.971 --   218 C    1.378   215 C    1.378   217 N    1.145
   217   7 N    3.056 --   216 C    1.145   240 H    0.973   239 H    0.973
   218   6 C    3.870 --   219 C    1.464   216 C    1.378   241 H    0.990
   219   6 C    3.870 --   218 C    1.464   213 C    1.411   242 H    0.991
   220   6 C    3.902 --   212 C    1.362   224 N    1.267   221 C    1.224
   221   6 C    3.823 --   222 C    1.618   220 C    1.224   243 H    1.000
   222   6 C    3.818 --   221 C    1.618   223 C    1.234   244 H    0.998
   223   6 C    3.919 --   224 N    1.313   187 C    1.287   222 C    1.234
   224   7 N    3.002 --   223 C    1.313   220 C    1.267   186 Zn   0.564
   225   1 H    1.037 --   189 C    0.996
   226   1 H    1.040 --   190 C    1.001
   227   1 H    1.055 --   195 C    0.991
   228   1 H    1.023 --   196 C    0.990
   229   1 H    1.031 --   198 N    0.973
   230   1 H    1.031 --   198 N    0.973
   231   1 H    1.024 --   199 C    0.990
   232   1 H    1.056 --   200 C    0.991
   233   1 H    1.040 --   202 C    1.001
   234   1 H    1.037 --   203 C    0.999
   235   1 H    1.038 --   208 C    0.999
   236   1 H    1.041 --   209 C    1.000
   237   1 H    1.055 --   214 C    0.991
   238   1 H    1.023 --   215 C    0.989
   239   1 H    1.030 --   217 N    0.973
   240   1 H    1.030 --   217 N    0.973
   241   1 H    1.024 --   218 C    0.990
   242   1 H    1.056 --   219 C    0.991
   243   1 H    1.041 --   221 C    1.000
   244   1 H    1.038 --   222 C    0.998
 ---------------------------------------------------------------------------

Topologies differ in total number of bonds
Writing topology from bond orders to xtbtopo.mol

 dipole moment from electron density (au)
     X       Y       Z   
-127.6306  -0.0771  -0.1091  total (Debye):  324.405


           -------------------------------------------------
          | TOTAL ENERGY             -464.278783132286 Eh   |
          | GRADIENT NORM               0.082233960002 Eh/α |
          | HOMO-LUMO GAP               0.216821380455 eV   |
           -------------------------------------------------
########################################################################
[WARNING] Runtime exception occurred
-1- restart_readRestart: Dimension missmatch in restart file.
########################################################################

------------------------------------------------------------------------
 * finished run on 2022/07/30 at 09:37:01.919     
------------------------------------------------------------------------
 total:
 * wall-time:     0 d,  0 h,  0 min, 27.148 sec
 *  cpu-time:     0 d,  0 h,  0 min, 26.968 sec
 * ratio c/w:     0.993 speedup
 SCF:
 * wall-time:     0 d,  0 h,  0 min, 26.340 sec
 *  cpu-time:     0 d,  0 h,  0 min, 26.179 sec
 * ratio c/w:     0.994 speedup

