      -----------------------------------------------------------      
     |                   =====================                   |     
     |                           x T B                           |     
     |                   =====================                   |     
     |                         S. Grimme                         |     
     |          Mulliken Center for Theoretical Chemistry        |     
     |                    University of Bonn                     |     
      -----------------------------------------------------------      

   * xtb version 6.5.1 (b24c23e) compiled by 'conda@728c89f4b128' on 2022-07-12

   xtb is free software: you can redistribute it and/or modify it under
   the terms of the GNU Lesser General Public License as published by
   the Free Software Foundation, either version 3 of the License, or
   (at your option) any later version.
   
   xtb is distributed in the hope that it will be useful,
   but WITHOUT ANY WARRANTY; without even the implied warranty of
   MERCHANTABILITY or FITNESS FOR A PARTICULAR PURPOSE.  See the
   GNU Lesser General Public License for more details.
   
   Cite this work as:
   * C. Bannwarth, E. Caldeweyher, S. Ehlert, A. Hansen, P. Pracht,
     J. Seibert, S. Spicher, S. Grimme, WIREs Comput. Mol. Sci., 2020, 11,
     e01493. DOI: 10.1002/wcms.1493
   
   for GFN2-xTB:
   * C. Bannwarth, S. Ehlert and S. Grimme., J. Chem. Theory Comput., 2019,
     15, 1652-1671. DOI: 10.1021/acs.jctc.8b01176
   for GFN1-xTB:
   * S. Grimme, C. Bannwarth, P. Shushkov, J. Chem. Theory Comput., 2017,
     13, 1989-2009. DOI: 10.1021/acs.jctc.7b00118
   for GFN0-xTB:
   * P. Pracht, E. Caldeweyher, S. Ehlert, S. Grimme, ChemRxiv, 2019, preprint.
     DOI: 10.26434/chemrxiv.8326202.v1
   for GFN-FF:
   * S. Spicher and S. Grimme, Angew. Chem. Int. Ed., 2020, 59, 15665-15673.
     DOI: 10.1002/anie.202004239
   
   for ALPB and GBSA implicit solvation:
   * S. Ehlert, M. Stahn, S. Spicher, S. Grimme, J. Chem. Theory Comput.,
     2021, 17, 4250-4261. DOI: 10.1021/acs.jctc.1c00471
   
   for DFT-D4:
   * E. Caldeweyher, C. Bannwarth and S. Grimme, J. Chem. Phys., 2017,
     147, 034112. DOI: 10.1063/1.4993215
   * E. Caldeweyher, S. Ehlert, A. Hansen, H. Neugebauer, S. Spicher,
     C. Bannwarth and S. Grimme, J. Chem. Phys., 2019, 150, 154122.
     DOI: 10.1063/1.5090222
   * E. Caldeweyher, J.-M. Mewes, S. Ehlert and S. Grimme, Phys. Chem. Chem. Phys.
     2020, 22, 8499-8512. DOI: 10.1039/D0CP00502A
   
   for sTDA-xTB:
   * S. Grimme and C. Bannwarth, J. Chem. Phys., 2016, 145, 054103.
     DOI: 10.1063/1.4959605
   
   in the mass-spec context:
   * V. Asgeirsson, C. Bauer and S. Grimme, Chem. Sci., 2017, 8, 4879.
     DOI: 10.1039/c7sc00601b
   * J. Koopman and S. Grimme, ACS Omega 2019, 4, 12, 15120-15133.
     DOI: 10.1021/acsomega.9b02011
   
   for metadynamics refer to:
   * S. Grimme, J. Chem. Theory Comput., 2019, 155, 2847-2862
     DOI: 10.1021/acs.jctc.9b00143
   
   for SPH calculations refer to:
   * S. Spicher and S. Grimme, J. Chem. Theory Comput., 2021, 17, 1701-1714
     DOI: 10.1021/acs.jctc.0c01306
   
   with help from (in alphabetical order)
   P. Atkinson, C. Bannwarth, F. Bohle, G. Brandenburg, E. Caldeweyher
   M. Checinski, S. Dohm, S. Ehlert, S. Ehrlich, I. Gerasimov, C. Hölzer
   A. Katbashev, J. Koopman, C. Lavigne, S. Lehtola, F. März, M. Müller,
   F. Musil, H. Neugebauer, J. Pisarek, C. Plett, P. Pracht, F. Pultar,
   J. Seibert, P. Shushkov, S. Spicher, M. Stahn, M. Steiner, T. Strunk,
   J. Stückrath, T. Rose, and J. Unsleber
   
 * started run on 2022/07/30 at 03:37:59.852     

           -------------------------------------------------
          |                Calculation Setup                |
           -------------------------------------------------

          program call               : xtb xtbopt.xyz --gfn 1 --vipea
          hostname                   : cx3-6-25.cx3.hpc.ic.ac.uk
          coordinate file            : xtbopt.xyz
          omp threads                :                     1

   ID    Z sym.   atoms
    1    6 C      1-5, 7-11, 15-19, 21-26, 28-32, 36-41, 62-66, 68-72, 76-80,
                  82-87, 89-93, 97-102, 123-131, 133-137, 141-145, 147-152,
                  154-158, 162-167
    2    7 N      6, 12, 20, 27, 33, 42, 67, 73, 81, 88, 94, 103, 132, 138,
                  146, 153, 159, 168
    3    8 O      13, 14, 34, 35, 74, 75, 95, 96, 139, 140, 160, 161
    4    1 H      43-61, 104-122, 169-186

           -------------------------------------------------
          |                 I P E A - x T B                 |
           -------------------------------------------------

        Reference                      10.1039/c7sc00601b
      * Hamiltonian:
        H0-scaling (s, p, d)           2.150000    2.300000    2.000000
        zeta-weighting                 0.000000
      * Dispersion:
        s8                             2.400000
        a1                             0.630000
        a2                             5.000000
        s9                             0.000000
      * Repulsion:
        kExp                           1.500000
        rExp                           1.000000
      * Coulomb:
        alpha                          1.000000
        third order                    atomic
        anisotropic                    false
      * Halogen bond correction:
        rad-scale                      1.300000
        damping                        0.440000


          ...................................................
          :                      SETUP                      :
          :.................................................:
          :  # basis functions                 762          :
          :  # atomic orbitals                 762          :
          :  # shells                          502          :
          :  # electrons                       618          :
          :  # halogen bonds                     0          :
          :  max. iterations                   250          :
          :  Hamiltonian                  GFN1-xTB          :
          :  restarted?                      false          :
          :  GBSA solvation                  false          :
          :  PC potential                    false          :
          :  electronic temp.          300.0000000     K    :
          :  accuracy                    1.0000000          :
          :  -> integral cutoff          0.2500000E+02      :
          :  -> integral neglect         0.1000000E-07      :
          :  -> SCF convergence          0.1000000E-05 Eh   :
          :  -> wf. convergence          0.2000000E-04 e    :
          :  Broyden damping             0.4000000          :
          ...................................................

 iter      E             dE          RMSdq      gap      omega  full diag
   1   -402.3378805 -0.402338E+03  0.991E+00    0.76       0.0  T
   2   -402.6181141 -0.280234E+00  0.616E+00    1.28       1.0  T
   3   -396.7843569  0.583376E+01  0.470E+00    0.42       1.0  T
   4   -403.6378420 -0.685349E+01  0.997E-01    1.20       1.0  T
   5   -404.0754219 -0.437580E+00  0.249E-01    1.13       1.0  T
   6   -404.0998136 -0.243917E-01  0.107E-01    1.16       1.0  T
   7   -404.1031125 -0.329885E-02  0.534E-02    1.14       1.0  T
   8   -404.1038460 -0.733549E-03  0.308E-02    1.13       1.0  T
   9   -404.1039862 -0.140229E-03  0.200E-02    1.14       1.0  T
  10   -404.1041025 -0.116282E-03  0.456E-03    1.14       1.6  T
  11   -404.1041063 -0.379497E-05  0.233E-03    1.14       3.2  T
  12   -404.1041076 -0.124190E-05  0.125E-03    1.14       5.9  T
  13   -404.1041082 -0.602851E-06  0.417E-04    1.14      17.6  T
  14   -404.1041082 -0.607247E-07  0.125E-04    1.14      58.5  T
  15   -404.1041082 -0.543986E-08  0.490E-05    1.14     149.5  T

   *** convergence criteria satisfied after 15 iterations ***

         #    Occupation            Energy/Eh            Energy/eV
      -------------------------------------------------------------
         1        2.0000           -1.1890144             -32.3547
       ...           ...                  ...                  ...
       303        2.0000           -0.4370470             -11.8927
       304        2.0000           -0.4104525             -11.1690
       305        2.0000           -0.4085713             -11.1178
       306        2.0000           -0.4082341             -11.1086
       307        2.0000           -0.4054668             -11.0333
       308        2.0000           -0.3941633             -10.7257
       309        2.0000           -0.3823823             -10.4052 (HOMO)
       310                         -0.3405124              -9.2658 (LUMO)
       311                         -0.3281715              -8.9300
       312                         -0.3276548              -8.9159
       313                         -0.3266448              -8.8885
       314                         -0.3242714              -8.8239
       ...                                ...                  ...
       762                        589.0809436           16029.7084
      -------------------------------------------------------------
                  HL-Gap            0.0418699 Eh            1.1393 eV
             Fermi-level           -0.3614473 Eh           -9.8355 eV

 SCC (total)                   0 d,  0 h,  0 min,  3.829 sec
 SCC setup                      ...        0 min,  0.004 sec (  0.115%)
 Dispersion                     ...        0 min,  0.006 sec (  0.159%)
 classical contributions        ...        0 min,  0.002 sec (  0.061%)
 integral evaluation            ...        0 min,  0.455 sec ( 11.877%)
 iterations                     ...        0 min,  2.293 sec ( 59.883%)
 molecular gradient             ...        0 min,  1.033 sec ( 26.988%)
 printout                       ...        0 min,  0.035 sec (  0.916%)

         :::::::::::::::::::::::::::::::::::::::::::::::::::::
         ::                     SUMMARY                     ::
         :::::::::::::::::::::::::::::::::::::::::::::::::::::
         :: total energy            -397.153472120323 Eh    ::
         :: gradient norm              0.120775122601 Eh/a0 ::
         :: HOMO-LUMO gap              1.139338882357 eV    ::
         ::.................................................::
         :: SCC energy              -404.104108223041 Eh    ::
         :: -> electrostatic           0.346102916317 Eh    ::
         :: repulsion energy           7.115252117511 Eh    ::
         :: dispersion energy         -0.164616014793 Eh    ::
         :: halogen bond corr.         0.000000000000 Eh    ::
         :: add. restraining           0.000000000000 Eh    ::
         :: total charge               0.000000000000 e     ::
         :::::::::::::::::::::::::::::::::::::::::::::::::::::

           ------------------------------------------------- 
          |        vertical delta SCC IP calculation        |
           ------------------------------------------------- 
   1   -403.6818341 -0.403682E+03  0.122E-01    1.14       0.0  T
   2   -403.6867403 -0.490626E-02  0.938E-02    1.13       1.0  T
   3   -403.6906709 -0.393058E-02  0.575E-02    1.13       1.0  T
   4   -403.6913260 -0.655096E-03  0.327E-02    1.13       1.0  T
   5   -403.6912553  0.706649E-04  0.235E-02    1.13       1.0  T
   6   -403.6911010  0.154333E-03  0.221E-02    1.13       1.0  T
   7   -403.6914145 -0.313472E-03  0.930E-03    1.13       1.0  T
   8   -403.6914750 -0.605105E-04  0.238E-03    1.13       3.1  T
   9   -403.6914767 -0.176577E-05  0.135E-03    1.13       5.4  T
  10   -403.6914773 -0.552782E-06  0.579E-04    1.13      12.7  T
  11   -403.6914774 -0.120003E-06  0.242E-04    1.13      30.3  T
  12   -403.6914774 -0.137479E-07  0.110E-04    1.13      66.5  T
  13   -403.6914774 -0.461506E-08  0.523E-05    1.13     140.1  T
     SCC iter.                  ...        0 min,  1.984 sec
     gradient                   ...        0 min,  1.060 sec
------------------------------------------------------------------------
empirical IP shift (eV):    4.8455
delta SCC IP (eV):    6.3828
------------------------------------------------------------------------
           ------------------------------------------------- 
          |        vertical delta SCC EA calculation        |
           ------------------------------------------------- 
   1   -404.3767763 -0.404377E+03  0.219E-01    0.36       0.0  T
   2   -404.3950347 -0.182584E-01  0.187E-01    0.10       1.0  T
   3   -404.4115614 -0.165267E-01  0.986E-02    0.22       1.0  T
   4   -404.4134452 -0.188387E-02  0.651E-02    0.15       1.0  T
   5   -404.4132066  0.238688E-03  0.400E-02    0.14       1.0  T
   6   -404.4122013  0.100526E-02  0.380E-02    0.13       1.0  T
   7   -404.4138326 -0.163133E-02  0.149E-02    0.15       1.0  T
   8   -404.4140699 -0.237298E-03  0.435E-03    0.15       1.7  T
   9   -404.4140777 -0.781965E-05  0.245E-03    0.15       3.0  T
  10   -404.4140807 -0.294301E-05  0.957E-04    0.15       7.7  T
  11   -404.4140810 -0.285966E-06  0.462E-04    0.15      15.9  T
  12   -404.4140810 -0.481007E-07  0.238E-04    0.15      30.8  T
  13   -404.4140810 -0.147481E-07  0.111E-04    0.15      66.1  T
  14   -404.4140810 -0.388320E-08  0.466E-05    0.15     157.2  T
     SCC iter.                  ...        0 min,  2.186 sec
     gradient                   ...        0 min,  1.078 sec
------------------------------------------------------------------------
empirical EA shift (eV):    4.8455
delta SCC EA (eV):    3.5893
------------------------------------------------------------------------
           -------------------------------------------------
          |                Property Printout                |
           -------------------------------------------------

    * Orbital Energies and Occupations

         #    Occupation            Energy/Eh            Energy/eV
      -------------------------------------------------------------
         1        2.0000           -1.1468876             -31.2084
       ...           ...                  ...                  ...
       298        2.0000           -0.3845747             -10.4648
       299        2.0000           -0.3831595             -10.4263
       300        2.0000           -0.3815664             -10.3829
       301        2.0000           -0.3813400             -10.3768
       302        2.0000           -0.3788593             -10.3093
       303        2.0000           -0.3768661             -10.2550
       304        2.0000           -0.3521631              -9.5828
       305        2.0000           -0.3518995              -9.5757
       306        2.0000           -0.3477934              -9.4639
       307        2.0000           -0.3465009              -9.4288
       308        2.0000           -0.3369048              -9.1676
       309        2.0000           -0.3226229              -8.7790
       310        0.9334           -0.2803255              -7.6280 (HOMO)
       311        0.0443           -0.2748980              -7.4804 (LUMO)
       312        0.0220           -0.2742132              -7.4617
       313        0.0002           -0.2699037              -7.3445
       314        0.0000           -0.2678519              -7.2886
       315        0.0000           -0.2636578              -7.1745
       316        0.0000           -0.2633195              -7.1653
       317                         -0.2598941              -7.0721
       318                         -0.2561047              -6.9690
       319                         -0.2553332              -6.9480
       320                         -0.2530476              -6.8858
       321                         -0.2529071              -6.8820
       ...                                ...                  ...
       762                        589.1397715           16031.3092
      -------------------------------------------------------------
                  HL-Gap            0.0054275 Eh            0.1477 eV
             Fermi-level           -0.2896466 Eh           -7.8817 eV

  Mulliken/CM5 charges         n(s)   n(p)   n(d)
     1C    -0.02674 -0.06758   1.085  2.942  0.000
     2C     0.06087  0.12125   1.105  2.834  0.000
     3C    -0.03742 -0.08278   1.079  2.958  0.000
     4C    -0.03564 -0.08064   1.073  2.963  0.000
     5C     0.05994  0.12402   1.097  2.843  0.000
     6N    -0.16007 -0.51318   1.312  3.848  0.000
     7C     0.00593  0.01167   1.087  2.908  0.000
     8C     0.01890  0.01035   1.095  2.886  0.000
     9C    -0.01432 -0.06743   1.077  2.937  0.000
    10C    -0.00848 -0.05520   1.091  2.917  0.000
    11C     0.04307  0.09756   1.117  2.840  0.000
    12N     0.29626  0.12421   1.470  3.233  0.000
    13O    -0.27550 -0.23453   1.675  4.601  0.000
    14O    -0.27643 -0.23546   1.675  4.602  0.000
    15C    -0.00932 -0.05603   1.091  2.918  0.000
    16C    -0.01601 -0.06898   1.075  2.941  0.000
    17C     0.05695  0.12512   1.115  2.828  0.000
    18C    -0.03909 -0.08520   1.080  2.959  0.000
    19C    -0.03650 -0.08239   1.085  2.951  0.000
    20N    -0.28663 -0.47307   1.293  3.993  0.000
    21C     0.06341  0.13395   1.130  2.807  0.000
    22C     0.01465  0.02176   1.084  2.901  0.000
    23C     0.06393  0.12864   1.108  2.828  0.000
    24C    -0.03439 -0.07919   1.072  2.962  0.000
    25C    -0.03607 -0.08112   1.069  2.968  0.000
    26C     0.05907  0.12248   1.096  2.845  0.000
    27N    -0.15768 -0.50977   1.315  3.842  0.000
    28C     0.00387  0.00967   1.085  2.911  0.000
    29C     0.01805  0.00952   1.094  2.888  0.000
    30C    -0.01559 -0.06866   1.077  2.938  0.000
    31C    -0.00948 -0.05620   1.091  2.918  0.000
    32C     0.04243  0.09694   1.117  2.841  0.000
    33N     0.29447  0.12242   1.470  3.235  0.000
    34O    -0.27770 -0.23672   1.675  4.603  0.000
    35O    -0.27735 -0.23642   1.675  4.603  0.000
    36C    -0.00952 -0.05623   1.091  2.919  0.000
    37C    -0.01597 -0.06898   1.075  2.941  0.000
    38C     0.05896  0.12844   1.119  2.822  0.000
    39C    -0.03959 -0.08564   1.084  2.955  0.000
    40C    -0.04054 -0.08698   1.092  2.949  0.000
    41C     0.05807  0.12372   1.125  2.817  0.000
    42N    -0.29058 -0.47755   1.292  3.999  0.000
    43H     0.02584  0.08488   0.974  0.000  0.000
    44H     0.03737  0.09408   0.963  0.000  0.000
    45H     0.02984  0.08859   0.970  0.000  0.000
    46H     0.16310  0.37133   0.837  0.000  0.000
    47H     0.03592  0.09395   0.964  0.000  0.000
    48H     0.05245  0.11638   0.948  0.000  0.000
    49H     0.05130  0.11523   0.949  0.000  0.000
    50H     0.03545  0.09348   0.965  0.000  0.000
    51H     0.02230  0.08117   0.978  0.000  0.000
    52H     0.02035  0.07893   0.980  0.000  0.000
    53H     0.02885  0.08741   0.971  0.000  0.000
    54H     0.03069  0.08954   0.969  0.000  0.000
    55H     0.16045  0.36864   0.840  0.000  0.000
    56H     0.03440  0.09245   0.966  0.000  0.000
    57H     0.05076  0.11467   0.949  0.000  0.000
    58H     0.05141  0.11535   0.949  0.000  0.000
    59H     0.03540  0.09343   0.965  0.000  0.000
    60H     0.02095  0.07970   0.979  0.000  0.000
    61H     0.02810  0.08457   0.972  0.000  0.000
    62C    -0.02655 -0.06740   1.085  2.942  0.000
    63C     0.06078  0.12116   1.105  2.834  0.000
    64C    -0.03741 -0.08277   1.079  2.958  0.000
    65C    -0.03564 -0.08068   1.073  2.963  0.000
    66C     0.06002  0.12408   1.097  2.843  0.000
    67N    -0.16004 -0.51314   1.312  3.848  0.000
    68C     0.00580  0.01156   1.086  2.908  0.000
    69C     0.01864  0.01012   1.094  2.887  0.000
    70C    -0.01415 -0.06723   1.077  2.937  0.000
    71C    -0.00833 -0.05506   1.091  2.917  0.000
    72C     0.04297  0.09747   1.117  2.840  0.000
    73N     0.29588  0.12382   1.470  3.234  0.000
    74O    -0.27508 -0.23408   1.675  4.600  0.000
    75O    -0.27724 -0.23632   1.675  4.602  0.000
    76C    -0.00967 -0.05638   1.091  2.919  0.000
    77C    -0.01624 -0.06922   1.075  2.941  0.000
    78C     0.05711  0.12531   1.115  2.828  0.000
    79C    -0.03901 -0.08512   1.080  2.959  0.000
    80C    -0.03646 -0.08223   1.086  2.951  0.000
    81N    -0.28628 -0.47290   1.293  3.993  0.000
    82C     0.06360  0.13422   1.130  2.807  0.000
    83C     0.01471  0.02183   1.084  2.902  0.000
    84C     0.06383  0.12858   1.108  2.828  0.000
    85C    -0.03452 -0.07922   1.073  2.961  0.000
    86C    -0.03621 -0.08126   1.069  2.967  0.000
    87C     0.05913  0.12258   1.096  2.845  0.000
    88N    -0.15756 -0.50980   1.315  3.842  0.000
    89C     0.00361  0.00943   1.085  2.912  0.000
    90C     0.01784  0.00934   1.094  2.888  0.000
    91C    -0.01563 -0.06873   1.077  2.938  0.000
    92C    -0.00970 -0.05643   1.091  2.919  0.000
    93C     0.04233  0.09686   1.117  2.841  0.000
    94N     0.29412  0.12205   1.470  3.236  0.000
    95O    -0.27838 -0.23743   1.675  4.604  0.000
    96O    -0.27716 -0.23621   1.675  4.603  0.000
    97C    -0.00952 -0.05623   1.091  2.919  0.000
    98C    -0.01602 -0.06900   1.075  2.941  0.000
    99C     0.05905  0.12852   1.119  2.822  0.000
   100C    -0.03957 -0.08567   1.084  2.955  0.000
   101C    -0.04052 -0.08697   1.091  2.949  0.000
   102C     0.05799  0.12362   1.125  2.817  0.000
   103N    -0.29053 -0.47758   1.292  3.999  0.000
   104H     0.02582  0.08487   0.974  0.000  0.000
   105H     0.03732  0.09402   0.963  0.000  0.000
   106H     0.02974  0.08847   0.970  0.000  0.000
   107H     0.16303  0.37134   0.837  0.000  0.000
   108H     0.03636  0.09445   0.964  0.000  0.000
   109H     0.05306  0.11697   0.947  0.000  0.000
   110H     0.05078  0.11473   0.949  0.000  0.000
   111H     0.03510  0.09320   0.965  0.000  0.000
   112H     0.02157  0.08039   0.978  0.000  0.000
   113H     0.01999  0.07843   0.980  0.000  0.000
   114H     0.02858  0.08701   0.971  0.000  0.000
   115H     0.02998  0.08878   0.970  0.000  0.000
   116H     0.16053  0.36875   0.839  0.000  0.000
   117H     0.03403  0.09217   0.966  0.000  0.000
   118H     0.05036  0.11429   0.950  0.000  0.000
   119H     0.05174  0.11567   0.948  0.000  0.000
   120H     0.03580  0.09388   0.964  0.000  0.000
   121H     0.02086  0.07959   0.979  0.000  0.000
   122H     0.02810  0.08457   0.972  0.000  0.000
   123C    -0.02996 -0.03227   1.066  2.964  0.000
   124C    -0.02663 -0.02892   1.070  2.957  0.000
   125C    -0.02662 -0.02892   1.069  2.957  0.000
   126C    -0.02981 -0.03214   1.066  2.964  0.000
   127C     0.00963  0.01679   1.079  2.911  0.000
   128C     0.06385  0.12856   1.109  2.827  0.000
   129C    -0.03708 -0.08190   1.071  2.966  0.000
   130C    -0.03645 -0.08146   1.069  2.967  0.000
   131C     0.05673  0.12020   1.093  2.851  0.000
   132N    -0.15759 -0.50989   1.315  3.843  0.000
   133C     0.00788  0.01352   1.089  2.904  0.000
   134C     0.01962  0.01098   1.096  2.885  0.000
   135C    -0.01410 -0.06717   1.077  2.937  0.000
   136C    -0.00831 -0.05504   1.091  2.917  0.000
   137C     0.04307  0.09748   1.117  2.840  0.000
   138N     0.29679  0.12476   1.471  3.233  0.000
   139O    -0.27621 -0.23527   1.675  4.601  0.000
   140O    -0.27482 -0.23379   1.675  4.600  0.000
   141C    -0.00913 -0.05585   1.091  2.918  0.000
   142C    -0.01531 -0.06832   1.075  2.940  0.000
   143C     0.05561  0.12380   1.113  2.831  0.000
   144C    -0.03936 -0.08542   1.081  2.958  0.000
   145C    -0.03837 -0.08415   1.085  2.954  0.000
   146N    -0.28727 -0.47336   1.292  3.995  0.000
   147C     0.06320  0.13382   1.130  2.807  0.000
   148C     0.00965  0.01683   1.078  2.912  0.000
   149C     0.06392  0.12869   1.109  2.827  0.000
   150C    -0.03715 -0.08187   1.071  2.966  0.000
   151C    -0.03653 -0.08151   1.070  2.966  0.000
   152C     0.05676  0.12028   1.093  2.851  0.000
   153N    -0.15744 -0.50989   1.314  3.843  0.000
   154C     0.00781  0.01345   1.088  2.904  0.000
   155C     0.01967  0.01102   1.096  2.885  0.000
   156C    -0.01518 -0.06816   1.076  2.940  0.000
   157C    -0.00882 -0.05553   1.091  2.918  0.000
   158C     0.04310  0.09753   1.117  2.840  0.000
   159N     0.29687  0.12483   1.471  3.233  0.000
   160O    -0.27578 -0.23480   1.675  4.601  0.000
   161O    -0.27520 -0.23420   1.675  4.600  0.000
   162C    -0.00860 -0.05534   1.091  2.917  0.000
   163C    -0.01421 -0.06734   1.077  2.937  0.000
   164C     0.05552  0.12366   1.113  2.831  0.000
   165C    -0.03939 -0.08550   1.081  2.959  0.000
   166C    -0.03839 -0.08430   1.084  2.954  0.000
   167C     0.06295  0.13347   1.130  2.807  0.000
   168N    -0.28759 -0.47362   1.292  3.995  0.000
   169H     0.02664  0.08515   0.973  0.000  0.000
   170H     0.02909  0.08800   0.971  0.000  0.000
   171H     0.16026  0.36816   0.840  0.000  0.000
   172H     0.03608  0.09406   0.964  0.000  0.000
   173H     0.05238  0.11629   0.948  0.000  0.000
   174H     0.05119  0.11515   0.949  0.000  0.000
   175H     0.03554  0.09355   0.964  0.000  0.000
   176H     0.02008  0.07894   0.980  0.000  0.000
   177H     0.01783  0.07623   0.982  0.000  0.000
   178H     0.02656  0.08495   0.973  0.000  0.000
   179H     0.02857  0.08744   0.971  0.000  0.000
   180H     0.16041  0.36827   0.840  0.000  0.000
   181H     0.03621  0.09421   0.964  0.000  0.000
   182H     0.05200  0.11592   0.948  0.000  0.000
   183H     0.05156  0.11550   0.948  0.000  0.000
   184H     0.03539  0.09340   0.965  0.000  0.000
   185H     0.02074  0.07966   0.979  0.000  0.000
   186H     0.01820  0.07672   0.982  0.000  0.000

Wiberg/Mayer (AO) data.
largest (>0.10) Wiberg bond orders for each atom

 ---------------------------------------------------------------------------
     #   Z sym  total        # sym  WBO       # sym  WBO       # sym  WBO
 ---------------------------------------------------------------------------
     1   6 C    3.800 --    41 C    1.386     2 C    1.366    43 H    0.996
     2   6 C    3.921 --     1 C    1.366     3 C    1.243     6 N    1.230
     3   6 C    3.829 --     4 C    1.591     2 C    1.243    44 H    0.993
     4   6 C    3.816 --     3 C    1.591     5 C    1.253    45 H    0.999
     5   6 C    3.890 --     7 C    1.336     4 C    1.253     6 N    1.228
     6   7 N    3.242 --     2 C    1.230     5 C    1.228    46 H    0.962
     7   6 C    3.831 --    17 C    1.365     5 C    1.336     8 C    1.058
     8   6 C    3.895 --     9 C    1.413    16 C    1.413     7 C    1.058
     9   6 C    3.863 --    10 C    1.467     8 C    1.413    47 H    0.988
    10   6 C    3.897 --     9 C    1.467    11 C    1.403    48 H    0.986
    11   6 C    3.931 --    15 C    1.404    10 C    1.403    12 N    1.006
    12   7 N    4.106 --    13 O    1.565    14 O    1.565    11 C    1.006
    13   8 O    2.005 --    12 N    1.565    14 O    0.379
    14   8 O    2.004 --    12 N    1.565    13 O    0.379
    15   6 C    3.897 --    16 C    1.467    11 C    1.404    49 H    0.986
    16   6 C    3.859 --    15 C    1.467     8 C    1.413    50 H    0.987
    17   6 C    3.919 --     7 C    1.365    20 N    1.355    18 C    1.162
    18   6 C    3.828 --    19 C    1.690    17 C    1.162    51 H    0.998
    19   6 C    3.828 --    18 C    1.690    21 C    1.169    52 H    0.999
    20   7 N    2.552 --    21 C    1.414    17 C    1.355
    21   6 C    3.940 --    20 N    1.414    22 C    1.290    19 C    1.169
    22   6 C    3.824 --    21 C    1.290    23 C    1.279   123 C    1.217
    23   6 C    3.896 --    22 C    1.279    24 C    1.277    27 N    1.250
    24   6 C    3.805 --    25 C    1.569    23 C    1.277    53 H    0.999
    25   6 C    3.798 --    24 C    1.569    26 C    1.266    54 H    0.998
    26   6 C    3.882 --    28 C    1.328    25 C    1.266    27 N    1.226
    27   7 N    3.256 --    23 C    1.250    26 C    1.226    55 H    0.961
    28   6 C    3.810 --    38 C    1.362    26 C    1.328    29 C    1.061
    29   6 C    3.892 --    37 C    1.411    30 C    1.410    28 C    1.061
    30   6 C    3.861 --    31 C    1.469    29 C    1.410    56 H    0.988
    31   6 C    3.896 --    30 C    1.469    32 C    1.402    57 H    0.986
    32   6 C    3.929 --    31 C    1.402    36 C    1.402    33 N    1.008
    33   7 N    4.102 --    35 O    1.563    34 O    1.563    32 C    1.008
    34   8 O    1.999 --    33 N    1.563    35 O    0.377
    35   8 O    1.999 --    33 N    1.563    34 O    0.377
    36   6 C    3.895 --    37 C    1.468    32 C    1.402    58 H    0.986
    37   6 C    3.857 --    36 C    1.468    29 C    1.411    59 H    0.988
    38   6 C    3.943 --    42 N    1.378    28 C    1.362    39 C    1.150
    39   6 C    3.839 --    40 C    1.709    38 C    1.150    60 H    0.999
    40   6 C    3.860 --    39 C    1.709    41 C    1.146    61 H    0.993
    41   6 C    3.965 --     1 C    1.386    42 N    1.373    40 C    1.146
    42   7 N    2.534 --    38 C    1.378    41 C    1.373
    43   1 H    1.033 --     1 C    0.996
    44   1 H    1.017 --     3 C    0.993
    45   1 H    1.031 --     4 C    0.999
    46   1 H    1.082 --     6 N    0.962
    47   1 H    1.046 --     9 C    0.988
    48   1 H    1.030 --    10 C    0.986
    49   1 H    1.030 --    15 C    0.986
    50   1 H    1.043 --    16 C    0.987
    51   1 H    1.033 --    18 C    0.998
    52   1 H    1.038 --    19 C    0.999
    53   1 H    1.034 --    24 C    0.999
    54   1 H    1.029 --    25 C    0.998
    55   1 H    1.086 --    27 N    0.961
    56   1 H    1.046 --    30 C    0.988
    57   1 H    1.031 --    31 C    0.986
    58   1 H    1.030 --    36 C    0.986
    59   1 H    1.043 --    37 C    0.988
    60   1 H    1.034 --    39 C    0.999
    61   1 H    1.019 --    40 C    0.993
    62   6 C    3.800 --   102 C    1.387    63 C    1.366   104 H    0.996
    63   6 C    3.921 --    62 C    1.366    64 C    1.243    67 N    1.230
    64   6 C    3.828 --    65 C    1.591    63 C    1.243   105 H    0.993
    65   6 C    3.816 --    64 C    1.591    66 C    1.254   106 H    0.999
    66   6 C    3.890 --    68 C    1.335    65 C    1.254    67 N    1.228
    67   7 N    3.242 --    63 C    1.230    66 C    1.228   107 H    0.961
    68   6 C    3.830 --    78 C    1.364    66 C    1.335    69 C    1.061
    69   6 C    3.894 --    70 C    1.412    77 C    1.411    68 C    1.061
    70   6 C    3.861 --    71 C    1.468    69 C    1.412   108 H    0.987
    71   6 C    3.896 --    70 C    1.468    72 C    1.403   109 H    0.985
    72   6 C    3.931 --    71 C    1.403    76 C    1.403    73 N    1.007
    73   7 N    4.105 --    74 O    1.566    75 O    1.564    72 C    1.007
    74   8 O    2.004 --    73 N    1.566    75 O    0.379
    75   8 O    2.002 --    73 N    1.564    74 O    0.379
    76   6 C    3.896 --    77 C    1.468    72 C    1.403   110 H    0.986
    77   6 C    3.858 --    76 C    1.468    69 C    1.411   111 H    0.987
    78   6 C    3.919 --    68 C    1.364    81 N    1.356    79 C    1.162
    79   6 C    3.829 --    80 C    1.689    78 C    1.162   112 H    0.998
    80   6 C    3.830 --    79 C    1.689    82 C    1.168   113 H    0.999
    81   7 N    2.551 --    82 C    1.414    78 C    1.356
    82   6 C    3.940 --    81 N    1.414    83 C    1.289    80 C    1.168
    83   6 C    3.824 --    82 C    1.289    84 C    1.279   126 C    1.217
    84   6 C    3.897 --    83 C    1.279    85 C    1.277    88 N    1.249
    85   6 C    3.807 --    86 C    1.568    84 C    1.277   114 H    0.999
    86   6 C    3.800 --    85 C    1.568    87 C    1.267   115 H    0.998
    87   6 C    3.882 --    89 C    1.326    86 C    1.267    88 N    1.226
    88   7 N    3.256 --    84 C    1.249    87 C    1.226   116 H    0.961
    89   6 C    3.809 --    99 C    1.360    87 C    1.326    90 C    1.064
    90   6 C    3.891 --    98 C    1.409    91 C    1.409    89 C    1.064
    91   6 C    3.861 --    92 C    1.469    90 C    1.409   117 H    0.988
    92   6 C    3.895 --    91 C    1.469    93 C    1.401   118 H    0.986
    93   6 C    3.928 --    92 C    1.401    97 C    1.401    94 N    1.008
    94   7 N    4.101 --    96 O    1.563    95 O    1.562    93 C    1.008
    95   8 O    1.997 --    94 N    1.562    96 O    0.377
    96   8 O    1.998 --    94 N    1.563    95 O    0.377
    97   6 C    3.894 --    98 C    1.469    93 C    1.401   119 H    0.986
    98   6 C    3.857 --    97 C    1.469    90 C    1.409   120 H    0.987
    99   6 C    3.943 --   103 N    1.378    89 C    1.360   100 C    1.151
   100   6 C    3.839 --   101 C    1.708    99 C    1.151   121 H    0.999
   101   6 C    3.860 --   100 C    1.708   102 C    1.146   122 H    0.993
   102   6 C    3.965 --    62 C    1.387   103 N    1.373   101 C    1.146
   103   7 N    2.533 --    99 C    1.378   102 C    1.373
   104   1 H    1.033 --    62 C    0.996
   105   1 H    1.017 --    64 C    0.993
   106   1 H    1.031 --    65 C    0.999
   107   1 H    1.082 --    67 N    0.961
   108   1 H    1.046 --    70 C    0.987
   109   1 H    1.029 --    71 C    0.985
   110   1 H    1.030 --    76 C    0.986
   111   1 H    1.043 --    77 C    0.987
   112   1 H    1.034 --    79 C    0.998
   113   1 H    1.039 --    80 C    0.999
   114   1 H    1.033 --    85 C    0.999
   115   1 H    1.030 --    86 C    0.998
   116   1 H    1.086 --    88 N    0.961
   117   1 H    1.047 --    91 C    0.988
   118   1 H    1.031 --    92 C    0.986
   119   1 H    1.030 --    97 C    0.986
   120   1 H    1.043 --    98 C    0.987
   121   1 H    1.035 --   100 C    0.999
   122   1 H    1.019 --   101 C    0.993
   123   6 C    3.752 --   124 C    2.603    22 C    1.217
   124   6 C    3.755 --   123 C    2.603   127 C    1.219
   125   6 C    3.755 --   126 C    2.603   148 C    1.219
   126   6 C    3.752 --   125 C    2.603    83 C    1.217
   127   6 C    3.806 --   167 C    1.285   128 C    1.274   124 C    1.219
   128   6 C    3.901 --   129 C    1.279   127 C    1.274   132 N    1.254
   129   6 C    3.799 --   130 C    1.565   128 C    1.279   169 H    0.999
   130   6 C    3.804 --   129 C    1.565   131 C    1.270   170 H    0.999
   131   6 C    3.878 --   133 C    1.326   130 C    1.270   132 N    1.222
   132   7 N    3.245 --   128 C    1.254   131 C    1.222   171 H    0.963
   133   6 C    3.822 --   143 C    1.378   131 C    1.326   134 C    1.056
   134   6 C    3.896 --   135 C    1.414   142 C    1.414   133 C    1.056
   135   6 C    3.863 --   136 C    1.466   134 C    1.414   172 H    0.987
   136   6 C    3.897 --   135 C    1.466   137 C    1.404   173 H    0.986
   137   6 C    3.932 --   136 C    1.404   141 C    1.404   138 N    1.005
   138   7 N    4.108 --   140 O    1.567   139 O    1.566   137 C    1.005
   139   8 O    2.006 --   138 N    1.566   140 O    0.380
   140   8 O    2.008 --   138 N    1.567   139 O    0.380
   141   6 C    3.897 --   142 C    1.467   137 C    1.404   174 H    0.986
   142   6 C    3.859 --   141 C    1.467   134 C    1.414   175 H    0.988
   143   6 C    3.922 --   133 C    1.378   146 N    1.348   144 C    1.160
   144   6 C    3.832 --   145 C    1.690   143 C    1.160   176 H    0.999
   145   6 C    3.828 --   144 C    1.690   147 C    1.168   177 H    1.000
   146   7 N    2.534 --   147 C    1.420   143 C    1.348
   147   6 C    3.943 --   146 N    1.420   148 C    1.285   145 C    1.168
   148   6 C    3.806 --   147 C    1.285   149 C    1.275   125 C    1.219
   149   6 C    3.902 --   150 C    1.279   148 C    1.275   153 N    1.253
   150   6 C    3.802 --   151 C    1.565   149 C    1.279   178 H    0.999
   151   6 C    3.806 --   150 C    1.565   152 C    1.270   179 H    0.999
   152   6 C    3.877 --   154 C    1.326   151 C    1.270   153 N    1.222
   153   7 N    3.244 --   149 C    1.253   152 C    1.222   180 H    0.963
   154   6 C    3.821 --   164 C    1.378   152 C    1.326   155 C    1.056
   155   6 C    3.896 --   163 C    1.415   156 C    1.414   154 C    1.056
   156   6 C    3.859 --   157 C    1.466   155 C    1.414   181 H    0.987
   157   6 C    3.897 --   156 C    1.466   158 C    1.404   182 H    0.986
   158   6 C    3.932 --   162 C    1.404   157 C    1.404   159 N    1.005
   159   7 N    4.108 --   161 O    1.567   160 O    1.566   158 C    1.005
   160   8 O    2.006 --   159 N    1.566   161 O    0.380
   161   8 O    2.007 --   159 N    1.567   160 O    0.380
   162   6 C    3.897 --   163 C    1.467   158 C    1.404   183 H    0.986
   163   6 C    3.862 --   162 C    1.467   155 C    1.415   184 H    0.988
   164   6 C    3.922 --   154 C    1.378   168 N    1.348   165 C    1.160
   165   6 C    3.830 --   166 C    1.691   164 C    1.160   185 H    0.999
   166   6 C    3.826 --   165 C    1.691   167 C    1.169   186 H    0.999
   167   6 C    3.943 --   168 N    1.419   127 C    1.285   166 C    1.169
   168   7 N    2.534 --   167 C    1.419   164 C    1.348
   169   1 H    1.032 --   129 C    0.999
   170   1 H    1.029 --   130 C    0.999
   171   1 H    1.083 --   132 N    0.963
   172   1 H    1.045 --   135 C    0.987
   173   1 H    1.030 --   136 C    0.986
   174   1 H    1.030 --   141 C    0.986
   175   1 H    1.043 --   142 C    0.988
   176   1 H    1.036 --   144 C    0.999
   177   1 H    1.038 --   145 C    1.000
   178   1 H    1.032 --   150 C    0.999
   179   1 H    1.030 --   151 C    0.999
   180   1 H    1.083 --   153 N    0.963
   181   1 H    1.042 --   156 C    0.987
   182   1 H    1.030 --   157 C    0.986
   183   1 H    1.030 --   162 C    0.986
   184   1 H    1.046 --   163 C    0.988
   185   1 H    1.035 --   165 C    0.999
   186   1 H    1.038 --   166 C    0.999
 ---------------------------------------------------------------------------

Topologies differ in total number of bonds
Writing topology from bond orders to xtbtopo.mol

 dipole moment from electron density (au)
     X       Y       Z   
 -87.1478   0.0579   0.1232  total (Debye):  221.508


           -------------------------------------------------
          | TOTAL ENERGY             -397.463444933269 Eh   |
          | GRADIENT NORM               0.135867966701 Eh/α |
          | HOMO-LUMO GAP               0.147688843017 eV   |
           -------------------------------------------------
########################################################################
[WARNING] Runtime exception occurred
-1- restart_readRestart: Dimension missmatch in restart file.
########################################################################

------------------------------------------------------------------------
 * finished run on 2022/07/30 at 03:38:11.460     
------------------------------------------------------------------------
 total:
 * wall-time:     0 d,  0 h,  0 min, 11.608 sec
 *  cpu-time:     0 d,  0 h,  0 min, 11.561 sec
 * ratio c/w:     0.996 speedup
 SCF:
 * wall-time:     0 d,  0 h,  0 min, 11.151 sec
 *  cpu-time:     0 d,  0 h,  0 min, 11.110 sec
 * ratio c/w:     0.996 speedup

