334
 energy: -591.614371833210 gnorm: 0.000865563942 xtb: 6.5.1 (b24c23e)
C           51.32621680041643       -0.09906575869777       -0.06362905009342
C           51.94717669444756       -1.30599309959245       -0.35784764982830
C           51.30754276814634       -2.53488296122510       -0.68394565178015
C           52.27855344445977       -3.47531879507141       -0.88267055063974
C           53.54285659569812       -2.85289665473808       -0.67522112844698
N           53.29247076906518       -1.54507243970806       -0.37261949965628
C           54.81216250356808       -3.43378647194764       -0.77952552496312
C           54.85813399195925       -4.88186903581303       -1.08946630282800
C           55.49244912360960       -5.33822103185837       -2.24919296441007
C           55.53425816118178       -6.68876321978111       -2.53648139884271
C           54.94760833969386       -7.61574059311152       -1.66843815305702
C           55.01002142742309       -9.05212260505282       -1.99445140103396
O           55.53910644146205       -9.49168752208166       -2.98308946912931
C           54.31458378457596       -7.16148523438133       -0.50896998023589
C           54.26769136144993       -5.80824433789949       -0.22506667143211
C           56.02192896732895       -2.75449894012160       -0.61290714258779
C           57.32513625241751       -3.39291123387212       -0.66739463907428
C           58.23617511511689       -2.41891060845142       -0.46575354261540
N           56.16288902189959       -1.42476868914843       -0.35903515064000
C           57.48832944750671       -1.19078101249861       -0.27674928637076
C           58.11328191716209        0.05230244634335       -0.05053881724145
C           57.46569932564964        1.27770934655947        0.19541401799547
C           58.09775755623315        2.53112049105712        0.41017379581747
C           57.12247725093489        3.46186073121842        0.63786271642881
C           55.86360602785445        2.80189128550105        0.57647077393579
N           56.12260356469022        1.48663883592724        0.29630282184707
C           54.59560972099813        3.37233189839550        0.73515994195507
C           54.55124003302700        4.81333128334754        1.07335277354087
C           55.15550643422307        5.28423647610679        2.24357735588346
C           55.11096329526752        6.62794229757242        2.56067270762978
C           54.46642865634808        7.53442682370513        1.71228190586189
C           54.43617776160657        8.96389769471037        2.07109951690644
O           54.94313905547530        9.41480068972670        3.06631779987186
C           53.86485188044126        7.06617992189068        0.54156196175677
C           53.90506812429645        5.71954613769045        0.22739194897379
C           53.38466171694315        2.68399502337629        0.59951931534189
C           52.07459876306207        3.27874233581820        0.81681601280143
C           51.17060139198709        2.30576776509244        0.58628134288921
C           51.92720124475626        1.11432211520911        0.24325994998764
N           53.25710337353728        1.37724435104568        0.27062818169235
H           50.24106713533805       -0.11720411939774       -0.07125723153268
H           50.24008686048435       -2.66740289605436       -0.75901554391221
H           52.13768913423365       -4.50778242543726       -1.15848176495655
H           54.01092194562840       -0.85282952704857       -0.18857963842710
H           55.93729495382002       -4.62145377555723       -2.93008113894209
H           56.01988803070359       -7.05015096200326       -3.43657750975010
H           54.52258186504835       -9.71123232311869       -1.24464021702241
H           53.86040697245853       -7.87389777299286        0.17208854696957
H           53.78855012688079       -5.46060874006929        0.68336439942640
H           57.49776042858869       -4.44524409376228       -0.82402459906677
H           59.31084716231678       -2.49912892938665       -0.43372314145851
H           59.16357709048069        2.69107887707159        0.38677801045947
H           57.25958257239593        4.51499221419177        0.82112717348424
H           55.40746824951814        0.77665840809234        0.17731667426274
H           55.64297924113608        4.58271245837088        2.91123616213864
H           55.57135952781999        6.99935482669369        3.46992503408352
H           53.90074654873182        9.60637483806642        1.33989927369217
H           53.36652922414669        7.76308708515570       -0.12447343450500
H           53.44997697583630        5.36183182999953       -0.68929309893114
H           51.89597159663081        4.29831926766246        1.11814306756713
H           50.09468774891806        2.35557730602885        0.64506335160375
C          132.43933214912616        0.10748337170732       -0.04530841139406
C          131.81467247725820        1.27086999583797        0.38499633005052
C          132.44971929080879        2.48313542949073        0.77583834745591
C          131.47641959656355        3.36955942251674        1.14150210143992
C          130.21542525707565        2.72356295407322        0.99486171596647
N          130.46973584892083        1.46610955581889        0.52704136551294
C          128.94512134674977        3.25520251620254        1.24588823974097
C          128.89521249998631        4.63742395624678        1.77720365686471
C          128.24165551506150        5.64731233644284        1.06409933324049
C          128.19669389416421        6.93549204424420        1.56095312567186
C          128.79929693698000        7.24352872441901        2.78526309571181
C          128.73357643341120        8.62457776955503        3.29680319371541
O          128.18922610456764        9.52840256397973        2.71599112664722
C          129.45134565268481        6.23543663242840        3.49942665735693
C          129.50141960430034        4.94693100251095        2.99813394653347
C          127.73788232442982        2.58343945017639        1.03594956597520
C          126.43482482843956        3.13641844290856        1.36022273304629
C          125.52663630473074        2.19987632527765        1.01765644449896
N          127.60010879095947        1.32767481062004        0.52949152378145
C          126.27626254305379        1.07307570983123        0.49631026775656
C          125.65417569260462       -0.10182737155960        0.02782707590878
C          126.30417278488395       -1.25670276228025       -0.44644368052208
C          125.67387766584623       -2.43030487323986       -0.93849421885274
C          126.65183511726009       -3.31960116581118       -1.28765560656182
C          127.91095460411580       -2.71788073063580       -1.01064297313699
N          127.64885277491173       -1.46936398667985       -0.51262039157716
C          129.18104648560023       -3.26344335759686       -1.22852351320704
C          129.23109637499462       -4.64802931390720       -1.75126806956883
C          128.66053631313568       -5.70018473898099       -1.02768144509351
C          128.71026220759455       -6.99137057113359       -1.51610808472697
C          129.32630910777181       -7.26099751078328       -2.74276844293434
C          129.36261115765234       -8.64667226360904       -3.24429469960624
O          128.88512985151135       -9.58365937173460       -2.65703911156518
C          129.89454219883743       -6.21079955525256       -3.46800094353460
C          129.84929939194564       -4.91885525414329       -2.97562022038900
C          130.38995992256520       -2.59993705714641       -0.98979364326283
C          131.70331179308459       -3.20043172130674       -1.16796549775890
C          132.60407002504479       -2.25309911266802       -0.83898859334482
C          131.84258973903678       -1.07967862923156       -0.44799386182443
N          130.51301139067840       -1.32855973122118       -0.54216909047041
H          133.52410700120339        0.13778896685702       -0.06229947337828
H          133.51573098088360        2.64506877915207        0.76775027804770
H          131.61347548635686        4.38550616933282        1.47462062510859
H          129.75389724210046        0.77972124176207        0.31324284954336
H          127.78424903664920        5.41446045078174        0.10921499186882
H          127.69623632241486        7.72543487271800        1.01127914313409
H          129.23408326361704        8.77146923264748        4.27772105100553
H          129.91795038949198        6.46459309640778        4.45201511313862
H          129.99562054056514        4.16392022317908        3.56234345195038
H          126.26068162843170        4.10367450294292        1.80274761029828
H          124.45300634326101        2.23920142454837        1.10787628541235
H          124.60720932401739       -2.56513927344362       -1.01686755843476
H          126.51596437758842       -4.30150032236607       -1.71057312075287
H          128.36295636583520       -0.80106671021855       -0.24225087431422
H          128.19545311369274       -5.49767168653718       -0.06945230104976
H          128.27589377272631       -7.81339712388623       -0.95731975623882
H          129.87307987111774       -8.76371872447116       -4.22403108232712
H          130.37077274314581       -6.41034144585996       -4.42246583637078
H          130.27837973660999       -4.10411270541881       -3.54787958770034
H          131.88634018433342       -4.21388234717823       -1.48683279568829
H          133.68095523101559       -2.31513847746686       -0.84084341096102
C           59.51879171116296        0.08248368765304       -0.06231302875850
C           60.74306785461414        0.10441517046159       -0.07815448408007
C           62.08555530220789        0.11960919407791       -0.09377182046526
C           63.31618990356401        0.12667777373977       -0.10396393631563
C           64.65399995526870        0.12515444999885       -0.11200464914068
C           65.88482973256683        0.12099506540809       -0.11254308736939
C           67.22719309183979        0.10929731835060       -0.10952456156339
C           68.45187443447507        0.09484559890587       -0.09963116807926
C           78.11775819242501       -0.07115090841757       -0.00890859275368
C           79.34290104233703       -0.08062765663313       -0.01539234335555
C           80.68442719028518       -0.08266491627741       -0.02595620801463
C           81.91554946477896       -0.07473889938828       -0.04145665947453
C           83.25233063512655       -0.06491795369302       -0.05357132782525
C           84.48345766827383       -0.05055475922662       -0.06556923832559
C           85.82492106364809       -0.03793808024562       -0.07025261324518
C           87.05005606280852       -0.02405176399426       -0.06700898866838
C           96.71621111691636       -0.05232741616661        0.00250948238221
C           97.94137953106951       -0.05382219127557       -0.00839576005138
C           99.28283483066933       -0.04961441065229       -0.02215483077895
C          100.51394746855064       -0.03950116688630       -0.03836255597710
C          101.85071729994776       -0.02982476630395       -0.05146880769644
C          103.08187544431203       -0.01807552124970       -0.06197547713750
C          104.42341508657080       -0.01011980537431       -0.06428942651303
C          105.64859379440087       -0.00720574552886       -0.05913678433153
C          115.31522985769706       -0.12590954443278        0.01474678228766
C          116.53981687541723       -0.14451976791060        0.02139082916258
C          117.88225683732040       -0.15981732057048        0.02163723558362
C          119.11291915332932       -0.17101007645308        0.02075797602664
C          120.45084482870698       -0.17482931281554        0.02535081692537
C          121.68148109273594       -0.17028337478772        0.03126018730970
C          123.02419227490496       -0.15583501052663        0.03295498988694
C          124.24849388791544       -0.13450157490248        0.02720681384447
C           69.85644464782122        0.07491012484822       -0.08501115656307
C           70.50589805460181        0.99488755311453       -0.93059264795297
C           69.88008225645282        1.91138722107169       -1.81452055797176
C           70.86201734821964        2.63264992805196       -2.43698711539867
C           72.11641466301246        2.18252833583443       -1.94245194912979
N           71.85079897718012        1.18500688311458       -1.04349074617050
C           73.38783848294376        2.64326407617952       -2.30702918832528
C           73.43268724345042        3.76264045167124       -3.27762514894584
C           74.06476331826627        3.59974826754121       -4.51433485078623
C           74.11036172248475        4.64388401244193       -5.41761516331924
C           73.52999288621567        5.87728715549319       -5.10351024519633
C           73.59880946526465        6.97857071402482       -6.08151828985743
O           74.12812872454131        6.88405609612142       -7.15911098671727
C           72.89856184448101        6.04149348603197       -3.86835472135452
C           72.84770405568335        4.99332121608734       -2.96663762440213
C           74.60072110332277        2.13851979979231       -1.83458376443393
C           75.89803826457774        2.68765733647444       -2.18741490123296
C           76.81756139522322        1.93618012760842       -1.54790005090284
N           74.75311707651503        1.09088296894366       -0.97856023831100
C           76.08042296916190        0.93787990904492       -0.79844741256364
C           76.71414442720298       -0.04615303592691       -0.01241634761188
C           76.06435883801483       -1.01420462064643        0.77757692748103
C           76.68962927297879       -2.02426100706443        1.55326167976136
C           75.70775403734464       -2.73894603654794        2.18315422431966
C           74.45380689972828       -2.17857312201134        1.81595817106922
N           74.71989748004243       -1.14657515571549        0.95670556466367
C           73.18277530481153       -2.60074086057104        2.22541015793343
C           73.14164750671098       -3.72025201311473        3.19601477795482
C           72.50670987906219       -4.92015130314258        2.86310260351680
C           72.47034030249162       -5.96801790298354        3.76566920658590
C           73.06463366462899       -5.83502251113875        5.02287141286521
C           73.03904350882594       -6.93586314447688        6.00349082960168
O           73.54036704892015       -6.86950678292555        7.09649204096799
C           73.69729558837238       -4.63329513976772        5.35778996710930
C           73.73807364349997       -3.58924877250320        4.45398475027948
C           71.96951534336792       -2.05666856591009        1.79871545775867
C           70.67267454121314       -2.48120015451047        2.29575011480789
C           69.75300373674932       -1.73583972214255        1.64910165854133
C           70.48952904033116       -0.85137282041219        0.76782047357089
N           71.81701326958948       -1.05760537708222        0.88707421384318
H           68.81470060949363        1.99709951632214       -1.95471971046591
H           70.73073970087214        3.40149396354529       -3.18069946660012
H           72.55900219145418        0.66087430747216       -0.54046294789945
H           74.50588926518546        2.64163961652351       -4.76468682948789
H           74.59492833875704        4.52413107311272       -6.38065691993992
H           73.11513324231669        7.91966821776386       -5.74312902340773
H           72.44897011005432        6.99610798350648       -3.61502455013804
H           72.36984513615428        5.12900900924592       -2.00286485380936
H           76.06118804991539        3.54098250059433       -2.82527697082634
H           77.89127654960559        2.03279382942522       -1.55857830453211
H           77.75464352008819       -2.18020163531198        1.61212418578939
H           75.83873793202132       -3.58583216282266        2.83661694509147
H           74.01222044499407       -0.56911396896807        0.51510911563656
H           72.05593426682313       -5.03072713492386        1.88334707276822
H           71.98042340109950       -6.89806858822181        3.49635950361802
H           72.51283346930838       -7.84846012068245        5.65096149517652
H           74.15196079658163       -4.53711980701841        6.33792214765326
H           74.21710272463601       -2.65436276717755        4.72232961027547
H           70.50996032240882       -3.23583989984844        3.04795489689498
H           68.67953735661386       -1.75664951875885        1.74727080510361
C           88.45376658168730       -0.02086314895490       -0.05498154252838
C           89.08858326041350        0.90206900338943       -0.90893610287278
C           88.44830747369704        1.80233896465441       -1.79893908863663
C           89.41866286885855        2.53657893265198       -2.42459625704624
C           90.67991597389290        2.11079739237147       -1.92609281873032
N           90.43007366532926        1.11376899825007       -1.02185719925611
C           91.94381345714486        2.59163897021217       -2.29106567356953
C           91.97015591297550        3.70870496927078       -3.26491557552290
C           92.60790516422296        3.55430658624565       -4.49981116575859
C           92.63465527208687        4.59615863023479       -5.40649906399535
C           92.02909239649252        5.81877009656880       -5.09788372002558
C           92.07707045142342        6.91751925086144       -6.08010067128829
O           92.61095727498400        6.82987119601241       -7.15598132844568
C           91.39235787982069        5.97468907096875       -3.86439513364568
C           91.36066105307606        4.92880724034123       -2.95915267765340
C           93.16464405525115        2.10789298034894       -1.81680190848910
C           94.45321929012692        2.67621346769134       -2.17112970181835
C           95.38457160623754        1.93887231947526       -1.53216549513748
N           93.33351668473179        1.06384945004366       -0.95944720203223
C           94.66324788924999        0.93046157906794       -0.78102866676461
C           95.31244328335170       -0.04411892994571        0.00409746598905
C           94.67807041816037       -1.01884973169368        0.79874734850750
C           95.31910723835865       -2.01878112591307        1.57456750394860
C           94.34879843947259       -2.74428645485445        2.21025092867061
C           93.08664434853432       -2.20082995235333        1.84653241832209
N           93.33612781300454       -1.16768660801770        0.98375527614729
C           91.82235884722049       -2.63747216266295        2.26216597238863
C           91.79706670480165       -3.75612047251232        3.23429330214039
C           91.17381162274144       -4.96279344876236        2.90360616879832
C           91.14871793147834       -6.00976820699991        3.80751781545800
C           91.74279553393573       -5.86902795194157        5.06396684507093
C           91.72735950772255       -6.96820394559041        6.04673284632357
O           92.22848031313627       -6.89530185367759        7.13936982615255
C           92.36454940440701       -4.66091715247335        5.39628641071593
C           92.39427010066260       -3.61770058366767        4.49100443365658
C           90.60119727863241       -2.10952936986985        1.83881366896663
C           89.31178437247185       -2.54697388413004        2.34366349428748
C           88.38038199886950       -1.81740641347692        1.69578149422740
C           89.10246044914847       -0.92993410423580        0.80560063706629
N           90.43247379705545       -1.11768441439502        0.92156401499921
H           87.38176424096584        1.86922912780252       -1.94057041370200
H           89.27511419889962        3.29863716253515       -3.17300225440166
H           91.14651123021494        0.60463229700445       -0.51509661254792
H           93.06811745499503        2.60421441488899       -4.74631925940365
H           93.12333829959042        4.48275228233823       -6.36822997276435
H           91.57313280953261        7.84961336439401       -5.74647355769917
H           90.92334348062299        6.92100622080289       -3.61518347328449
H           90.87844487125423        5.05835885400634       -1.99670197521848
H           94.60302960692982        3.53147766185772       -2.80966990012135
H           96.45673793249199        2.05135882370976       -1.54404097664696
H           96.38621830661535       -2.16106621311627        1.62975121783323
H           94.49297279258420       -3.58756589088968        2.86560293867188
H           92.61931917860305       -0.60080496694535        0.54316454343682
H           90.72266238822471       -5.07880325595032        1.92464347970868
H           90.66744080186282       -6.94485496241787        3.54006831156048
H           91.20911241573396       -7.88606990779123        5.69607734724001
H           92.81917456065126       -4.55895100267451        6.37585094932607
H           92.86445645349959       -2.67783187015920        4.75756052079438
H           89.16145135635814       -3.29847574623375        3.10155097592223
H           87.30768099697943       -1.85106131688257        1.79846027101697
C          107.05232554754502       -0.01461649034913       -0.04518726594694
C          107.69585897072842        0.90352485752178       -0.89754261865326
C          107.06425134906254        1.81184643788671       -1.78570356120593
C          108.04147483889324        2.53931493857183       -2.40829842185144
C          109.29875471716130        2.10086528913371       -1.91018842834489
N          109.03928158773950        1.10345908957311       -1.00903297984689
C          110.56670330704290        2.57175257534227       -2.27338868493671
C          110.60054221133478        3.69246994912880       -3.24298383702852
C          111.22950078394521        3.53699294120392       -4.48213571939011
C          111.25646222517059        4.58079027777322       -5.38668409513511
C          110.66080327300764        5.80650527028421       -5.07122077213058
C          110.70522887384361        6.90598153294301       -6.05279655091836
O          111.22604079790094        6.81588822432911       -7.13486355742673
C          110.03516828280983        5.96430325803710       -3.83229872125884
C          110.00260443074959        4.91637099934260       -2.92952307828191
C          111.78350763750193        2.07521858586767       -1.80129509484712
C          113.07727082626930        2.63246894224982       -2.15469820159764
C          114.00194369324265        1.88520419959807       -1.51753348584402
N          111.94267167150392        1.02750126342779       -0.94732621020031
C          113.27160846866175        0.88117714187792       -0.76913471746491
C          113.91048240569141       -0.10350174587544        0.01058120875676
C          113.26669763306886       -1.07729724035417        0.79816458279761
C          113.89815796553081       -2.08847118058865        1.56751704751807
C          112.92132734184742       -2.80559374795791        2.20238862077545
C          111.66452551377644       -2.24546630383528        1.84509669129665
N          111.92341406400014       -1.21212168183749        0.98560168214357
C          110.39670633788066       -2.66734294622790        2.26529444488200
C          110.36187850807003       -3.78544473071379        3.23754484712873
C          109.71847724297430       -4.98295237828531        2.91209615761707
C          109.68389825190144       -6.02878212052783        3.81700430734779
C          110.28889231344111       -5.89623500279280        5.06913975032889
C          110.26351954138450       -6.99422909911372        6.05293488226482
O          110.77365796983433       -6.92835240286909        7.14187142280166
C          110.93132151397428       -4.69749334743004        5.39606206137759
C          110.97010737605086       -3.65538072345023        4.48991476590276
C          109.18052732616209       -2.12439345390085        1.84663331912091
C          107.88750707896301       -2.54639603272405        2.35554050071058
C          106.96275579100049       -1.80766872224511        1.70854384538558
C          107.69265233763414       -0.92935689758026        0.81562507135531
N          109.02072217955288       -1.13139609904979        0.92910272674358
H          105.99843904316705        1.88860294581322       -1.92786102213074
H          107.90525010134952        3.30490680387420       -3.15446525391876
H          109.75065283076052        0.58652651797055       -0.50306257476188
H          111.68147888670481        2.58441161871679       -4.73419471142776
H          111.73687344593428        4.46622259209475       -6.35243911787887
H          110.21118579100208        7.84099911500883       -5.71257354398790
H          109.57449082474393        6.91321018715112       -3.57745608116979
H          109.52774009263955        5.04654137818564       -1.96350643155372
H          113.23442824643368        3.48742027261084       -2.79192781146475
H          115.07516267604514        1.98735668738319       -1.52939543970175
H          114.96365754212560       -2.24350868190005        1.61918796641822
H          113.05752478120969       -3.65378695516253        2.85307603021412
H          111.21216941739623       -0.63446256817452        0.55005686337008
H          109.25902536418893       -5.09295369169780        1.93631047965334
H          109.18666141229023       -6.95665873405614        3.55368484084031
H          109.72764811437087       -7.90383290814102        5.70723301464133
H          111.39459471124759       -4.60183551517426        6.37220028782892
H          111.45613616606745       -2.72248418357671        4.75253572374629
H          107.73056450933530       -3.29467805055971        3.11526780450236
H          105.88999846738167       -1.82905918977907        1.81393172390041
