334
 energy: -585.598729128190 gnorm: 9.861723671212 xtb: 6.5.1 (b24c23e)
C           51.43506600000000        0.01991500000000       -0.12023700000000
C           52.16982200000000       -1.26232200000000       -0.61772500000000
C           51.57473800000000       -2.35529400000000       -1.20452900000000
C           52.60019700000000       -3.30568500000000       -1.44883900000000
C           53.78636400000000       -2.76127700000000       -0.99584300000000
N           53.51987500000000       -1.49330100000000       -0.54413300000000
C           55.20416500000000       -3.46827800000000       -0.97141500000000
C           55.23335500000000       -4.93909700000000       -1.13980100000000
C           55.52724000000000       -5.51019100000000       -2.38532200000000
C           55.54284400000000       -6.89823500000000       -2.53685800000000
C           55.26279500000000       -7.71390500000000       -1.43721500000000
C           55.27402400000000       -9.18415900000000       -1.57374700000000
O           55.51204100000000       -9.75767400000000       -2.63044000000000
C           54.96811199999999       -7.15483100000000       -0.18977600000000
C           54.95347000000000       -5.76727500000000       -0.04529500000000
C           56.33409499999999       -2.75117300000000       -0.72914200000000
C           57.63490200000000       -3.38167800000000       -0.63397100000000
C           58.53616400000000       -2.44476300000000       -0.36351400000000
N           56.53166899999999       -1.41303900000000       -0.51361500000000
C           57.85954100000000       -1.16554000000000       -0.27992800000000
C           58.52523500000000       -0.01144400000000       -0.00864000000000
C           57.74713199999999        1.36992400000000        0.05746100000000
C           58.28923300000000        2.62250000000000       -0.15374400000000
C           57.26267000000000        3.57483900000000        0.06382100000000
C           56.11943700000000        2.87651800000000        0.38978200000000
N           56.41091299999999        1.53386700000000        0.33098700000000
C           54.70706299999999        3.50267200000000        0.74583300000000
C           54.66690100000000        4.90860900000000        1.20259400000000
C           54.96375600000000        5.23211200000000        2.53236300000000
C           54.93529599999999        6.56274000000000        2.95623000000000
C           54.61134799999999        7.57000000000000        2.04320100000000
C           54.57717400000000        8.98369500000000        2.46820500000000
O           54.81649600000000        9.34603700000000        3.61443100000000
C           54.31409800000000        7.25900700000000        0.71235700000000
C           54.34345999999999        5.92786800000000        0.29579200000000
C           53.58229899999999        2.75240100000000        0.61787600000000
C           52.25764800000000        3.26003600000000        0.92965900000000
C           51.37310799999999        2.29882700000000        0.68101900000000
C           52.09782799999999        1.14352700000000        0.21211100000000
N           53.42032300000000        1.45958000000000        0.20584600000000
H           50.35558499999999       -0.01404300000000       -0.03338500000000
H           50.52225500000000       -2.46356500000000       -1.41747800000000
H           52.48106199999999       -4.28659100000000       -1.88353500000000
H           54.21409700000000       -0.82962200000000       -0.20891100000000
H           55.74689400000000       -4.85835200000000       -3.22874000000000
H           55.77435800000000       -7.33122400000000       -3.50588900000000
H           55.05122300000000       -9.75599800000000       -0.65757100000000
H           54.74987200000000       -7.77450000000000        0.67370300000000
H           54.72823499999999       -5.31112000000000        0.91699000000000
H           57.84746800000000       -4.42911700000000       -0.75124800000000
H           59.58743600000000       -2.62714000000000       -0.23532100000000
H           59.31368100000000        2.83262100000000       -0.42115900000000
H           57.35067100000000        4.64842800000000       -0.00509200000000
H           55.72770299999999        0.78618200000000        0.42104700000000
H           55.21361100000000        4.43464300000000        3.22953500000000
H           55.16528999999999        6.80259400000000        3.99031800000000
H           54.32016800000000        9.71731700000000        1.68543300000000
H           54.05903100000000        8.02954600000000       -0.00842100000000
H           54.11245199999999        5.66246500000000       -0.73482100000000
H           52.02555400000000        4.24175900000000        1.30103800000000
H           50.30823300000000        2.36214400000000        0.81062800000000
C          132.32995800000000        0.02436900000000       -0.11888800000000
C          131.59520300000000        1.36720700000000        0.17845300000000
C          132.19028599999999        2.60211300000000        0.29649100000000
C          131.16482700000000        3.52840100000000        0.62040900000000
C          129.97866099999999        2.82414800000000        0.69533100000000
N          130.24514900000000        1.51856900000000        0.36781100000000
C          128.56085899999999        3.39885200000000        1.10783800000000
C          128.53166999999999        4.71604100000000        1.78361400000000
C          128.23778400000000        5.88212100000000        1.06408200000000
C          128.22218000000001        7.12109200000000        1.70796200000000
C          128.50222900000000        7.18977900000000        3.07537400000000
C          128.49100000000001        8.48882800000000        3.77734100000000
O          128.25298300000000        9.55217700000000        3.21626400000000
C          128.79691199999999        6.03263600000000        3.80317100000000
C          128.81155400000000        4.79798500000000        3.15369100000000
C          127.43092900000001        2.66779800000000        0.91163200000000
C          126.13012200000000        3.13961300000000        1.34056800000000
C          125.22885999999998        2.21003400000000        1.04588100000000
N          127.23335500000000        1.43485900000000        0.34868100000000
C          125.90548399999999        1.09930000000000        0.40582800000000
C          125.23978899999999       -0.01144400000000       -0.00864000000000
C          126.01789200000000       -1.19746800000000       -0.71990200000000
C          125.47579100000000       -2.12250500000000       -1.59045300000000
C          126.50235499999998       -3.03557800000000       -1.93770400000000
C          127.64558799999999       -2.63536000000000       -1.27912300000000
N          127.35411100000000       -1.48560300000000       -0.58325900000000
C          129.05796100000001       -3.35385100000000       -1.33020900000000
C          129.09812299999999       -4.77702200000000       -1.73005500000000
C          128.80126799999999       -5.78382900000000       -0.80308100000000
C          128.82972799999999       -7.12609200000000       -1.18852200000000
C          129.15367699999999       -7.45770700000000       -2.50694000000000
C          129.18785000000000       -8.86971600000000       -2.93751300000000
O          128.94852800000001       -9.80702500000000       -2.18480000000000
C          129.45092600000001       -6.46071300000000       -3.44174700000000
C          129.42156499999999       -5.12207500000000       -3.04994800000000
C          130.18272500000000       -2.65861500000000       -1.02049000000000
C          131.50737699999999       -3.25393900000000       -1.04266400000000
C          132.39191600000001       -2.31624900000000       -0.71634900000000
C          131.66719599999999       -1.09488100000000       -0.46564200000000
N          130.34470099999999       -1.35437600000000       -0.64617300000000
H          133.40943899999999        0.00444500000000       -0.02778700000000
H          133.24276900000001        2.81032500000000        0.17936800000000
H          131.28396200000000        4.58568700000000        0.80284400000000
H          129.55092700000000        0.78040900000000        0.27857900000000
H          128.01813000000001        5.80761800000000        0.00073900000000
H          127.99066599999999        8.01889000000000        1.14187100000000
H          128.71380099999999        8.45640900000000        4.85684500000000
H          129.01515200000000        6.06924500000000        4.86536000000000
H          129.03679000000000        3.88465300000000        3.70131800000000
H          125.91755599999999        4.07618100000000        1.82401600000000
H          124.17758900000000        2.29067000000000        1.25371100000000
H          124.45134299999999       -2.14899600000000       -1.92951100000000
H          126.41435299999999       -3.89062200000000       -2.59057500000000
H          128.03732099999999       -0.91345400000000       -0.09357500000000
H          128.55141300000000       -5.50703000000000        0.21936100000000
H          128.59973400000001       -7.89928200000000       -0.46116700000000
H          129.44485599999999       -9.04590700000000       -3.99576100000000
H          129.70599400000000       -6.70200900000000       -4.46889200000000
H          129.65257299999999       -4.32955500000000       -3.76023900000000
H          131.73947000000001       -4.27678200000000       -1.27823500000000
H          133.45679100000001       -2.44082600000000       -0.64363200000000
C           60.68927500000000        0.00324700000000        0.00163600000000
C           62.14750099999999       -0.01859000000000       -0.01623700000000
C           63.28142900000000       -0.03934400000000       -0.01772800000000
C           64.64281099999999       -0.05193300000000       -0.01991900000000
C           65.91703000000000       -0.04162700000000       -0.02468500000000
C           67.10549200000000       -0.02282900000000       -0.03084100000000
C           68.45785299999999        0.00195600000000       -0.01497300000000
C           69.55812000000000        0.00324700000000        0.00163600000000
C           78.48713899999998        0.00324700000000        0.00163600000000
C           79.94536500000000       -0.01859000000000       -0.01623700000000
C           81.07929300000001       -0.03934400000000       -0.01772800000000
C           82.44067499999998       -0.05193300000000       -0.01991900000000
C           83.71489400000000       -0.04162700000000       -0.02468500000000
C           84.90335600000000       -0.02282900000000       -0.03084100000000
C           86.25571700000000        0.00195600000000       -0.01497300000000
C           87.35598400000001        0.00324700000000        0.00163600000000
C           96.28500300000000        0.00324700000000        0.00163600000000
C           97.74322900000000       -0.01859000000000       -0.01623700000000
C           98.87715799999998       -0.03934400000000       -0.01772800000000
C          100.23853900000000       -0.05193300000000       -0.01991900000000
C          101.51275800000001       -0.04162700000000       -0.02468500000000
C          102.70122000000001       -0.02282900000000       -0.03084100000000
C          104.05358099999999        0.00195600000000       -0.01497300000000
C          105.15384899999999        0.00324700000000        0.00163600000000
C          114.08286699999999        0.00324700000000        0.00163600000000
C          115.54109400000000       -0.01859000000000       -0.01623700000000
C          116.67502200000000       -0.03934400000000       -0.01772800000000
C          118.03640300000001       -0.05193300000000       -0.01991900000000
C          119.31062199999998       -0.04162700000000       -0.02468500000000
C          120.49908499999999       -0.02282900000000       -0.03084100000000
C          121.85144499999998        0.00195600000000       -0.01497300000000
C          122.95171299999998        0.00324700000000        0.00163600000000
C           70.48663999999999        0.00717900000000        0.00556500000000
C           71.27134800000000        0.87657100000000       -1.06132900000000
C           70.72981499999999        1.47340700000000       -2.17467200000000
C           71.76886200000000        2.17087900000000       -2.83707800000000
C           72.92004700000000        1.97532900000000       -2.11316600000000
N           72.61828900000000        1.14909600000000       -1.05665900000000
C           74.33839799999998        2.59183100000000       -2.44917200000000
C           74.37607199999999        3.77236300000000       -3.34820200000000
C           74.60105999999999        3.61708200000000       -4.72119700000000
C           74.64375399999999        4.73163100000000       -5.56254800000000
C           74.45617900000001        6.00684700000000       -5.02640100000000
C           74.49918800000000        7.20013300000000       -5.89628000000000
O           74.66048400000000        7.13816800000000       -7.10954400000000
C           74.22444500000000        6.17556700000000       -3.65872400000000
C           74.18485899999999        5.05705700000000       -2.82336100000000
C           75.46923700000001        2.07164400000000       -1.90234000000000
C           76.77545499999999        2.62147400000000       -2.19684700000000
C           77.68695300000000        1.91915200000000       -1.53436100000000
N           75.66840899999998        1.02885400000000       -1.03591100000000
C           77.00882599999998        0.88613500000000       -0.77684900000000
C           77.69091899999999        0.00717900000000        0.00556500000000
C           76.91482000000001       -1.10180400000000        0.84105100000000
C           77.49396400000001       -2.11398600000000        1.58453100000000
C           76.45276800000001       -2.83879700000000        2.20887100000000
C           75.26049000000000       -2.25075600000000        1.83158900000000
N           75.54964600000000       -1.21542000000000        0.97246000000000
C           73.82649700000000       -2.68436200000000        2.33925900000000
C           73.76362699999999       -3.78062500000000        3.33341000000000
C           73.63940399999998       -5.10292800000000        2.88645800000000
C           73.60659200000001       -6.15184700000000        3.80401500000000
C           73.68418200000001       -5.87152200000000        5.17317900000000
C           73.63779100000001       -6.99592600000000        6.12776200000000
O           73.70612000000000       -6.84582500000000        7.34156600000000
C           73.79846999999999       -4.55583600000000        5.63080100000000
C           73.84318600000000       -3.51037700000000        4.70644900000000
C           72.69767399999999       -2.09117400000000        1.87444600000000
C           71.38967199999999       -2.45557900000000        2.37737000000000
C           70.48244099999999       -1.70831800000000        1.76291500000000
C           71.16219599999999       -0.84956000000000        0.81531500000000
N           72.50149600000000       -1.11506500000000        0.93742300000000
H           69.69855200000001        1.41993600000000       -2.47926200000000
H           71.68312499999999        2.75321000000000       -3.73980400000000
H           73.29094300000000        0.76154400000000       -0.40560900000000
H           74.74980200000000        2.61887500000000       -5.12184000000000
H           74.82638100000000        4.59797000000000       -6.62379000000000
H           74.37090799999999        8.17424900000000       -5.39305000000000
H           74.07410200000000        7.15952800000000       -3.22822400000000
H           74.01152999999999        5.16888700000000       -1.75376400000000
H           76.98791900000001        3.45308100000000       -2.84299300000000
H           78.74388399999998        2.10570300000000       -1.57216000000000
H           78.55013400000000       -2.30586200000000        1.68875000000000
H           76.56474799999998       -3.68346600000000        2.87627200000000
H           74.86078100000000       -0.61764300000000        0.51938700000000
H           73.56865600000000       -5.29310000000000        1.81563700000000
H           73.52120800000000       -7.16870700000000        3.43461100000000
H           73.53659999999999       -8.00127400000000        5.68609200000000
H           73.85395600000000       -4.33930100000000        6.69439200000000
H           73.93628399999999       -2.47963100000000        5.03916100000000
H           71.17713900000000       -3.19490800000000        3.12818400000000
H           69.42516100000000       -1.76024000000000        1.94521300000000
C           88.28450400000000        0.00717900000000        0.00556500000000
C           89.06921300000000        0.87657100000000       -1.06132900000000
C           88.52767900000001        1.47340700000000       -2.17467200000000
C           89.56672700000000        2.17087900000000       -2.83707800000000
C           90.71791099999999        1.97532900000000       -2.11316600000000
N           90.41615299999999        1.14909600000000       -1.05665900000000
C           92.13626200000000        2.59183100000000       -2.44917200000000
C           92.17393699999998        3.77236300000000       -3.34820200000000
C           92.39892399999999        3.61708200000000       -4.72119700000000
C           92.44161900000000        4.73163100000000       -5.56254800000000
C           92.25404300000000        6.00684700000000       -5.02640100000000
C           92.29705199999999        7.20013300000000       -5.89628000000000
O           92.45834799999999        7.13816800000000       -7.10954400000000
C           92.02231000000000        6.17556700000000       -3.65872400000000
C           91.98272400000000        5.05705700000000       -2.82336100000000
C           93.26710100000000        2.07164400000000       -1.90234000000000
C           94.57331900000000        2.62147400000000       -2.19684700000000
C           95.48481800000000        1.91915200000000       -1.53436100000000
N           93.46627300000000        1.02885400000000       -1.03591100000000
C           94.80669000000000        0.88613500000000       -0.77684900000000
C           95.48878400000000        0.00717900000000        0.00556500000000
C           94.71268399999998       -1.10180400000000        0.84105100000000
C           95.29182800000000       -2.11398600000000        1.58453100000000
C           94.25063299999998       -2.83879700000000        2.20887100000000
C           93.05835399999999       -2.25075600000000        1.83158900000000
N           93.34751000000000       -1.21542000000000        0.97246000000000
C           91.62436200000000       -2.68436200000000        2.33925900000000
C           91.56149100000000       -3.78062500000000        3.33341000000000
C           91.43726800000000       -5.10292800000000        2.88645800000000
C           91.40445600000000       -6.15184700000000        3.80401500000000
C           91.48204600000000       -5.87152200000000        5.17317900000000
C           91.43565500000000       -6.99592600000000        6.12776200000000
O           91.50398400000000       -6.84582500000000        7.34156600000000
C           91.59633400000000       -4.55583600000000        5.63080100000000
C           91.64105000000001       -3.51037700000000        4.70644900000000
C           90.49553899999999       -2.09117400000000        1.87444600000000
C           89.18753599999999       -2.45557900000000        2.37737000000000
C           88.28030499999998       -1.70831800000000        1.76291500000000
C           88.96006000000000       -0.84956000000000        0.81531500000000
N           90.29935999999999       -1.11506500000000        0.93742300000000
H           87.49641699999998        1.41993600000000       -2.47926200000000
H           89.48098899999999        2.75321000000000       -3.73980400000000
H           91.08880800000000        0.76154400000000       -0.40560900000000
H           92.54766699999999        2.61887500000000       -5.12184000000000
H           92.62424500000000        4.59797000000000       -6.62379000000000
H           92.16877200000000        8.17424900000000       -5.39305000000000
H           91.87196600000000        7.15952800000000       -3.22822400000000
H           91.80939400000000        5.16888700000000       -1.75376400000000
H           94.78578400000001        3.45308100000000       -2.84299300000000
H           96.54174800000000        2.10570300000000       -1.57216000000000
H           96.34799799999999       -2.30586200000000        1.68875000000000
H           94.36261200000000       -3.68346600000000        2.87627200000000
H           92.65864499999999       -0.61764300000000        0.51938700000000
H           91.36651999999998       -5.29310000000000        1.81563700000000
H           91.31907200000001       -7.16870700000000        3.43461100000000
H           91.33446400000000       -8.00127400000000        5.68609200000000
H           91.65181999999999       -4.33930100000000        6.69439200000000
H           91.73414800000000       -2.47963100000000        5.03916100000000
H           88.97500299999999       -3.19490800000000        3.12818400000000
H           87.22302500000001       -1.76024000000000        1.94521300000000
C          106.08236799999999        0.00717900000000        0.00556500000000
C          106.86707699999999        0.87657100000000       -1.06132900000000
C          106.32554300000000        1.47340700000000       -2.17467200000000
C          107.36459099999999        2.17087900000000       -2.83707800000000
C          108.51577500000000        1.97532900000000       -2.11316600000000
N          108.21401699999998        1.14909600000000       -1.05665900000000
C          109.93412700000000        2.59183100000000       -2.44917200000000
C          109.97180100000000        3.77236300000000       -3.34820200000000
C          110.19678800000000        3.61708200000000       -4.72119700000000
C          110.23948299999999        4.73163100000000       -5.56254800000000
C          110.05190700000000        6.00684700000000       -5.02640100000000
C          110.09491600000000        7.20013300000000       -5.89628000000000
O          110.25621200000000        7.13816800000000       -7.10954400000000
C          109.82017399999998        6.17556700000000       -3.65872400000000
C          109.78058799999998        5.05705700000000       -2.82336100000000
C          111.06496600000000        2.07164400000000       -1.90234000000000
C          112.37118299999999        2.62147400000000       -2.19684700000000
C          113.28268199999999        1.91915200000000       -1.53436100000000
N          111.26413699999999        1.02885400000000       -1.03591100000000
C          112.60455399999998        0.88613500000000       -0.77684900000000
C          113.28664800000000        0.00717900000000        0.00556500000000
C          112.51054900000000       -1.10180400000000        0.84105100000000
C          113.08969199999999       -2.11398600000000        1.58453100000000
C          112.04849700000000       -2.83879700000000        2.20887100000000
C          110.85621799999998       -2.25075600000000        1.83158900000000
N          111.14537499999999       -1.21542000000000        0.97246000000000
C          109.42222599999999       -2.68436200000000        2.33925900000000
C          109.35935499999999       -3.78062500000000        3.33341000000000
C          109.23513199999999       -5.10292800000000        2.88645800000000
C          109.20232100000000       -6.15184700000000        3.80401500000000
C          109.27991100000000       -5.87152200000000        5.17317900000000
C          109.23351899999999       -6.99592600000000        6.12776200000000
O          109.30184799999999       -6.84582500000000        7.34156600000000
C          109.39419899999999       -4.55583600000000        5.63080100000000
C          109.43891499999999       -3.51037700000000        4.70644900000000
C          108.29340300000000       -2.09117400000000        1.87444600000000
C          106.98539999999998       -2.45557900000000        2.37737000000000
C          106.07816900000000       -1.70831800000000        1.76291500000000
C          106.75792500000000       -0.84956000000000        0.81531500000000
N          108.09722499999999       -1.11506500000000        0.93742300000000
H          105.29428100000000        1.41993600000000       -2.47926200000000
H          107.27885400000000        2.75321000000000       -3.73980400000000
H          108.88667200000000        0.76154400000000       -0.40560900000000
H          110.34553099999999        2.61887500000000       -5.12184000000000
H          110.42210900000001        4.59797000000000       -6.62379000000000
H          109.96663599999998        8.17424900000000       -5.39305000000000
H          109.66983100000000        7.15952800000000       -3.22822400000000
H          109.60725800000000        5.16888700000000       -1.75376400000000
H          112.58364799999998        3.45308100000000       -2.84299300000000
H          114.33961299999999        2.10570300000000       -1.57216000000000
H          114.14586199999999       -2.30586200000000        1.68875000000000
H          112.16047699999999       -3.68346600000000        2.87627200000000
H          110.45650999999999       -0.61764300000000        0.51938700000000
H          109.16438400000000       -5.29310000000000        1.81563700000000
H          109.11693600000000       -7.16870700000000        3.43461100000000
H          109.13232899999998       -8.00127400000000        5.68609200000000
H          109.44968400000000       -4.33930100000000        6.69439200000000
H          109.53201199999999       -2.47963100000000        5.03916100000000
H          106.77286800000000       -3.19490800000000        3.12818400000000
H          105.02088899999998       -1.76024000000000        1.94521300000000
334
 energy: -589.555699730569 gnorm: 2.358899951535 xtb: 6.5.1 (b24c23e)
C           51.43758293932638        0.01513836016401       -0.12204016173471
C           52.16832621604635       -1.25848483412359       -0.61632606099034
C           51.57525669050772       -2.35684810316306       -1.20489947069404
C           52.59887920791862       -3.30541081804879       -1.44864710060120
C           53.79021831492968       -2.76262771410195       -0.99570818433333
N           53.51993975420773       -1.49334226654743       -0.54400306418331
C           55.19943271204541       -3.46575149103037       -0.97141972525842
C           55.23307160939146       -4.93901272022028       -1.13998500254914
C           55.52726320962375       -5.51053995936083       -2.38521254623978
C           55.54283856003023       -6.89745566643353       -2.53668256268082
C           55.26273395089819       -7.71438870681123       -1.43699278864858
C           55.27440940841750       -9.18474539134799       -1.57548611337474
O           55.51174241303693       -9.75689078706474       -2.62908545654840
C           54.96815635658213       -7.15391329545098       -0.18982462524764
C           54.95344101268688       -5.76746758624723       -0.04544730095964
C           56.33546762724708       -2.75040404535899       -0.72878592094487
C           57.63503685803138       -3.38275906241048       -0.63411227050979
C           58.53725592108145       -2.44495953984347       -0.36343610554869
N           56.53063277982838       -1.41198620970549       -0.51335514917677
C           57.86021682647144       -1.16644407002724       -0.27992053364832
C           58.52605762996081       -0.00700429909180       -0.00884986679924
C           57.74961626103800        1.36618375244799        0.05709440213318
C           58.28890496277200        2.62371311815345       -0.15339796484672
C           57.26390275705040        3.57448742037125        0.06375039346818
C           56.11569887308951        2.87760059322013        0.39062312850694
N           56.41098458043055        1.53370969571848        0.33119811722540
C           54.71169298338678        3.50048797917418        0.74470450177508
C           54.66722855122399        4.90864148066030        1.20237952571663
C           54.96378189141143        5.23248764655990        2.53233502908995
C           54.93526910912046        6.56199418025146        2.95589788954615
C           54.61126993726057        7.57051289969657        2.04307355176220
C           54.57758768841219        8.98395436740914        2.47001142334421
O           54.81619192148445        9.34551763199746        3.61294892081659
C           54.31413165614791        7.25810464111152        0.71222493808382
C           54.34341675025420        5.92803460888839        0.29597569816277
C           53.58097712789263        2.75156495449762        0.61789970043985
C           52.25744278786143        3.26110801164922        0.93001671467071
C           51.37217419637422        2.29924290011991        0.68125046429358
C           52.09852711105732        1.14478563097787        0.21265305057887
N           53.42152069903939        1.45880757987569        0.20550099503939
H           50.35593489681460       -0.01435407400844       -0.03366084672089
H           50.52237412611033       -2.46365540470183       -1.41750531307600
H           52.48101174934086       -4.28650424210056       -1.88351366228593
H           54.21395960841685       -0.82977082487118       -0.20896700983435
H           55.74683723183779       -4.85852358931018       -3.22860308180468
H           55.77430163058165       -7.33131517648915       -3.50570200552344
H           55.05119256710541       -9.75593554331834       -0.65743093568938
H           54.74990945744108       -7.77457516282434        0.67355657766202