228
 energy: -385.541096991791 gnorm: 0.621439724768 xtb: 6.5.1 (b24c23e)
Fe          46.45168899999999        0.07351100000000        0.01996700000000
C           43.11512600000000       -0.08255900000000        0.00955500000000
C           43.77923500000000       -1.23476300000000       -0.11827400000000
C           43.12955600000000       -2.53150400000000       -0.26866400000000
C           44.07138500000000       -3.45521700000000       -0.31605600000000
C           45.37621500000000       -2.79079600000000       -0.19658800000000
N           45.19792800000000       -1.37921700000000       -0.07615200000000
C           46.56641800000000       -3.42252200000000       -0.15140800000000
C           47.86005100000000       -2.70648500000000       -0.00094000000000
C           49.15059400000000       -3.38128300000000        0.18397100000000
C           50.08531000000000       -2.45480700000000        0.24176500000000
N           48.00066900000000       -1.41743000000000       -0.06090800000000
C           49.40017400000000       -1.17739400000000        0.08636400000000
C           49.99474800000000        0.02503500000000        0.01567500000000
C           49.23373400000000        1.28261800000000       -0.16323500000000
C           49.77070200000000        2.42768900000000       -0.56543900000000
C           48.72696600000000        3.43244000000000       -0.52338100000000
C           47.62094900000000        2.83599400000000       -0.09408800000000
C           46.33584000000000        3.53800800000000        0.15711500000000
C           46.35495999999999        5.01280900000000        0.31507600000000
C           45.69569700000000        5.83876100000000       -0.61117200000000
C           45.73439900000000        7.22887400000000       -0.46607500000000
C           46.43595500000000        7.80283400000000        0.59790100000000
C           47.10199800000000        6.98760000000000        1.51739900000000
C           47.06520299999999        5.59694700000000        1.37647600000000
C           45.17079300000000        2.86800500000000        0.24581800000000
C           43.85843300000000        3.44894200000000        0.52460100000000
C           42.99684100000000        2.45187000000000        0.47211700000000
C           43.74982300000000        1.23492100000000        0.17383400000000
N           45.01797300000000        1.46502900000000        0.04040100000000
N           47.85070800000000        1.44736800000000        0.15293600000000
C           46.60519899999999       -4.89743200000000       -0.24331600000000
C           46.50420999999999       -5.52958300000000       -1.49221100000000
C           46.54230300000000       -6.92483200000000       -1.57680400000000
C           46.68221900000000       -7.69336500000000       -0.41720400000000
C           46.78406699999999       -7.06778300000000        0.82904700000000
C           46.74568600000000       -5.67283200000000        0.91789900000000
H           42.03172400000000       -0.11115900000000        0.00656600000000
H           42.06523000000000       -2.72122100000000       -0.32318800000000
H           43.88595200000000       -4.51708300000000       -0.41384100000000
H           49.32801300000000       -4.44613300000000        0.25607600000000
H           51.14398000000000       -2.63929100000000        0.36661700000000
H           50.80004099999999        2.59537100000000       -0.85260000000000
H           48.83981700000000        4.47908200000000       -0.77480000000000
H           45.15683800000000        5.40545000000000       -1.44485300000000
H           45.22312700000000        7.86131300000000       -1.18022800000000
H           46.46585499999999        8.87910300000000        0.70819500000000
H           47.64779900000000        7.43336100000000        2.33887100000000
H           47.58629300000000        4.97505400000000        2.09409500000000
H           43.61358900000000        4.48115100000000        0.73753900000000
H           41.92956500000000        2.53333800000000        0.63099200000000
H           46.39613599999999       -4.94203400000000       -2.39567100000000
H           46.46373899999999       -7.41029500000000       -2.54092600000000
H           46.71185699999999       -8.77318400000000       -0.48434200000000
H           46.89266400000000       -7.66379200000000        1.72590400000000
H           46.82532300000000       -5.19654700000000        1.88740900000000
Fe          80.48595299999998       -0.02358300000000        0.01785800000000
C           83.82251599999998        0.13279200000000        0.01423200000000
C           83.15840699999998        1.28946000000000       -0.06344500000000
C           83.80808500000001        2.59150800000000       -0.15738600000000
C           82.86625599999999        3.51640800000000       -0.16462400000000
C           81.56142699999999        2.84742600000000       -0.07411900000000
N           81.73971299999998        1.43194900000000       -0.01509000000000
C           80.37122400000000        3.47659500000000       -0.00155100000000
C           79.07759100000000        2.75469900000000        0.11768300000000
C           77.78704799999998        3.42083100000000        0.33172100000000
C           76.85233199999999        2.49272000000000        0.34923100000000
N           78.93697299999999        1.46946400000000        0.00179800000000
C           77.53746800000000        1.22325900000000        0.13850900000000
C           76.94289400000000        0.02503500000000        0.01567500000000
C           77.70390800000000       -1.22359400000000       -0.21767300000000
C           77.16694000000000       -2.35012100000000       -0.66921900000000
C           78.21067499999998       -3.35575000000000       -0.67082900000000
C           79.31669300000000       -2.77850800000000       -0.21604100000000
C           80.60180099999999       -3.49076700000000        0.00444200000000
C           80.58268099999998       -4.97103600000000        0.09821500000000
C           81.24194400000000       -5.75599000000000       -0.86302400000000
C           81.20324200000000       -7.15109200000000       -0.77842400000000
C           80.50168700000000       -7.77071000000000        0.25962500000000
C           79.83564400000000       -6.99617100000000        1.21365500000000
C           79.87243799999999       -5.60071100000000        1.13324900000000
C           81.76684899999999       -2.82524800000000        0.12215400000000
C           83.07920799999999       -3.41774200000000        0.37544900000000
C           83.94080099999999       -2.41933100000000        0.36630900000000
C           83.18781900000000       -1.19057800000000        0.12114900000000
N           81.91966800000000       -1.41467500000000       -0.02214900000000
N           79.08693400000000       -1.40191800000000        0.09104600000000
C           80.33244299999998        4.95410400000000       -0.02932900000000
C           80.43343100000000        5.63988900000000       -1.24959700000000
C           80.39533900000001        7.03749500000000       -1.27352500000000
C           80.25542299999999        7.75495100000000       -0.08164800000000
C           80.15357500000000        7.07584400000000        1.13626300000000
C           80.19195600000000        5.67835100000000        1.16446000000000
H           84.90591700000000        0.16149500000000        0.01248800000000
H           84.87241099999999        2.78341400000000       -0.20362000000000
H           83.05168900000000        4.58151900000000       -0.21620800000000
H           77.60962800000000        4.48154700000000        0.44999600000000
H           75.79366199999998        2.67160900000000        0.48197600000000
H           76.13759999999999       -2.50517600000000       -0.96339000000000
H           78.09782500000000       -4.39048800000000       -0.96745700000000
H           81.78080399999999       -5.28688700000000       -1.67710300000000
H           81.71451399999999       -7.75192500000000       -1.51936600000000
H           80.47178700000001       -8.85075300000000        0.32308200000000
H           79.28984199999999       -7.47718200000000        2.01499600000000
H           79.35134900000000       -5.01056400000000        1.87719500000000
H           83.32405299999999       -4.45822400000000        0.54336500000000
H           85.00807700000000       -2.50762100000000        0.52149700000000
H           80.54150600000000        5.09212400000000       -2.17771700000000
H           80.47390300000001        7.56436400000000       -2.21565900000000
H           80.22578500000000        8.83666600000000       -0.10183500000000
H           80.04497700000000        7.63234800000000        2.05815400000000
H           80.11231900000000        5.16041700000000        2.11237400000000
C           52.09998100000000        0.02503500000000        0.01567500000000
C           53.32189899999999        0.02503500000000        0.01567500000000
C           62.85786199999999        0.02503500000000        0.01567500000000
C           64.07978000000000        0.02503500000000        0.01567500000000
C           73.61574299999999        0.02503500000000        0.01567500000000
C           74.83766000000000        0.02503500000000        0.01567500000000
Fe          58.02189199999999        0.07010300000000        0.02474100000000
C           54.64768400000000       -0.02685500000000       -0.01681500000000
C           55.30650499999999       -1.19992700000000       -0.02162400000000
C           54.66105700000000       -2.51461600000000       -0.00970200000000
C           55.60080300000000       -3.43729900000000       -0.01798200000000
C           56.90446700000000       -2.76738100000000       -0.03937100000000
N           56.72853099999999       -1.34886000000000       -0.03845100000000
C           58.09099799999999       -3.40662900000000       -0.05781500000000
C           59.40011999999999       -2.71053800000000       -0.08349400000000
C           60.68508199999999       -3.41413000000000       -0.18152300000000
C           61.63972800000000       -2.50993500000000       -0.17581800000000
N           59.56103800000000       -1.42379000000000       -0.01952800000000
C           60.97358900000000       -1.21656600000000       -0.07202800000000
C           61.59565500000000       -0.02685500000000       -0.01681500000000
C           60.87132699999999        1.26150100000000        0.09731700000000
C           61.47207299999999        2.43391700000000        0.25172900000000
C           60.44150400000000        3.44674500000000        0.29132400000000
C           59.27209999999999        2.83315900000000        0.15155100000000
C           57.96528900000000        3.54256200000000        0.11548800000000
C           57.97445200000000        5.02473100000000        0.13813600000000
C           57.60681800000000        5.71723200000000        1.30319200000000
C           57.63086799999999        7.11503800000000        1.32665000000000
C           58.02758400000000        7.82714400000000        0.19054400000000
C           58.39798600000000        7.14278300000000       -0.97101500000000
C           58.37378499999999        5.74467500000000       -0.99900300000000
C           56.78318900000000        2.89750400000000        0.06289000000000
C           55.47452999999999        3.54121200000000       -0.00240900000000
C           54.58884200000000        2.56984400000000       -0.04364200000000
C           55.31713900000000        1.29697700000000       -0.00665500000000
N           56.60190399999999        1.48001300000000        0.05429400000000
N           59.45109800000000        1.42020000000000        0.02711300000000
C           58.11277900000000       -4.88527400000000       -0.06392200000000
C           57.97211500000000       -5.58879500000000       -1.27031700000000
C           58.00977500000000       -6.98648600000000       -1.27464400000000
C           58.18893199999999       -7.68614600000000       -0.07752800000000
C           58.32933899999999       -6.98891900000000        1.12646900000000
C           58.29390200000000       -5.59131700000000        1.13475100000000
H           53.60077999999999       -2.72864900000000        0.00664700000000
H           55.41449600000000       -4.50362000000000       -0.00720500000000
H           60.84158700000000       -4.48211800000000       -0.25185600000000
H           62.69887099999999       -2.72010000000000       -0.23860900000000
H           62.53483200000000        2.61782800000000        0.32936900000000
H           60.60726000000000        4.50877500000000        0.40552200000000
H           57.30648800000000        5.17445000000000        2.19047000000000
H           57.34524700000000        7.64682200000000        2.22585900000000
H           58.04806700000000        8.90879900000000        0.21206900000000
H           58.70741599999999        7.69514300000000       -1.84889000000000
H           58.66746400000000        5.22327500000000       -1.90184700000000
H           55.24728300000000        4.59977000000000       -0.02041000000000
H           53.51870499999999        2.71518000000000       -0.09834200000000
H           57.83684999999999       -5.05472900000000       -2.20251000000000
H           57.90258599999999       -7.52752700000000       -2.20585200000000
H           58.21972200000000       -8.76761800000000       -0.08240200000000
H           58.46807900000000       -7.53239100000000        2.05237900000000
H           58.40732999999999       -5.05873200000000        2.07070200000000
Fe          68.77977199999998        0.07010300000000        0.02474100000000
C           65.40556500000000       -0.02685500000000       -0.01681500000000
C           66.06438600000000       -1.19992700000000       -0.02162400000000
C           65.41893800000000       -2.51461600000000       -0.00970200000000
C           66.35868400000000       -3.43729900000000       -0.01798200000000
C           67.66234700000000       -2.76738100000000       -0.03937100000000
N           67.48641200000000       -1.34886000000000       -0.03845100000000
C           68.84887799999998       -3.40662900000000       -0.05781500000000
C           70.15800100000000       -2.71053800000000       -0.08349400000000
C           71.44296299999999       -3.41413000000000       -0.18152300000000
C           72.39760900000000       -2.50993500000000       -0.17581800000000
N           70.31891800000000       -1.42379000000000       -0.01952800000000
C           71.73147000000000       -1.21656600000000       -0.07202800000000
C           72.35353600000001       -0.02685500000000       -0.01681500000000
C           71.62920699999999        1.26150100000000        0.09731700000000
C           72.22995400000001        2.43391700000000        0.25172900000000
C           71.19938499999999        3.44674500000000        0.29132400000000
C           70.02998100000001        2.83315900000000        0.15155100000000
C           68.72317000000000        3.54256200000000        0.11548800000000
C           68.73233300000000        5.02473100000000        0.13813600000000
C           68.36469900000000        5.71723200000000        1.30319200000000
C           68.38874799999999        7.11503800000000        1.32665000000000
C           68.78546400000000        7.82714400000000        0.19054400000000
C           69.15586699999999        7.14278300000000       -0.97101500000000
C           69.13166600000000        5.74467500000000       -0.99900300000000
C           67.54107000000000        2.89750400000000        0.06289000000000
C           66.23241100000000        3.54121200000000       -0.00240900000000
C           65.34672300000000        2.56984400000000       -0.04364200000000
C           66.07501999999999        1.29697700000000       -0.00665500000000
N           67.35978500000000        1.48001300000000        0.05429400000000
N           70.20897800000000        1.42020000000000        0.02711300000000
C           68.87065900000000       -4.88527400000000       -0.06392200000000
C           68.72999500000000       -5.58879500000000       -1.27031700000000
C           68.76765500000000       -6.98648600000000       -1.27464400000000
C           68.94681199999998       -7.68614600000000       -0.07752800000000
C           69.08721999999999       -6.98891900000000        1.12646900000000
C           69.05178300000000       -5.59131700000000        1.13475100000000
H           64.35866100000000       -2.72864900000000        0.00664700000000
H           66.17237700000000       -4.50362000000000       -0.00720500000000
H           71.59946700000000       -4.48211800000000       -0.25185600000000
H           73.45675199999998       -2.72010000000000       -0.23860900000000
H           73.29271199999999        2.61782800000000        0.32936900000000
H           71.36514099999999        4.50877500000000        0.40552200000000
H           68.06436900000000        5.17445000000000        2.19047000000000
H           68.10312799999998        7.64682200000000        2.22585900000000
H           68.80594799999999        8.90879900000000        0.21206900000000
H           69.46529699999999        7.69514300000000       -1.84889000000000
H           69.42534499999999        5.22327500000000       -1.90184700000000
H           66.00516399999999        4.59977000000000       -0.02041000000000
H           64.27658599999999        2.71518000000000       -0.09834200000000
H           68.59473100000000       -5.05472900000000       -2.20251000000000
H           68.66046699999998       -7.52752700000000       -2.20585200000000
H           68.97760300000000       -8.76761800000000       -0.08240200000000
H           69.22595899999999       -7.53239100000000        2.05237900000000
H           69.16521099999999       -5.05873200000000        2.07070200000000
228
 energy: -385.735110700824 gnorm: 0.346952366503 xtb: 6.5.1 (b24c23e)
Fe          46.46647637378170        0.05912842913653        0.01700798913628
C           43.11573537876625       -0.06425734461273        0.01244368039606
C           43.78640918420702       -1.23217343820438       -0.11747128227271
C           43.13198328205080       -2.52185016333146       -0.26811848252149
C           44.08568723426081       -3.45428120821819       -0.31570931864952
C           45.37912457146941       -2.77916819508717       -0.19653513371306
N           45.18546218972090       -1.38492623957386       -0.07790499307706
C           46.58458730624150       -3.41510938312935       -0.14974956028327
C           47.85469463873007       -2.71599957955878       -0.00164542863677
C           49.13638333104226       -3.39118016789433        0.18093359285187
C           50.08481292408922       -2.44857645035133        0.24085031302651
N           48.01615840875343       -1.40528590685534       -0.05035535412746
C           49.42056924650370       -1.16821821766461        0.08584397260701
C           50.03047364181982        0.04170986599536        0.01013095957603
C           49.24225346154783        1.26720218386938       -0.14959727213546
C           49.77644235394633        2.44931044279732       -0.56670988682766
C           48.74816419478599        3.43370261814521       -0.52388306521811
C           47.61373643413349        2.81984126771124       -0.08233132462666
C           46.35171285510838        3.52654790703798        0.15706085966142
C           46.36552084053904        5.00971517666208        0.31005039735744
C           45.69820503865025        5.83810086960134       -0.60528755842636
C           45.73693739199369        7.22363076700494       -0.46149971211218
C           46.43582276893721        7.79748670349834        0.59737690331152
C           47.09836739177861        6.98412703915198        1.51306664227146
C           47.06554492994839        5.59892942795512        1.37107676420002
C           45.17321714017871        2.86232705953814        0.24590388319583
C           43.86792109614056        3.44513657533960        0.52228597768717
C           42.98742785003343        2.43808377066440        0.46912637626676
C           43.73286552291643        1.22431758124947        0.17287259280272
N           45.02358484567556        1.46572032527170        0.05136174537770
N           47.85323516205752        1.43830717586864        0.13404432040453
C           46.61191107747847       -4.89933864817603       -0.24304126261117
C           46.50453513569120       -5.53250673425455       -1.48693504832710
C           46.54227605853235       -6.92218955831948       -1.57122071231208
C           46.68212795075443       -7.68858725495345       -0.41689888427390
C           46.78331686315673       -7.06491737591432        0.82412084766402
C           46.74737493149203       -5.67577185721727        0.91302350149728
H           42.03230845114542       -0.10277295055953        0.00822212499592
H           42.06731701323055       -2.70918513440355       -0.32245890557286
H           43.90211914913775       -4.51624431899630       -0.41358557181321
H           49.31483239801977       -4.45214769656572        0.25485277104288
H           51.14288264546018       -2.62784058505669        0.36613040037805
H           50.80242551205562        2.60481273395069       -0.85533858623851
H           48.84651948919669        4.47827668544511       -0.77750237936972
H           45.15936161624917        5.40430082207555       -1.44163891117295
H           45.22467692133375        7.85801759132509       -1.17819674684114
H           46.46579970514219        8.87640524491587        0.70778612876678
H           47.64590854703837        7.43115609042201        2.33665257216184
H           47.58469909334358        4.97527452764619        2.09133620640032
H           43.62781382889037        4.47868697419903        0.73512922332635
H           41.92456953624303        2.52288458681516        0.62948960221585
H           46.39685554229801       -4.94233461193314       -2.39158825509861
H           46.46389116824752       -7.40841526715469       -2.53824503062856
H           46.71181912789790       -8.77084075830599       -0.48424378467738
H           46.89212224764155       -7.66194469343437        1.72362146046539
H           46.82508120155076       -5.19675097076721        1.88380881060283
Fe          80.47126164574998       -0.00910369328663        0.01555616382189
C           83.82189518155117        0.11435890627105        0.01631631954300
C           83.15123316702247        1.28687497403661       -0.06278097178808
C           83.80568601499914        2.58187273252692       -0.15726254818729
C           82.85198165520217        3.51547935827801       -0.16431538857168
C           81.55856097430458        2.83575370208753       -0.07460660965480
N           81.75234485831609        1.43794872875053       -0.01655602161982
C           80.35294436471986        3.46911015630295       -0.00021126585458
C           79.08308815490079        2.76432761517006        0.11737625155163
C           77.80119681018924        3.43083198373169        0.32911908351158
C           76.85283182600331        2.48654426466654        0.34808360822240
N           78.92179063893626        1.45684885931707        0.01174531946636
C           77.51753703849725        1.21412601437776        0.13760133531195
C           76.90945020385833        0.00794265323450        0.00951759044649
C           77.69575278933672       -1.20931585110016       -0.20355012514349
C           77.16119397130707       -2.37210959177618       -0.67154879534691
C           78.18931895317529       -3.35711634038125       -0.67141844108185
C           79.32388184228972       -2.76290048825154       -0.20364947119901
C           80.58588691358909       -3.47927864247564        0.00485193017753
C           80.57209894689494       -4.96771508752118        0.09330777344167
C           81.23943108126483       -5.75558227501698       -0.85711985692883
C           81.20070652470174       -7.14605055586910       -0.77362307037852
C           80.50181905110593       -7.76534409742208        0.25933365629056
C           79.83927674674410       -6.99251203397740        1.20947724383267
C           79.87209818384729       -5.60245284789325        1.12776456855754
C           81.76440142083032       -2.81952417910180        0.12250382207368
C           83.06971309041143       -3.41382065964192        0.37330241059716
C           83.95020563360089       -2.40541675090154        0.36391269880693
C           83.20477216380334       -1.17990162133456        0.12063896644648
N           81.91399654045875       -1.41582072566232       -0.01118135424356
N           79.08441671156567       -1.39231118221069        0.07280961948357
C           80.32569305103873        4.95601037291254       -0.02896487516461
C           80.43310402012321        5.64258028618096       -1.24419703663968
C           80.39537162788370        7.03461282961113       -1.26806038503206
C           80.25551603599462        7.75016306975738       -0.08154957239715
C           80.15432899353357        7.07319997746868        1.13121984163445
C           80.19026810757576        5.68150631121705        1.15972303551699
H           84.90532678138443        0.15303018164664        0.01378907823613
H           84.87034379002706        2.77137174312034       -0.20341419909087
H           83.03552354550297        4.58068602378253       -0.21598653912055
H           77.62274592536407        4.48757556046998        0.44902635421498
H           75.79475813599785        2.66013898338459        0.48096550123079
H           76.13516019838137       -2.51464124380029       -0.96656832126263
H           78.09106318842753       -4.38964391635705       -0.97013351422731
H           81.77828002047593       -5.28587827384393       -1.67384324917848
H           81.71296472418545       -7.74871944680632       -1.51719214048882
H           80.47184162073998       -8.84803871772242        0.32279050247125
H           79.29173359101928       -7.47488126056395        2.01287460492616
H           79.35294302319669       -5.01066425504858        1.87442904503108
H           83.30982124669443       -4.45564661091710        0.54106070146101
H           85.01306623141139       -2.49711227181352        0.52044526075564
H           80.54078299093328        5.09224516097162       -2.17362392530986
H           80.47374986609083        7.56236743228904       -2.21306141798265
H           80.22582112419430        8.83431888434508       -0.10183893045724
H           80.04551684228313        7.63060261720032        2.05579387715097
H           80.11255734495715        5.16077763000462        2.10878816682247
C           52.01198223897475        0.02252723966951        0.01348479331312
C           53.24436749577804        0.02853712092236        0.01604255143654
C           62.87661879664471        0.03798630752784        0.01291994053670
C           64.08434818614587        0.03094713752710        0.01742400211538
C           73.70490059672544        0.03763315289907        0.01360402734575
C           74.93723553574948        0.02489698408905        0.01464112207346
Fe          58.03241779883408        0.05804210881082        0.02220617680731
C           54.63787961477030       -0.00796215013171       -0.01466121791331
C           55.31351650747880       -1.20000359264618       -0.02111524534256
C           54.66186718284653       -2.50211030105585       -0.00967109776277
C           55.61451943039052       -3.43610408931290       -0.01801332018450
C           56.90545850688881       -2.75669633645700       -0.03904498074525
N           56.71507799144392       -1.35401225329489       -0.03618336575171
C           58.10503546994848       -3.40387408703302       -0.05871825354536
C           59.38663363575078       -2.73238719553833       -0.08350776997027
C           60.66338121629813       -3.42906189527389       -0.18096108188838
C           61.62649164064949       -2.50001394654782       -0.17548424886988
N           59.55625812069674       -1.42575032835983       -0.02364062687098
C           60.94354941397513       -1.22712135889819       -0.07303991154820
C           61.54612790626178       -0.01047030352666       -0.01165803675705
C           60.83601803029325        1.25792921428897        0.09424786627363
C           61.46608083859432        2.45405189380067        0.25304994101353
C           60.45737508818097        3.45198376077785        0.29099887984463
C           59.25553678143400        2.82290099156744        0.14762103858029
C           57.97922045088504        3.53196178418952        0.11590951486462
C           57.98448285074235        5.02294399441849        0.14012093513011
C           57.60818271206731        5.71826079060642        1.29746424723946
C           57.63223393610197        7.11108138190699        1.32094725823433
C           58.02723885593085        7.82187154478973        0.19036563898265
C           58.39593719712765        7.13907623105898       -0.96600435080913
C           58.37523811042423        5.74638465166883       -0.99337243138469
C           56.78583841086943        2.89222568230197        0.06335159042308
C           55.48486898598993        3.53725818848039       -0.00191754341350
C           54.57908917211082        2.55443377174352       -0.04364568444726
C           55.30306737619628        1.29054165702777       -0.00697320661380
N           56.60580621119355        1.48297360731619        0.05153039651265
N           59.43678747966698        1.42578248912601        0.03198468526147
C           58.11820565225244       -4.88922844146685       -0.06468353430117
C           57.97271246037572       -5.59228267656705       -1.26555482137368
C           58.01008742787182       -6.98406191537190       -1.26945650601513
C           58.18867606074644       -7.68147308169099       -0.07741256905775
C           58.32844389634074       -6.98660351546287        1.12142260942494