227
 energy: -402.848063650684 gnorm: 1.453038226926 xtb: 6.5.1 (b24c23e)
Ni          27.83840900000000       -0.01884000000000       -0.03470100000000
C           24.49435800000000        0.11077700000000        0.05767200000000
C           25.16223200000000        0.89526600000000        0.90815500000000
C           24.51734300000000        1.77459000000000        1.87641800000000
C           25.46323700000000        2.42504000000000        2.52789700000000
C           26.76516300000000        1.99385800000000        2.00228100000000
N           26.58190500000000        1.01844300000000        0.97627900000000
C           27.95875600000000        2.47216700000000        2.40496000000000
C           29.25228500000000        2.01936100000000        1.83291700000000
C           30.54385000000000        2.63666200000000        2.15528600000000
C           31.47822200000000        1.98126400000000        1.49756100000000
N           29.38996400000000        1.02261000000000        1.01294500000000
C           30.79072400000000        0.93412500000000        0.75114700000000
C           31.38385900000000        0.00119200000000       -0.01233800000000
C           30.62345600000000       -1.04668000000000       -0.73264400000000
C           31.17009100000000       -2.14067700000000       -1.24859000000000
C           30.12158700000000       -2.86280200000000       -1.94090400000000
C           29.00208700000000       -2.16192500000000       -1.80469000000000
C           27.70738900000000       -2.52786800000000       -2.43474200000000
C           27.71125300000000       -3.53705300000000       -3.52402500000000
C           28.23889700000000       -3.19834700000000       -4.78617100000000
O           28.73692600000000       -1.89960500000000       -4.98558500000000
C           29.30012500000000       -1.42831100000000       -6.20490000000000
C           28.25014400000000       -4.16331200000000       -5.81000700000000
C           27.74554800000000       -5.44273300000000       -5.57822800000000
C           27.22853600000000       -5.77995000000000       -4.32744800000000
C           27.21051300000000       -4.83349700000000       -3.28646400000000
O           26.71113400000000       -5.14414700000000       -2.01013600000000
C           26.16370700000000       -6.40564400000000       -1.64191800000000
C           26.54437400000000       -1.96770500000000       -2.05355700000000
C           25.22771600000000       -2.24955800000000       -2.62196000000000
C           24.36716600000000       -1.53073200000000       -1.92767800000000
C           25.12577300000000       -0.78389500000000       -0.92538200000000
N           26.39631600000000       -1.03127700000000       -0.98893600000000
N           29.22853200000000       -0.97991300000000       -1.03350300000000
C           28.00282800000000        3.51148500000000        3.45955000000000
C           28.13324800000000        3.13169700000000        4.80956600000000
O           28.21848100000000        1.76473200000000        5.12288300000000
C           28.34008700000000        1.24473900000000        6.44300100000000
C           28.17296600000000        4.12697100000000        5.80341800000000
C           28.08626600000000        5.47509000000000        5.45415600000000
C           27.96130900000000        5.85013400000000        4.11591600000000
C           27.92003400000000        4.87231700000000        3.10491400000000
O           27.79950800000000        5.21185600000000        1.74677200000000
C           27.72060000000000        6.54463400000000        1.25153600000000
H           23.41096500000000        0.13357700000000        0.08012900000000
H           23.45353900000000        1.88917000000000        2.04146600000000
H           25.28290000000000        3.15424800000000        3.30727100000000
H           30.72043600000000        3.47809200000000        2.81247500000000
H           32.53749400000000        2.19719900000000        1.53370700000000
H           32.20846100000000       -2.43759100000000       -1.18764200000000
H           30.24053900000000       -3.78917300000000       -2.48775200000000
H           28.54495100000000       -1.47610300000000       -7.01765700000000
H           29.61489200000000       -0.37259700000000       -6.07399500000000
H           30.19173000000000       -2.03361200000000       -6.47263600000000
H           28.64602900000000       -3.93427900000000       -6.78992900000000
H           27.75806200000000       -6.17858800000000       -6.37204300000000
H           26.84930700000000       -6.78158700000000       -4.17911600000000
H           25.84523300000000       -6.36609400000000       -0.58033800000000
H           25.27698600000000       -6.63450900000000       -2.27005700000000
H           26.92932800000000       -7.20245800000000       -1.75429400000000
H           24.98090900000000       -2.91290000000000       -3.44079300000000
H           23.29655700000000       -1.50718500000000       -2.08323300000000
H           28.38757300000000        0.13791600000000        6.39289300000000
H           27.45672500000000        1.53564400000000        7.04998500000000
H           29.27235800000000        1.62009700000000        6.91642900000000
H           28.26918800000000        3.86966800000000        6.84949100000000
H           28.11704500000000        6.23419100000000        6.22534600000000
H           27.89829200000000        6.90331500000000        3.87852700000000
H           28.63859100000000        7.10822700000000        1.52364200000000
H           27.63691600000000        6.51534400000000        0.14605600000000
H           26.82214200000000        7.05127000000000        1.66301300000000
Ni          61.40982200000000        0.02048200000000        0.01066700000000
C           64.75387300000000       -0.05254100000000       -0.13075600000000
C           64.08599900000000       -0.78296200000000       -1.02810200000000
C           64.73088799999999       -1.61649900000000       -2.03605200000000
C           63.78499399999999       -2.16897500000000       -2.77244800000000
C           62.48306800000000       -1.70993800000000       -2.27097500000000
N           62.66632600000000       -0.83289900000000       -1.15970700000000
C           61.28947399999999       -2.04058900000000       -2.80163400000000
C           59.99594600000000       -1.53866900000000       -2.27216200000000
C           58.70438100000000       -1.77008100000000       -2.92899500000000
C           57.77000900000000       -1.21212600000000       -2.18681300000000
N           59.85826700000000       -0.86860100000000       -1.16904000000000
C           58.45750700000000       -0.62202800000000       -1.04426400000000
C           57.86437200000000        0.00119200000000       -0.01233800000000
C           58.62477499999999        0.56534300000000        1.12722800000000
C           58.07813999999999        0.92065400000000        2.28342200000000
C           59.12664300000000        1.50336900000000        3.09656800000000
C           60.24614300000000        1.46809600000000        2.38344800000000
C           61.54084200000000        2.03977700000000        2.83518000000000
C           61.53697800000000        2.97465900000000        3.98886400000000
C           61.00933400000000        4.27212000000000        3.83288100000000
O           60.51130499999999        4.65399800000000        2.57563600000000
C           59.94810600000000        5.92789600000000        2.28232600000000
C           60.99808700000000        5.14849900000000        4.93349800000000
C           61.50268299999999        4.73732800000000        6.16702000000000
C           62.01969500000000        3.45132900000000        6.32314400000000
C           62.03771700000000        2.55534600000000        5.23841600000000
O           62.53709700000000        1.24783300000000        5.36461300000000
C           63.08452399999999        0.70415200000000        6.56101200000000
C           62.70385700000000        1.74202900000000        2.22655000000000
C           64.02051500000000        2.26463000000000        2.58628700000000
C           64.88106500000001        1.67949800000000        1.77612600000000
C           64.12245799999999        0.79345500000000        0.89448600000000
N           62.85191500000000        0.82122400000000        1.14838700000000
N           60.01969800000000        0.87263500000000        1.10387500000000
C           61.24540300000000       -2.93685000000000       -3.98021800000000
C           61.11498300000000       -4.32712500000000       -3.79605200000000
O           61.02975000000000       -4.83144300000000       -2.48745600000000
C           60.90814399999999       -6.21203900000000       -2.16025900000000
C           61.07526499999999       -5.16952000000000       -4.92241100000000
C           61.16196500000000       -4.63229800000000       -6.20724600000000
C           61.28692200000000       -3.25435300000000       -6.38838900000000
C           61.32819700000000       -2.39250300000000       -5.27687500000000
O           61.44872300000000       -0.99990100000000       -5.42004600000000
C           61.52763099999999       -0.32036600000000       -6.66896000000000
H           65.83726600000000       -0.07153200000000       -0.15651600000000
H           65.79469200000000       -1.76359600000000       -2.17291500000000
H           63.96533100000000       -2.83686000000000       -3.60497300000000
H           58.52779500000000       -2.30108000000000       -3.85524600000000
H           56.71073699999999       -1.21723100000000       -2.40569200000000
H           57.03976999999999        0.81814700000000        2.56866700000000
H           59.00769199999999        1.91308100000000        4.09122400000000
H           60.70327999999999        6.72562200000000        2.44508700000000
H           59.63333900000000        5.94828300000000        1.21872200000000
H           59.05650099999999        6.10693400000000        2.91952100000000
H           60.60220199999999        6.15101900000000        4.84598600000000
H           61.49016900000000        5.41856500000000        7.00817500000000
H           62.39892400000000        3.16221900000000        7.29355200000000
H           63.40299799999999       -0.34104400000000        6.37106500000000
H           63.97124500000000        1.29341100000000        6.87678300000000
H           62.31890300000000        0.70220100000000        7.36570900000000
H           64.26732199999999        2.98093200000000        3.35921700000000
H           65.95167400000000        1.83682100000000        1.77491500000000
H           60.86065700000000       -6.31966500000000       -1.05754300000000
H           61.79150599999999       -6.77154500000000       -2.53443700000000
H           59.97587300000000       -6.62734700000000       -2.59906200000000
H           60.97904200000000       -6.24153500000000       -4.81631200000000
H           61.13118600000000       -5.28783700000000       -7.06819800000000
H           61.34993900000000       -2.86976600000000       -7.39716800000000
H           60.60963900000000       -0.50965400000000       -7.26549000000000
H           61.61131500000000        0.76974400000000       -6.48293300000000
H           62.42608799999999       -0.65570300000000       -7.22890800000000
C           37.44737599999999        0.00229400000000       -0.00384800000000
C           36.23843700000000       -0.01116100000000       -0.01229500000000
C           34.81690799999999       -0.00234100000000       -0.02427800000000
C           33.60523800000000        0.00509700000000       -0.01341500000000
C           38.86398000000000       -0.00438100000000       -0.00331500000000
C           40.08467599999999        0.00509700000000       -0.01341500000000
C           53.00854300000000        0.00229400000000       -0.00384800000000
C           51.79960300000000       -0.01116100000000       -0.01229500000000
C           50.37807400000000       -0.00234100000000       -0.02427800000000
C           49.16640500000000        0.00509700000000       -0.01341500000000
C           54.42514700000000       -0.00438100000000       -0.00331500000000
C           55.64584300000000        0.00509700000000       -0.01341500000000
Ni          44.53036300000000        0.00425200000000       -0.06226300000000
C           41.17488700000000       -0.00327900000000        0.02729100000000
C           41.83210600000000       -0.05123400000000        1.20071000000000
C           41.19095900000000       -0.16766600000000        2.51261200000000
C           42.13111499999999       -0.14890400000000        3.43617000000000
C           43.42993800000000       -0.01741700000000        2.76978500000000
N           43.25082100000000        0.04108800000000        1.35304000000000
C           44.61530999999999        0.06140900000000        3.40780800000000
C           45.91607500000000        0.18137000000000        2.70489800000000
C           47.18791700000000        0.44746800000000        3.38737000000000
C           48.14212499999999        0.43659200000000        2.47952400000000
N           46.08341500000000        0.01230500000000        1.43014500000000
C           47.48590600000000        0.16003300000000        1.20772600000000
C           48.10403299999999       -0.00327900000000        0.02729100000000
C           47.36115800000000       -0.28056400000000       -1.22152500000000
C           47.91399100000000       -0.74774600000000       -2.33384700000000
C           46.87931999999999       -0.77655200000000       -3.34900800000000
C           45.76394500000000       -0.32382000000000       -2.78827900000000
C           44.49649599999999       -0.08971200000000       -3.52067500000000
C           44.54246800000000       -0.00456200000000       -5.00192200000000
C           44.05118600000000       -1.06924300000000       -5.78424500000000
O           43.52687599999999       -2.20059400000000       -5.13634800000000
C           43.00195200000000       -3.34306700000000       -5.80405800000000
C           44.10353200000000       -0.97383800000000       -7.18709900000000
C           44.64254000000000        0.15883300000000       -7.79722700000000
C           45.13686100000000        1.20810000000000       -7.02260500000000
C           45.09291000000000        1.13681000000000       -5.61804400000000
O           45.57870400000000        2.17591600000000       -4.80676400000000
C           46.15190200000000        3.38351700000000       -5.29666000000000
C           43.32232300000000        0.06772300000000       -2.88233400000000
C           42.03902699999999        0.34686200000000       -3.51750900000000
C           41.14828200000000        0.36964400000000       -2.54759300000000
C           41.85180900000000        0.10875200000000       -1.28623000000000
N           43.12350400000000       -0.06705500000000       -1.47523100000000
N           45.97725900000000        0.00964300000000       -1.41728000000000
C           44.64469600000000        0.02147100000000        4.88896800000000
C           44.89118000000000       -1.19794300000000        5.54906500000000
O           45.09798100000000       -2.35472300000000        4.77887900000000
C           45.35508400000000       -3.64762200000000        5.31627500000000
C           44.92174899999999       -1.22511200000000        6.95536000000000
C           44.71279700000000       -0.05625500000000        7.68735300000000
C           44.47355100000000        1.15179200000000        7.03250700000000
C           44.43892000000000        1.20361700000000        5.62688600000000
O           44.20804300000000        2.40320400000000        4.93295900000000
C           43.99660000000000        3.66705500000000        5.55318800000000
H           40.13324599999999       -0.25355000000000        2.72244600000000
H           41.94721800000000       -0.21731100000000        4.50074700000000
H           47.33793799999999        0.62008100000000        4.44501800000000
H           49.19438000000000        0.59704100000000        2.67294000000000
H           48.94943099999999       -1.02682600000000       -2.47510600000000
H           47.00730299999999       -1.07324700000000       -4.38200500000000
H           42.13437700000000       -3.05173500000000       -6.43302400000000
H           42.66165800000000       -4.07999800000000       -5.04792100000000
H           43.78907500000000       -3.81434900000000       -6.43012700000000
H           43.73238500000000       -1.77128800000000       -7.81589600000000
H           44.67901400000000        0.22307600000000       -8.87726700000000
H           45.54981500000000        2.07153100000000       -7.52634600000000
H           46.44926799999999        4.01740900000000       -4.43685300000000
H           45.40904299999999        3.93879900000000       -5.90733500000000
H           47.05483200000000        3.15886200000000       -5.90280800000000
H           41.83286099999999        0.50667600000000       -4.56809100000000
H           40.09123400000000        0.55554200000000       -2.68397600000000
H           44.50118000000000       -3.97573600000000        5.94570800000000
H           45.47971400000000       -4.36766700000000        4.48167400000000
H           46.28968900000000       -3.63319100000000        5.91572900000000
H           45.10650800000000       -2.14482200000000        7.49305400000000
H           44.73866200000000       -0.08643100000000        8.76898200000000
H           44.31903600000000        2.04053100000000        7.62885000000000
H           44.88373200000000        3.94814400000000        6.15896900000000
H           43.09032300000000        3.63069800000000        6.19397900000000
H           43.84542600000000        4.43505800000000        4.76734500000000
227
 energy: -403.231483843357 gnorm: 0.405048638809 xtb: 6.5.1 (b24c23e)
Ni          27.84586808659258       -0.01572179890650       -0.03059412893004
C           24.49486969160199        0.10120686134946        0.04681661209410
C           25.16922898450356        0.89560971794573        0.90913997495706
C           24.51697813652400        1.77054063052803        1.87227905173828
C           25.47147840852754        2.42598092636572        2.52860651060486
C           26.76433885209029        1.98753077935933        1.99696977229371
N           26.57033822983711        1.02488037287863        0.98153130565845
C           27.97190038334419        2.46922288936164        2.40054251198665
C           29.24529496983859        2.02726994804008        1.84098562207984
C           30.53295652154928        2.64088624765355        2.16132804384718
C           31.47808598169354        1.97668892906670        1.49374866156575
N           29.39611815541571        1.01822679112267        1.00396509049284
C           30.80008057043846        0.93144825060385        0.74810140940165
C           31.39922489978995       -0.00978839454147       -0.01763371035889
C           30.62362366685950       -1.03078727151222       -0.72780498332145
C           31.17151456664405       -2.15629202402376       -1.25940230102473
C           30.13981864403379       -2.86484903644436       -1.93994656006056
C           28.99164793010410       -2.14864812854934       -1.80197251488944
C           27.71931662417268       -2.52242547839336       -2.42862611566911
C           27.71582315214186       -3.53687516854664       -3.52130921060390
C           28.24162919687916       -3.19737142421725       -4.78951551296295
O           28.73303546176887       -1.90569712743227       -4.98036162175633
C           29.29736852219510       -1.43463866195204       -6.20283145309765
C           28.24968665229585       -4.16206355399970       -5.80858111853648
C           27.74554976330915       -5.43864245760125       -5.57381400927626
C           27.22857764907836       -5.77839663765622       -4.32615658392001
C           27.20886493515669       -4.83679893225342       -3.28580379987700
O           26.71443801346908       -5.13826370372097       -2.01560761534109
C           26.16651457160938       -6.40310458449506       -1.64813969976328
C           26.54448364769538       -1.96525287954124       -2.05161343413920
C           25.23525077533896       -2.24970556536566       -2.62074753993924
C           24.36081287463503       -1.52412186444260       -1.91976984621221
C           25.11123423642646       -0.77756314287800       -0.91872877942469
N           26.40222600022123       -1.03116231640641       -0.99348433199758
N           29.23013765132654       -0.98283091800321       -1.02872527129071
C           28.00575731989410        3.51225850942131        3.45963958683740
C           28.13382890405018        3.13096755871974        4.81391415590727
O           28.21771464571107        1.77105498736904        5.11693476345043
C           28.33963381936261        1.25156364277854        6.44026297643968
C           28.17268819952572        4.12609067801459        5.80218503091398
C           28.08611333409763        5.47090246158771        5.44988898115554
C           27.96121694580942        5.84894782512150        4.11503931633854
C           27.92005210544117        4.87687648822479        3.10433518995238
O           27.80027715244134        5.20581442733671        1.75292839307476
C           27.72124691690088        6.54178252348051        1.25825589048425
H           23.41137659917958        0.13157267411602        0.07725724922072
H           23.45384109934061        1.88546622477369        2.03766477148823
H           25.28938302215419        3.15436765405004        3.30727005116227
H           30.71499275278353        3.47952192805799        2.81443819764104
H           32.53688285755849        2.19240580212170        1.52980592048093
H           32.20882618695349       -2.44058995843214       -1.18945603440507
H           30.24375027860490       -3.78956775992416       -2.48680267150237
H           28.54875041806409       -1.47636141820498       -7.01608547795760
H           29.61090026044723       -0.38083170869629       -6.07044136442294
H           30.18833856600768       -2.03148508186191       -6.47340002710835
H           28.64618920218465       -3.93309199867720       -6.78940966614074
H           27.75802619371809       -6.17704918358958       -6.37036498338515
H           26.84906440252242       -6.78116842268643       -4.17785651853070
H           25.84917306282856       -6.36187716861990       -0.58817121725803
H           25.28036194373669       -6.63544621169704       -2.26799664043797
H           26.92554875169346       -7.20079163815546       -1.75441746251211
H           24.98712751982434       -2.91273661263116       -3.43957559712340
H           23.29463158973762       -1.50395587366392       -2.07982161749880
H           28.38687745588742        0.14659281097035        6.38852946266814
H           27.46074640013930        1.53484869763478        7.04935618420588
H           29.26834077334073        1.61885701546530        6.91633900728845
H           28.26922334876881        3.86854830627073        6.84910625927487
H           28.11699248681309        6.23259218758575        6.22372244561302
H           27.89820611872264        6.90301251270339        3.87740568288159
H           28.63444829782009        7.10768455496575        1.52296052395737
H           27.63770864913001        6.51081747301219        0.15462661800273
H           26.82605901739903        7.05111759931431        1.66169486330706
Ni          61.40238130537081        0.01686280449621        0.00699612098493
C           64.75335432531695       -0.04316359809206       -0.11975343741678
C           64.07902020420610       -0.78388499563279       -1.02857886817369
C           64.73125291611231       -1.61298174790646       -2.03145948833982
C           63.77675616082535       -2.16953763572389       -2.77347457777877
C           62.48389416494030       -1.70556249671240       -2.26392703646864
N           62.67787794834774       -0.83718011924744       -1.16682747785063
C           61.27628320499842       -2.03662477288172       -2.79809750295218
C           60.00295840173906       -1.54553446271970       -2.28114820697853
C           58.71525481620876       -1.77546430652569       -2.93404118462995
C           57.77011553198820       -1.20902011210535       -2.18180523168892
N           59.85207557066256       -0.86034278217415       -1.16334540750232
C           58.44807224345757       -0.61942420726202       -1.04122656192183
C           57.84936600107588        0.00486594627447       -0.00065388086474
C           58.62454032435847        0.56282076355999        1.11089645115698
C           58.07669119513778        0.92913881552458        2.30047550407991
C           59.10840807480612        1.50213223308309        3.09845203570464
C           60.25656137114811        1.46728191991152        2.36990055493033
C           61.52893379112383        2.03450053510358        2.82893560141386
C           61.53240170340807        2.97200147520148        3.98831195969322
C           61.00659072770651        4.27558352409807        3.83238328594693
O           60.51519385526594        4.64793773331143        2.58092658215379
C           59.95085552609401        5.92497109287821        2.28829369322119
C           60.99854617883778        5.14726447493240        4.93205993851597
C           61.50268029716239        4.73353867790460        6.16234003390938
C           62.01965153725989        3.45027175296082        6.32142060975548
C           62.03937777240623        2.55421718253915        5.24160140266910
O           62.53378499346060        1.25408652676613        5.35955022332740
C           63.08172353350420        0.71066611496153        6.55939542107335
C           62.70373388776663        1.74045142003895        2.22384730677815
C           64.01298933570365        2.26340744896361        2.58625687513062
C           64.88741222717110        1.67261639103195        1.76847055811919
C           64.13698536635529        0.78777036881775        0.88727737808482
N           62.84600946725941        0.82572779540949        1.14890897928516
N           60.01808216840040        0.86753949776979        1.10603299171243
C           61.24246086794786       -2.93683638634489       -3.98100933967133
C           61.11440060291804       -4.33155130012537       -3.79593706724022
O           61.03051496706255       -4.82463137031159       -2.49287258909572
C           60.90859390392420       -6.20838158096233       -2.16662328333581
C           61.07554495392920       -5.16842234600984       -4.92136564578352
C           61.16211769349108       -4.62866894186545       -6.20249044103046
C           61.28701506922779       -3.25365515859276       -6.38708772036551
C           61.32818189244198       -2.39127721873962       -5.28131868842864
O           61.44794640038828       -1.00685004387991       -5.41492008937984
C           61.52698661951629       -0.32741659222157       -6.66710618954610
H           65.83684626926772       -0.06897610447833       -0.15412489163070
H           65.79438318740418       -1.76035901999264       -2.16870865715495
H           63.95884213167743       -2.83683620117417       -3.60508380487444
H           58.53323095149025       -2.30281843223928       -3.85693318256990
H           56.71133659821181       -1.21405836730854       -2.40041158284460
H           57.03938811639528        0.81952257156082        2.57190774944595
H           59.00448121072117        1.91208066909794        4.09146977666426
H           60.69948170306706        6.72402540484656        2.44511935428903
H           59.63733091397341        5.94359695993236        1.22636815597435
H           59.05989444758359        6.10798991241612        2.91752349555600
H           60.60204369818976        6.15066725524856        4.84473504954835
H           61.49020457650321        5.41711867345823        7.00640829991442
H           62.39916546555904        3.16103035096633        7.29295284348152
H           63.39905813253064       -0.33269184021443        6.36800336509549
H           63.96786736029254        1.29123875811992        6.87741526450067
H           62.32268218670668        0.70256053008892        7.36407446298085
H           64.26110170267255        2.97974519756130        3.35887806313388
H           65.95359027564045        1.83390184915178        1.77123364968692
H           60.86135267737535       -6.31411310012184       -1.06551166619790
H           61.78748399603489       -6.77103122910778       -2.53356010278884
H           59.97989148604752       -6.62742982918839       -2.59782159365459
H           60.97900679518860       -6.24130539967908       -4.81514673429068
H           61.13123803671692       -5.28645279600166       -7.06637901064947
H           61.35002481635412       -2.86869787139257       -7.39670267463406
H           60.61378259420263       -0.50905712280106       -7.26485409905483
H           61.61052280380249        0.76061790345367       -6.47967063252179
H           62.42217059668869       -0.65442089043554       -7.22856682267428
C           37.43915735470483        0.00194353287066       -0.00433742693290
C           36.21605096666161       -0.01077569226322       -0.01245892491423
C           34.80599480211811       -0.00248474754430       -0.02378112395803
C           33.57405172137950        0.00349227493541       -0.01458295085325
C           38.79714517155261       -0.00415381540503       -0.00347024214435
C           39.98411470383997        0.00501661191922       -0.02206364518001
C           53.03237287523454        0.00191128076709       -0.00408010335231
C           51.80974376144206       -0.01084490161318       -0.01241144617803
C           50.45558328112354       -0.00177916906374       -0.02822468845883
C           49.27393046803702        0.00488300952816       -0.02654300162590
C           54.43939891205649       -0.00391112947842       -0.00333673914663