      -----------------------------------------------------------      
     |                   =====================                   |     
     |                           x T B                           |     
     |                   =====================                   |     
     |                         S. Grimme                         |     
     |          Mulliken Center for Theoretical Chemistry        |     
     |                    University of Bonn                     |     
      -----------------------------------------------------------      

   * xtb version 6.5.1 (b24c23e) compiled by 'conda@728c89f4b128' on 2022-07-12

   xtb is free software: you can redistribute it and/or modify it under
   the terms of the GNU Lesser General Public License as published by
   the Free Software Foundation, either version 3 of the License, or
   (at your option) any later version.
   
   xtb is distributed in the hope that it will be useful,
   but WITHOUT ANY WARRANTY; without even the implied warranty of
   MERCHANTABILITY or FITNESS FOR A PARTICULAR PURPOSE.  See the
   GNU Lesser General Public License for more details.
   
   Cite this work as:
   * C. Bannwarth, E. Caldeweyher, S. Ehlert, A. Hansen, P. Pracht,
     J. Seibert, S. Spicher, S. Grimme, WIREs Comput. Mol. Sci., 2020, 11,
     e01493. DOI: 10.1002/wcms.1493
   
   for GFN2-xTB:
   * C. Bannwarth, S. Ehlert and S. Grimme., J. Chem. Theory Comput., 2019,
     15, 1652-1671. DOI: 10.1021/acs.jctc.8b01176
   for GFN1-xTB:
   * S. Grimme, C. Bannwarth, P. Shushkov, J. Chem. Theory Comput., 2017,
     13, 1989-2009. DOI: 10.1021/acs.jctc.7b00118
   for GFN0-xTB:
   * P. Pracht, E. Caldeweyher, S. Ehlert, S. Grimme, ChemRxiv, 2019, preprint.
     DOI: 10.26434/chemrxiv.8326202.v1
   for GFN-FF:
   * S. Spicher and S. Grimme, Angew. Chem. Int. Ed., 2020, 59, 15665-15673.
     DOI: 10.1002/anie.202004239
   
   for ALPB and GBSA implicit solvation:
   * S. Ehlert, M. Stahn, S. Spicher, S. Grimme, J. Chem. Theory Comput.,
     2021, 17, 4250-4261. DOI: 10.1021/acs.jctc.1c00471
   
   for DFT-D4:
   * E. Caldeweyher, C. Bannwarth and S. Grimme, J. Chem. Phys., 2017,
     147, 034112. DOI: 10.1063/1.4993215
   * E. Caldeweyher, S. Ehlert, A. Hansen, H. Neugebauer, S. Spicher,
     C. Bannwarth and S. Grimme, J. Chem. Phys., 2019, 150, 154122.
     DOI: 10.1063/1.5090222
   * E. Caldeweyher, J.-M. Mewes, S. Ehlert and S. Grimme, Phys. Chem. Chem. Phys.
     2020, 22, 8499-8512. DOI: 10.1039/D0CP00502A
   
   for sTDA-xTB:
   * S. Grimme and C. Bannwarth, J. Chem. Phys., 2016, 145, 054103.
     DOI: 10.1063/1.4959605
   
   in the mass-spec context:
   * V. Asgeirsson, C. Bauer and S. Grimme, Chem. Sci., 2017, 8, 4879.
     DOI: 10.1039/c7sc00601b
   * J. Koopman and S. Grimme, ACS Omega 2019, 4, 12, 15120-15133.
     DOI: 10.1021/acsomega.9b02011
   
   for metadynamics refer to:
   * S. Grimme, J. Chem. Theory Comput., 2019, 155, 2847-2862
     DOI: 10.1021/acs.jctc.9b00143
   
   for SPH calculations refer to:
   * S. Spicher and S. Grimme, J. Chem. Theory Comput., 2021, 17, 1701-1714
     DOI: 10.1021/acs.jctc.0c01306
   
   with help from (in alphabetical order)
   P. Atkinson, C. Bannwarth, F. Bohle, G. Brandenburg, E. Caldeweyher
   M. Checinski, S. Dohm, S. Ehlert, S. Ehrlich, I. Gerasimov, C. Hölzer
   A. Katbashev, J. Koopman, C. Lavigne, S. Lehtola, F. März, M. Müller,
   F. Musil, H. Neugebauer, J. Pisarek, C. Plett, P. Pracht, F. Pultar,
   J. Seibert, P. Shushkov, S. Spicher, M. Stahn, M. Steiner, T. Strunk,
   J. Stückrath, T. Rose, and J. Unsleber
   
 * started run on 2022/07/30 at 03:36:24.977     

           -------------------------------------------------
          |                Calculation Setup                |
           -------------------------------------------------

          program call               : xtb xtbopt.xyz --gfn 1 --vipea
          hostname                   : cx3-6-25.cx3.hpc.ic.ac.uk
          coordinate file            : xtbopt.xyz
          omp threads                :                     1

   ID    Z sym.   atoms
    1    6 C      1-5, 7-11, 15-19, 21-26, 28-32, 36-41, 62-66, 68-72, 76-80,
                  82-87, 89-93, 97-102, 123, 124
    2    7 N      6, 12, 20, 27, 33, 42, 67, 73, 81, 88, 94, 103
    3    8 O      13, 14, 34, 35, 74, 75, 95, 96
    4    1 H      43-61, 104-122

           -------------------------------------------------
          |                 I P E A - x T B                 |
           -------------------------------------------------

        Reference                      10.1039/c7sc00601b
      * Hamiltonian:
        H0-scaling (s, p, d)           2.150000    2.300000    2.000000
        zeta-weighting                 0.000000
      * Dispersion:
        s8                             2.400000
        a1                             0.630000
        a2                             5.000000
        s9                             0.000000
      * Repulsion:
        kExp                           1.500000
        rExp                           1.000000
      * Coulomb:
        alpha                          1.000000
        third order                    atomic
        anisotropic                    false
      * Halogen bond correction:
        rad-scale                      1.300000
        damping                        0.440000


          ...................................................
          :                      SETUP                      :
          :.................................................:
          :  # basis functions                 506          :
          :  # atomic orbitals                 506          :
          :  # shells                          334          :
          :  # electrons                       410          :
          :  # halogen bonds                     0          :
          :  max. iterations                   250          :
          :  Hamiltonian                  GFN1-xTB          :
          :  restarted?                      false          :
          :  GBSA solvation                  false          :
          :  PC potential                    false          :
          :  electronic temp.          300.0000000     K    :
          :  accuracy                    1.0000000          :
          :  -> integral cutoff          0.2500000E+02      :
          :  -> integral neglect         0.1000000E-07      :
          :  -> SCF convergence          0.1000000E-05 Eh   :
          :  -> wf. convergence          0.2000000E-04 e    :
          :  Broyden damping             0.4000000          :
          ...................................................

 iter      E             dE          RMSdq      gap      omega  full diag
   1   -266.9717829 -0.266972E+03  0.986E+00    0.95       0.0  T
   2   -267.1533431 -0.181560E+00  0.614E+00    1.41       1.0  T
   3   -263.2658766  0.388747E+01  0.469E+00    0.69       1.0  T
   4   -267.8373861 -0.457151E+01  0.979E-01    1.43       1.0  T
   5   -268.1225432 -0.285157E+00  0.240E-01    1.32       1.0  T
   6   -268.1382934 -0.157502E-01  0.104E-01    1.34       1.0  T
   7   -268.1405751 -0.228168E-02  0.444E-02    1.32       1.0  T
   8   -268.1408880 -0.312917E-03  0.285E-02    1.32       1.0  T
   9   -268.1409861 -0.980286E-04  0.127E-02    1.33       1.0  T
  10   -268.1410183 -0.322702E-04  0.389E-03    1.33       2.3  T
  11   -268.1410202 -0.187031E-05  0.199E-03    1.33       4.5  T
  12   -268.1410211 -0.850882E-06  0.759E-04    1.33      11.8  T
  13   -268.1410212 -0.171146E-06  0.150E-04    1.33      59.8  T
  14   -268.1410212 -0.382227E-08  0.722E-05    1.33     124.4  T

   *** convergence criteria satisfied after 14 iterations ***

         #    Occupation            Energy/Eh            Energy/eV
      -------------------------------------------------------------
         1        2.0000           -1.1872605             -32.3070
       ...           ...                  ...                  ...
       199        2.0000           -0.4373780             -11.9017
       200        2.0000           -0.4358261             -11.8594
       201        2.0000           -0.4354215             -11.8484
       202        2.0000           -0.4067816             -11.0691
       203        2.0000           -0.4063889             -11.0584
       204        2.0000           -0.4014313             -10.9235
       205        2.0000           -0.3829273             -10.4200 (HOMO)
       206                         -0.3342025              -9.0941 (LUMO)
       207                         -0.3257000              -8.8627
       208                         -0.3250792              -8.8459
       209                         -0.3122267              -8.4961
       210                         -0.3070069              -8.3541
       ...                                ...                  ...
       506                        553.8328905           15070.5600
      -------------------------------------------------------------
                  HL-Gap            0.0487248 Eh            1.3259 eV
             Fermi-level           -0.3585649 Eh           -9.7570 eV

 SCC (total)                   0 d,  0 h,  0 min,  1.526 sec
 SCC setup                      ...        0 min,  0.002 sec (  0.118%)
 Dispersion                     ...        0 min,  0.003 sec (  0.182%)
 classical contributions        ...        0 min,  0.001 sec (  0.078%)
 integral evaluation            ...        0 min,  0.246 sec ( 16.092%)
 iterations                     ...        0 min,  0.700 sec ( 45.843%)
 molecular gradient             ...        0 min,  0.563 sec ( 36.903%)
 printout                       ...        0 min,  0.012 sec (  0.782%)

         :::::::::::::::::::::::::::::::::::::::::::::::::::::
         ::                     SUMMARY                     ::
         :::::::::::::::::::::::::::::::::::::::::::::::::::::
         :: total energy            -263.552752728568 Eh    ::
         :: gradient norm              0.098297183642 Eh/a0 ::
         :: HOMO-LUMO gap              1.325868868726 eV    ::
         ::.................................................::
         :: SCC energy              -268.141021227683 Eh    ::
         :: -> electrostatic           0.230655113708 Eh    ::
         :: repulsion energy           4.695778847286 Eh    ::
         :: dispersion energy         -0.107510348171 Eh    ::
         :: halogen bond corr.         0.000000000000 Eh    ::
         :: add. restraining           0.000000000000 Eh    ::
         :: total charge               0.000000000000 e     ::
         :::::::::::::::::::::::::::::::::::::::::::::::::::::

           ------------------------------------------------- 
          |        vertical delta SCC IP calculation        |
           ------------------------------------------------- 
   1   -267.7086189 -0.267709E+03  0.181E-01    1.33       0.0  T
   2   -267.7159860 -0.736719E-02  0.121E-01    1.38       1.0  T
   3   -267.7196243 -0.363823E-02  0.851E-02    1.33       1.0  T
   4   -267.7204150 -0.790701E-03  0.413E-02    1.34       1.0  T
   5   -267.7203481  0.668630E-04  0.295E-02    1.34       1.0  T
   6   -267.7204879 -0.139778E-03  0.120E-02    1.34       1.0  T
   7   -267.7205330 -0.450887E-04  0.300E-03    1.34       3.0  T
   8   -267.7205339 -0.962513E-06  0.180E-03    1.34       5.0  T
   9   -267.7205347 -0.704895E-06  0.657E-04    1.34      13.7  T
  10   -267.7205348 -0.126078E-06  0.312E-04    1.34      28.8  T
  11   -267.7205348 -0.102537E-07  0.218E-04    1.34      41.2  T
  12   -267.7205348 -0.107625E-07  0.983E-05    1.34      91.4  T
  13   -267.7205348 -0.248991E-08  0.429E-05    1.34     209.2  T
     SCC iter.                  ...        0 min,  0.649 sec
     gradient                   ...        0 min,  0.566 sec
------------------------------------------------------------------------
empirical IP shift (eV):    4.8455
delta SCC IP (eV):    6.5965
------------------------------------------------------------------------
           ------------------------------------------------- 
          |        vertical delta SCC EA calculation        |
           ------------------------------------------------- 
   1   -268.3954422 -0.268395E+03  0.317E-01    0.33       0.0  T
   2   -268.4177090 -0.222668E-01  0.273E-01    0.03       1.0  T
   3   -268.4332279 -0.155190E-01  0.167E-01    0.16       1.0  T
   4   -268.4375297 -0.430177E-02  0.107E-01    0.07       1.0  T
   5   -268.4383254 -0.795701E-03  0.563E-02    0.07       1.0  T
   6   -268.4385350 -0.209598E-03  0.365E-02    0.09       1.0  T
   7   -268.4388900 -0.354954E-03  0.109E-02    0.08       1.0  T
   8   -268.4389215 -0.314935E-04  0.520E-03    0.08       1.7  T
   9   -268.4389032  0.182656E-04  0.580E-03    0.08       1.5  T
  10   -268.4389270 -0.237932E-04  0.251E-03    0.08       3.6  T
  11   -268.4389316 -0.459718E-05  0.700E-04    0.08      12.8  T
  12   -268.4389317 -0.941526E-07  0.352E-04    0.08      25.5  T
  13   -268.4389317 -0.224883E-07  0.157E-04    0.08      57.2  T
  14   -268.4389317 -0.509891E-08  0.477E-05    0.08     188.4  T
     SCC iter.                  ...        0 min,  0.698 sec
     gradient                   ...        0 min,  0.566 sec
------------------------------------------------------------------------
empirical EA shift (eV):    4.8455
delta SCC EA (eV):    3.2611
------------------------------------------------------------------------
           -------------------------------------------------
          |                Property Printout                |
           -------------------------------------------------

    * Orbital Energies and Occupations

         #    Occupation            Energy/Eh            Energy/eV
      -------------------------------------------------------------
         1        2.0000           -1.1332219             -30.8365
       ...           ...                  ...                  ...
       194        2.0000           -0.3809853             -10.3671
       195        2.0000           -0.3786522             -10.3037
       196        2.0000           -0.3785454             -10.3007
       197        2.0000           -0.3774180             -10.2701
       198        2.0000           -0.3694595             -10.0535
       199        2.0000           -0.3682885             -10.0216
       200        2.0000           -0.3662325              -9.9657
       201        2.0000           -0.3661810              -9.9643
       202        2.0000           -0.3360073              -9.1432
       203        2.0000           -0.3358075              -9.1378
       204        2.0000           -0.3306590              -8.9977
       205        2.0000           -0.3118689              -8.4864
       206        0.7941           -0.2629431              -7.1550 (HOMO)
       207        0.1404           -0.2599396              -7.0733 (LUMO)
       208        0.0655           -0.2591350              -7.0514
       209        0.0000           -0.2495269              -6.7900
       210        0.0000           -0.2495065              -6.7894
       211                         -0.2406250              -6.5477
       212                         -0.2406181              -6.5476
       213                         -0.2403786              -6.5410
       214                         -0.2062998              -5.6137
       215                         -0.1999804              -5.4417
       216                         -0.1991402              -5.4189
       217                         -0.1961724              -5.3381
       ...                                ...                  ...
       506                        553.9006525           15072.4039
      -------------------------------------------------------------
                  HL-Gap            0.0030035 Eh            0.0817 eV
             Fermi-level           -0.2745474 Eh           -7.4708 eV

  Mulliken/CM5 charges         n(s)   n(p)   n(d)
     1C    -0.03049 -0.07130   1.083  2.948  0.000
     2C     0.05850  0.11890   1.104  2.837  0.000
     3C    -0.04093 -0.08628   1.078  2.963  0.000
     4C    -0.03853 -0.08357   1.072  2.967  0.000
     5C     0.05768  0.12172   1.096  2.847  0.000
     6N    -0.16177 -0.51496   1.312  3.849  0.000
     7C     0.00277  0.00851   1.084  2.913  0.000
     8C     0.01772  0.00919   1.094  2.888  0.000
     9C    -0.01506 -0.06808   1.078  2.937  0.000
    10C    -0.00999 -0.05670   1.091  2.919  0.000
    11C     0.04122  0.09575   1.116  2.842  0.000
    12N     0.29012  0.11805   1.470  3.239  0.000
    13O    -0.28061 -0.23965   1.674  4.606  0.000
    14O    -0.28255 -0.24161   1.674  4.608  0.000
    15C    -0.01126 -0.05797   1.090  2.921  0.000
    16C    -0.01704 -0.07005   1.075  2.942  0.000
    17C     0.05509  0.12332   1.113  2.831  0.000
    18C    -0.04089 -0.08701   1.078  2.962  0.000
    19C    -0.03902 -0.08495   1.083  2.956  0.000
    20N    -0.28900 -0.47569   1.292  3.997  0.000
    21C     0.06158  0.13207   1.129  2.810  0.000
    22C     0.01071  0.01786   1.081  2.908  0.000
    23C     0.06162  0.12625   1.107  2.831  0.000
    24C    -0.03689 -0.08183   1.071  2.966  0.000
    25C    -0.03871 -0.08378   1.067  2.972  0.000
    26C     0.05682  0.12029   1.094  2.849  0.000
    27N    -0.15905 -0.51131   1.316  3.843  0.000
    28C     0.00055  0.00634   1.082  2.917  0.000
    29C     0.01688  0.00837   1.093  2.890  0.000
    30C    -0.01661 -0.06973   1.077  2.940  0.000
    31C    -0.01134 -0.05807   1.090  2.921  0.000
    32C     0.04048  0.09502   1.116  2.844  0.000
    33N     0.28822  0.11615   1.470  3.241  0.000
    34O    -0.28404 -0.24308   1.674  4.610  0.000
    35O    -0.28273 -0.24179   1.674  4.609  0.000
    36C    -0.01111 -0.05781   1.090  2.921  0.000
    37C    -0.01664 -0.06958   1.075  2.942  0.000
    38C     0.05748  0.12695   1.118  2.824  0.000
    39C    -0.04119 -0.08730   1.084  2.957  0.000
    40C    -0.04273 -0.08916   1.091  2.952  0.000
    41C     0.05596  0.12163   1.125  2.819  0.000
    42N    -0.29371 -0.48060   1.291  4.003  0.000
    43H     0.02131  0.08032   0.979  0.000  0.000
    44H     0.03261  0.08931   0.967  0.000  0.000
    45H     0.02567  0.08439   0.974  0.000  0.000
    46H     0.16109  0.36940   0.839  0.000  0.000
    47H     0.03331  0.09146   0.967  0.000  0.000
    48H     0.04947  0.11340   0.951  0.000  0.000
    49H     0.04739  0.11132   0.953  0.000  0.000
    50H     0.03269  0.09077   0.967  0.000  0.000
    51H     0.01864  0.07744   0.981  0.000  0.000
    52H     0.01686  0.07545   0.983  0.000  0.000
    53H     0.02460  0.08323   0.975  0.000  0.000
    54H     0.02650  0.08530   0.974  0.000  0.000
    55H     0.15813  0.36636   0.842  0.000  0.000
    56H     0.03105  0.08917   0.969  0.000  0.000
    57H     0.04666  0.11058   0.953  0.000  0.000
    58H     0.04823  0.11216   0.952  0.000  0.000
    59H     0.03337  0.09151   0.967  0.000  0.000
    60H     0.01746  0.07621   0.983  0.000  0.000
    61H     0.02394  0.08040   0.976  0.000  0.000
    62C    -0.03049 -0.07130   1.083  2.948  0.000
    63C     0.05850  0.11890   1.104  2.837  0.000
    64C    -0.04093 -0.08628   1.078  2.963  0.000
    65C    -0.03853 -0.08357   1.072  2.967  0.000
    66C     0.05768  0.12172   1.096  2.847  0.000
    67N    -0.16177 -0.51496   1.312  3.849  0.000
    68C     0.00277  0.00851   1.084  2.913  0.000
    69C     0.01772  0.00919   1.094  2.888  0.000
    70C    -0.01506 -0.06808   1.078  2.937  0.000
    71C    -0.00998 -0.05670   1.091  2.919  0.000
    72C     0.04122  0.09576   1.116  2.842  0.000
    73N     0.29011  0.11803   1.470  3.239  0.000
    74O    -0.28062 -0.23966   1.674  4.606  0.000
    75O    -0.28255 -0.24161   1.674  4.608  0.000
    76C    -0.01126 -0.05797   1.090  2.921  0.000
    77C    -0.01704 -0.07005   1.075  2.942  0.000
    78C     0.05509  0.12332   1.113  2.831  0.000
    79C    -0.04089 -0.08702   1.078  2.962  0.000
    80C    -0.03902 -0.08495   1.083  2.956  0.000
    81N    -0.28900 -0.47569   1.292  3.997  0.000
    82C     0.06158  0.13207   1.129  2.810  0.000
    83C     0.01071  0.01786   1.081  2.908  0.000
    84C     0.06162  0.12624   1.107  2.831  0.000
    85C    -0.03689 -0.08183   1.071  2.966  0.000
    86C    -0.03871 -0.08378   1.067  2.972  0.000
    87C     0.05682  0.12029   1.094  2.849  0.000
    88N    -0.15905 -0.51131   1.316  3.843  0.000
    89C     0.00055  0.00634   1.082  2.917  0.000
    90C     0.01688  0.00837   1.093  2.890  0.000
    91C    -0.01661 -0.06973   1.077  2.940  0.000
    92C    -0.01134 -0.05807   1.090  2.921  0.000
    93C     0.04048  0.09502   1.116  2.844  0.000
    94N     0.28821  0.11614   1.470  3.241  0.000
    95O    -0.28404 -0.24308   1.674  4.610  0.000
    96O    -0.28274 -0.24181   1.674  4.609  0.000
    97C    -0.01111 -0.05781   1.090  2.921  0.000
    98C    -0.01664 -0.06958   1.075  2.942  0.000
    99C     0.05747  0.12695   1.118  2.824  0.000
   100C    -0.04119 -0.08730   1.084  2.957  0.000
   101C    -0.04273 -0.08916   1.091  2.952  0.000
   102C     0.05596  0.12163   1.125  2.819  0.000
   103N    -0.29371 -0.48060   1.291  4.003  0.000
   104H     0.02131  0.08032   0.979  0.000  0.000
   105H     0.03262  0.08931   0.967  0.000  0.000
   106H     0.02567  0.08439   0.974  0.000  0.000
   107H     0.16109  0.36940   0.839  0.000  0.000
   108H     0.03331  0.09146   0.967  0.000  0.000
   109H     0.04947  0.11340   0.951  0.000  0.000
   110H     0.04739  0.11132   0.953  0.000  0.000
   111H     0.03269  0.09077   0.967  0.000  0.000
   112H     0.01864  0.07744   0.981  0.000  0.000
   113H     0.01685  0.07544   0.983  0.000  0.000
   114H     0.02460  0.08323   0.975  0.000  0.000
   115H     0.02650  0.08530   0.974  0.000  0.000
   116H     0.15813  0.36636   0.842  0.000  0.000
   117H     0.03105  0.08917   0.969  0.000  0.000
   118H     0.04666  0.11058   0.953  0.000  0.000
   119H     0.04823  0.11216   0.952  0.000  0.000
   120H     0.03337  0.09151   0.967  0.000  0.000
   121H     0.01746  0.07621   0.983  0.000  0.000
   122H     0.02394  0.08040   0.976  0.000  0.000
   123C    -0.03044 -0.03264   1.068  2.963  0.000
   124C    -0.03045 -0.03265   1.068  2.963  0.000

Wiberg/Mayer (AO) data.
largest (>0.10) Wiberg bond orders for each atom

 ---------------------------------------------------------------------------
     #   Z sym  total        # sym  WBO       # sym  WBO       # sym  WBO
 ---------------------------------------------------------------------------
     1   6 C    3.789 --    41 C    1.388     2 C    1.360    43 H    0.996
     2   6 C    3.917 --     1 C    1.360     3 C    1.248     6 N    1.230
     3   6 C    3.820 --     4 C    1.582     2 C    1.248    44 H    0.994
     4   6 C    3.809 --     3 C    1.582     5 C    1.258    45 H    0.999
     5   6 C    3.885 --     7 C    1.330     4 C    1.258     6 N    1.227
     6   7 N    3.238 --     2 C    1.230     5 C    1.227    46 H    0.962
     7   6 C    3.818 --    17 C    1.362     5 C    1.330     8 C    1.064
     8   6 C    3.887 --    16 C    1.409     9 C    1.408     7 C    1.064
     9   6 C    3.860 --    10 C    1.471     8 C    1.408    47 H    0.988
    10   6 C    3.892 --     9 C    1.471    11 C    1.399    48 H    0.986
    11   6 C    3.925 --    15 C    1.399    10 C    1.399    12 N    1.010
    12   7 N    4.092 --    13 O    1.558    14 O    1.556    11 C    1.010
    13   8 O    1.989 --    12 N    1.558    14 O    0.373
    14   8 O    1.987 --    12 N    1.556    13 O    0.373
    15   6 C    3.892 --    16 C    1.470    11 C    1.399    49 H    0.987
    16   6 C    3.857 --    15 C    1.470     8 C    1.409    50 H    0.988
    17   6 C    3.915 --     7 C    1.362    20 N    1.355    18 C    1.164
    18   6 C    3.823 --    19 C    1.684    17 C    1.164    51 H    0.999
    19   6 C    3.823 --    18 C    1.684    21 C    1.172    52 H    0.999
    20   7 N    2.537 --    21 C    1.413    17 C    1.355
    21   6 C    3.935 --    20 N    1.413    22 C    1.285    19 C    1.172
    22   6 C    3.812 --    21 C    1.285    23 C    1.268   123 C    1.228
    23   6 C    3.887 --    24 C    1.285    22 C    1.268    27 N    1.248
    24   6 C    3.797 --    25 C    1.556    23 C    1.285    53 H    0.998
    25   6 C    3.789 --    24 C    1.556    26 C    1.273    54 H    0.998
    26   6 C    3.877 --    28 C    1.316    25 C    1.273    27 N    1.227
    27   7 N    3.252 --    23 C    1.248    26 C    1.227    55 H    0.963
    28   6 C    3.796 --    38 C    1.362    26 C    1.316    29 C    1.068
    29   6 C    3.883 --    30 C    1.406    37 C    1.405    28 C    1.068
    30   6 C    3.859 --    31 C    1.472    29 C    1.406    56 H    0.988
    31   6 C    3.891 --    30 C    1.472    32 C    1.398    57 H    0.987
    32   6 C    3.922 --    31 C    1.398    36 C    1.396    33 N    1.011
    33   7 N    4.088 --    35 O    1.555    34 O    1.554    32 C    1.011
    34   8 O    1.982 --    33 N    1.554    35 O    0.370
    35   8 O    1.983 --    33 N    1.555    34 O    0.370
    36   6 C    3.890 --    37 C    1.472    32 C    1.396    58 H    0.986
    37   6 C    3.856 --    36 C    1.472    29 C    1.405    59 H    0.988
    38   6 C    3.941 --    42 N    1.376    28 C    1.362    39 C    1.151
    39   6 C    3.836 --    40 C    1.707    38 C    1.151    60 H    1.000
    40   6 C    3.858 --    39 C    1.707    41 C    1.146    61 H    0.994
    41   6 C    3.963 --     1 C    1.388    42 N    1.370    40 C    1.146
    42   7 N    2.519 --    38 C    1.376    41 C    1.370
    43   1 H    1.035 --     1 C    0.996
    44   1 H    1.019 --     3 C    0.994
    45   1 H    1.033 --     4 C    0.999
    46   1 H    1.084 --     6 N    0.962
    47   1 H    1.048 --     9 C    0.988
    48   1 H    1.031 --    10 C    0.986
    49   1 H    1.032 --    15 C    0.987
    50   1 H    1.045 --    16 C    0.988
    51   1 H    1.035 --    18 C    0.999
    52   1 H    1.038 --    19 C    0.999
    53   1 H    1.033 --    24 C    0.998
    54   1 H    1.032 --    25 C    0.998
    55   1 H    1.088 --    27 N    0.963
    56   1 H    1.049 --    30 C    0.988
    57   1 H    1.033 --    31 C    0.987
    58   1 H    1.032 --    36 C    0.986
    59   1 H    1.044 --    37 C    0.988
    60   1 H    1.036 --    39 C    1.000
    61   1 H    1.021 --    40 C    0.994
    62   6 C    3.789 --   102 C    1.388    63 C    1.360   104 H    0.996
    63   6 C    3.917 --    62 C    1.360    64 C    1.248    67 N    1.230
    64   6 C    3.820 --    65 C    1.582    63 C    1.248   105 H    0.994
    65   6 C    3.809 --    64 C    1.582    66 C    1.258   106 H    0.999
    66   6 C    3.885 --    68 C    1.330    65 C    1.258    67 N    1.227
    67   7 N    3.238 --    63 C    1.230    66 C    1.227   107 H    0.962
    68   6 C    3.818 --    78 C    1.362    66 C    1.330    69 C    1.064
    69   6 C    3.887 --    77 C    1.409    70 C    1.408    68 C    1.064
    70   6 C    3.860 --    71 C    1.471    69 C    1.408   108 H    0.988
    71   6 C    3.892 --    70 C    1.471    72 C    1.399   109 H    0.986
    72   6 C    3.925 --    76 C    1.399    71 C    1.399    73 N    1.010
    73   7 N    4.092 --    74 O    1.558    75 O    1.556    72 C    1.010
    74   8 O    1.989 --    73 N    1.558    75 O    0.373
    75   8 O    1.987 --    73 N    1.556    74 O    0.373
    76   6 C    3.892 --    77 C    1.470    72 C    1.399   110 H    0.987
    77   6 C    3.857 --    76 C    1.470    69 C    1.409   111 H    0.988
    78   6 C    3.915 --    68 C    1.362    81 N    1.355    79 C    1.164
    79   6 C    3.823 --    80 C    1.684    78 C    1.164   112 H    0.999
    80   6 C    3.823 --    79 C    1.684    82 C    1.172   113 H    0.999
    81   7 N    2.537 --    82 C    1.413    78 C    1.355
    82   6 C    3.935 --    81 N    1.413    83 C    1.285    80 C    1.172
    83   6 C    3.812 --    82 C    1.285    84 C    1.268   124 C    1.228
    84   6 C    3.887 --    85 C    1.285    83 C    1.268    88 N    1.248
    85   6 C    3.797 --    86 C    1.556    84 C    1.285   114 H    0.998
    86   6 C    3.789 --    85 C    1.556    87 C    1.273   115 H    0.998
    87   6 C    3.877 --    89 C    1.316    86 C    1.273    88 N    1.227
    88   7 N    3.252 --    84 C    1.248    87 C    1.227   116 H    0.963
    89   6 C    3.796 --    99 C    1.362    87 C    1.316    90 C    1.068
    90   6 C    3.883 --    91 C    1.406    98 C    1.405    89 C    1.068
    91   6 C    3.859 --    92 C    1.472    90 C    1.406   117 H    0.988
    92   6 C    3.891 --    91 C    1.472    93 C    1.398   118 H    0.987
    93   6 C    3.922 --    92 C    1.398    97 C    1.396    94 N    1.011
    94   7 N    4.088 --    96 O    1.555    95 O    1.554    93 C    1.011
    95   8 O    1.982 --    94 N    1.554    96 O    0.370
    96   8 O    1.983 --    94 N    1.555    95 O    0.370
    97   6 C    3.890 --    98 C    1.472    93 C    1.396   119 H    0.986
    98   6 C    3.856 --    97 C    1.472    90 C    1.405   120 H    0.988
    99   6 C    3.941 --   103 N    1.376    89 C    1.362   100 C    1.151
   100   6 C    3.836 --   101 C    1.707    99 C    1.151   121 H    1.000
   101   6 C    3.858 --   100 C    1.707   102 C    1.146   122 H    0.994
   102   6 C    3.963 --    62 C    1.388   103 N    1.370   101 C    1.146
   103   7 N    2.519 --    99 C    1.376   102 C    1.370
   104   1 H    1.035 --    62 C    0.996
   105   1 H    1.019 --    64 C    0.994
   106   1 H    1.033 --    65 C    0.999
   107   1 H    1.084 --    67 N    0.962
   108   1 H    1.048 --    70 C    0.988
   109   1 H    1.031 --    71 C    0.986
   110   1 H    1.032 --    76 C    0.987
   111   1 H    1.045 --    77 C    0.988
   112   1 H    1.035 --    79 C    0.999
   113   1 H    1.038 --    80 C    0.999
   114   1 H    1.033 --    85 C    0.998
   115   1 H    1.032 --    86 C    0.998
   116   1 H    1.088 --    88 N    0.963
   117   1 H    1.049 --    91 C    0.988
   118   1 H    1.033 --    92 C    0.987
   119   1 H    1.032 --    97 C    0.986
   120   1 H    1.044 --    98 C    0.988
   121   1 H    1.036 --   100 C    1.000
   122   1 H    1.021 --   101 C    0.994
   123   6 C    3.754 --   124 C    2.595    22 C    1.228
   124   6 C    3.754 --   123 C    2.595    83 C    1.228
 ---------------------------------------------------------------------------

Topologies differ in total number of bonds
Writing topology from bond orders to xtbtopo.mol

 dipole moment from electron density (au)
     X       Y       Z   
 -42.7939   0.0546   0.1981  total (Debye):  108.772


           -------------------------------------------------
          | TOTAL ENERGY             -263.850663208189 Eh   |
          | GRADIENT NORM               0.124464746639 Eh/α |
          | HOMO-LUMO GAP               0.081728155192 eV   |
           -------------------------------------------------
########################################################################
[WARNING] Runtime exception occurred
-1- restart_readRestart: Dimension missmatch in restart file.
########################################################################

------------------------------------------------------------------------
 * finished run on 2022/07/30 at 03:36:29.762     
------------------------------------------------------------------------
 total:
 * wall-time:     0 d,  0 h,  0 min,  4.785 sec
 *  cpu-time:     0 d,  0 h,  0 min,  4.766 sec
 * ratio c/w:     0.996 speedup
 SCF:
 * wall-time:     0 d,  0 h,  0 min,  4.534 sec
 *  cpu-time:     0 d,  0 h,  0 min,  4.517 sec
 * ratio c/w:     0.996 speedup

