      -----------------------------------------------------------      
     |                   =====================                   |     
     |                           x T B                           |     
     |                   =====================                   |     
     |                         S. Grimme                         |     
     |          Mulliken Center for Theoretical Chemistry        |     
     |                    University of Bonn                     |     
      -----------------------------------------------------------      

   * xtb version 6.5.1 (b24c23e) compiled by 'conda@728c89f4b128' on 2022-07-12

   xtb is free software: you can redistribute it and/or modify it under
   the terms of the GNU Lesser General Public License as published by
   the Free Software Foundation, either version 3 of the License, or
   (at your option) any later version.
   
   xtb is distributed in the hope that it will be useful,
   but WITHOUT ANY WARRANTY; without even the implied warranty of
   MERCHANTABILITY or FITNESS FOR A PARTICULAR PURPOSE.  See the
   GNU Lesser General Public License for more details.
   
   Cite this work as:
   * C. Bannwarth, E. Caldeweyher, S. Ehlert, A. Hansen, P. Pracht,
     J. Seibert, S. Spicher, S. Grimme, WIREs Comput. Mol. Sci., 2020, 11,
     e01493. DOI: 10.1002/wcms.1493
   
   for GFN2-xTB:
   * C. Bannwarth, S. Ehlert and S. Grimme., J. Chem. Theory Comput., 2019,
     15, 1652-1671. DOI: 10.1021/acs.jctc.8b01176
   for GFN1-xTB:
   * S. Grimme, C. Bannwarth, P. Shushkov, J. Chem. Theory Comput., 2017,
     13, 1989-2009. DOI: 10.1021/acs.jctc.7b00118
   for GFN0-xTB:
   * P. Pracht, E. Caldeweyher, S. Ehlert, S. Grimme, ChemRxiv, 2019, preprint.
     DOI: 10.26434/chemrxiv.8326202.v1
   for GFN-FF:
   * S. Spicher and S. Grimme, Angew. Chem. Int. Ed., 2020, 59, 15665-15673.
     DOI: 10.1002/anie.202004239
   
   for ALPB and GBSA implicit solvation:
   * S. Ehlert, M. Stahn, S. Spicher, S. Grimme, J. Chem. Theory Comput.,
     2021, 17, 4250-4261. DOI: 10.1021/acs.jctc.1c00471
   
   for DFT-D4:
   * E. Caldeweyher, C. Bannwarth and S. Grimme, J. Chem. Phys., 2017,
     147, 034112. DOI: 10.1063/1.4993215
   * E. Caldeweyher, S. Ehlert, A. Hansen, H. Neugebauer, S. Spicher,
     C. Bannwarth and S. Grimme, J. Chem. Phys., 2019, 150, 154122.
     DOI: 10.1063/1.5090222
   * E. Caldeweyher, J.-M. Mewes, S. Ehlert and S. Grimme, Phys. Chem. Chem. Phys.
     2020, 22, 8499-8512. DOI: 10.1039/D0CP00502A
   
   for sTDA-xTB:
   * S. Grimme and C. Bannwarth, J. Chem. Phys., 2016, 145, 054103.
     DOI: 10.1063/1.4959605
   
   in the mass-spec context:
   * V. Asgeirsson, C. Bauer and S. Grimme, Chem. Sci., 2017, 8, 4879.
     DOI: 10.1039/c7sc00601b
   * J. Koopman and S. Grimme, ACS Omega 2019, 4, 12, 15120-15133.
     DOI: 10.1021/acsomega.9b02011
   
   for metadynamics refer to:
   * S. Grimme, J. Chem. Theory Comput., 2019, 155, 2847-2862
     DOI: 10.1021/acs.jctc.9b00143
   
   for SPH calculations refer to:
   * S. Spicher and S. Grimme, J. Chem. Theory Comput., 2021, 17, 1701-1714
     DOI: 10.1021/acs.jctc.0c01306
   
   with help from (in alphabetical order)
   P. Atkinson, C. Bannwarth, F. Bohle, G. Brandenburg, E. Caldeweyher
   M. Checinski, S. Dohm, S. Ehlert, S. Ehrlich, I. Gerasimov, C. Hölzer
   A. Katbashev, J. Koopman, C. Lavigne, S. Lehtola, F. März, M. Müller,
   F. Musil, H. Neugebauer, J. Pisarek, C. Plett, P. Pracht, F. Pultar,
   J. Seibert, P. Shushkov, S. Spicher, M. Stahn, M. Steiner, T. Strunk,
   J. Stückrath, T. Rose, and J. Unsleber
   
 * started run on 2022/07/30 at 09:38:15.041     

           -------------------------------------------------
          |                Calculation Setup                |
           -------------------------------------------------

          program call               : xtb xtbopt.xyz --gfn 1 --vipea
          hostname                   : cx3-15-15.cx3.hpc.ic.ac.uk
          coordinate file            : xtbopt.xyz
          omp threads                :                     1

   ID    Z sym.   atoms
    1   29 Cu     1, 63, 137, 198
    2    6 C      2-6, 8-11, 13, 15, 17-20, 22-27, 29-32, 34, 36, 38-42,
                  64-68, 70-73, 75, 77, 79-82, 84-89, 91-94, 96, 98, 100-104,
                  125-136, 138-142, 144-147, 149, 151, 153-156, 158-163,
                  165-168, 170, 172, 174-178, 199-203, 205-208, 210, 212,
                  214-217, 219-224, 226-229, 231, 233, 235-239
    3    7 N      7, 21, 28, 43, 69, 83, 90, 105, 143, 157, 164, 179, 204,
                  218, 225, 240
    4    8 O      12, 14, 16, 33, 35, 37, 74, 76, 78, 95, 97, 99, 148, 150,
                  152, 169, 171, 173, 209, 211, 213, 230, 232, 234
    5    1 H      44-62, 106-124, 180-197, 241-258

           -------------------------------------------------
          |                 I P E A - x T B                 |
           -------------------------------------------------

        Reference                      10.1039/c7sc00601b
      * Hamiltonian:
        H0-scaling (s, p, d)           2.150000    2.300000    2.000000
        zeta-weighting                 0.000000
      * Dispersion:
        s8                             2.400000
        a1                             0.630000
        a2                             5.000000
        s9                             0.000000
      * Repulsion:
        kExp                           1.500000
        rExp                           1.000000
      * Coulomb:
        alpha                          1.000000
        third order                    atomic
        anisotropic                    false
      * Halogen bond correction:
        rad-scale                      1.300000
        damping                        0.440000


          ...................................................
          :                      SETUP                      :
          :.................................................:
          :  # basis functions                1088          :
          :  # atomic orbitals                1084          :
          :  # shells                          700          :
          :  # electrons                       902          :
          :  # halogen bonds                     0          :
          :  max. iterations                   250          :
          :  Hamiltonian                  GFN1-xTB          :
          :  restarted?                      false          :
          :  GBSA solvation                  false          :
          :  PC potential                    false          :
          :  electronic temp.          300.0000000     K    :
          :  accuracy                    1.0000000          :
          :  -> integral cutoff          0.2500000E+02      :
          :  -> integral neglect         0.1000000E-07      :
          :  -> SCF convergence          0.1000000E-05 Eh   :
          :  -> wf. convergence          0.2000000E-04 e    :
          :  Broyden damping             0.4000000          :
          ...................................................

 iter      E             dE          RMSdq      gap      omega  full diag
   1   -578.3955659 -0.578396E+03  0.102E+01    0.01       0.0  T
   2   -579.4317194 -0.103615E+01  0.630E+00    0.28       1.0  T
   3   -564.7449970  0.146867E+02  0.523E+00    0.01       1.0  T
   4   -571.8138711 -0.706887E+01  0.221E+00    0.05       1.0  T
   5   -574.4351302 -0.262126E+01  0.177E+00    0.46       1.0  T
   6   -581.3319168 -0.689679E+01  0.753E-01    0.06       1.0  T
   7   -581.2697152  0.622016E-01  0.730E-01    0.20       1.0  T
   8   -581.2668706  0.284462E-02  0.731E-01    0.03       1.0  T
   9   -581.4757107 -0.208840E+00  0.583E-01    0.00       1.0  T
  10   -581.4448105  0.309002E-01  0.592E-01    0.03       1.0  T
  11   -581.3976468  0.471637E-01  0.713E-01    0.10       1.0  T
  12   -581.3001955  0.974513E-01  0.612E-01    0.09       1.0  T
  13   -581.4080339 -0.107838E+00  0.566E-01    0.04       1.0  T
  14   -581.2939556  0.114078E+00  0.577E-01    0.06       1.0  T
  15   -581.4936666 -0.199711E+00  0.522E-01    0.00       1.0  T
  16   -581.6109716 -0.117305E+00  0.316E-01    0.00       1.0  T
  17   -581.5603627  0.506089E-01  0.429E-01    0.00       1.0  T
  18   -581.6118107 -0.514480E-01  0.282E-01    0.01       1.0  T
  19   -581.6061434  0.566730E-02  0.293E-01    0.00       1.0  T
  20   -581.6507481 -0.446047E-01  0.966E-02    0.00       1.0  T
  21   -581.6483565  0.239160E-02  0.113E-01    0.00       1.0  T
  22   -581.6527027 -0.434623E-02  0.699E-02    0.00       1.0  T
  23   -581.6554986 -0.279590E-02  0.136E-02    0.00       1.0  T
  24   -581.6551002  0.398430E-03  0.302E-02    0.00       1.0  T
  25   -581.6554534 -0.353230E-03  0.191E-02    0.00       1.0  T
  26   -581.6556254 -0.172024E-03  0.909E-03    0.00       1.0  T
  27   -581.6556449 -0.194169E-04  0.627E-03    0.00       1.0  T
  28   -581.6556473 -0.247651E-05  0.577E-03    0.00       1.1  T
  29   -581.6556595 -0.121756E-04  0.304E-03    0.00       2.1  T
  30   -581.6556616 -0.213170E-05  0.221E-03    0.00       2.8  T
  31   -581.6556614  0.289285E-06  0.196E-03    0.00       3.2  T
  32   -581.6556633 -0.195098E-05  0.693E-04    0.00       9.0  T
  33   -581.6556636 -0.292724E-06  0.918E-05    0.00      67.8  T
  34   -581.6556636 -0.328532E-08  0.568E-05    0.00     109.6  T

   *** convergence criteria satisfied after 34 iterations ***

         #    Occupation            Energy/Eh            Energy/eV
      -------------------------------------------------------------
         1        2.0000           -1.0414804             -28.3401
       ...           ...                  ...                  ...
       445        2.0000           -0.3842365             -10.4556
       446        2.0000           -0.3799248             -10.3383
       447        2.0000           -0.3775075             -10.2725
       448        2.0000           -0.3693719             -10.0511
       449        2.0000           -0.3609498              -9.8219
       450        1.0604           -0.3179584              -8.6521
       451        0.7794           -0.3174173              -8.6374 (HOMO)
       452        0.7709           -0.3174003              -8.6369 (LUMO)
       453        0.7057           -0.3172673              -8.6333
       454        0.6825           -0.3172185              -8.6320
       455        0.0011           -0.3106968              -8.4545
       456        0.0000           -0.3020989              -8.2205
       ...           ...                  ...                  ...
      1084                        519.2068671           14128.3380
      -------------------------------------------------------------
                  HL-Gap            0.0000170 Eh            0.0005 eV
             Fermi-level           -0.3178435 Eh           -8.6490 eV

 SCC (total)                   0 d,  0 h,  0 min, 17.220 sec
 SCC setup                      ...        0 min,  0.008 sec (  0.047%)
 Dispersion                     ...        0 min,  0.013 sec (  0.075%)
 classical contributions        ...        0 min,  0.004 sec (  0.023%)
 integral evaluation            ...        0 min,  0.762 sec (  4.427%)
 iterations                     ...        0 min, 14.726 sec ( 85.516%)
 molecular gradient             ...        0 min,  1.619 sec (  9.403%)
 printout                       ...        0 min,  0.088 sec (  0.508%)

         :::::::::::::::::::::::::::::::::::::::::::::::::::::
         ::                     SUMMARY                     ::
         :::::::::::::::::::::::::::::::::::::::::::::::::::::
         :: total energy            -572.139308922289 Eh    ::
         :: gradient norm              0.113677108756 Eh/a0 ::
         :: HOMO-LUMO gap              0.000462784108 eV    ::
         ::.................................................::
         :: SCC energy              -581.655663597811 Eh    ::
         :: -> electrostatic           0.565683081324 Eh    ::
         :: repulsion energy           9.749038546422 Eh    ::
         :: dispersion energy         -0.232683870900 Eh    ::
         :: halogen bond corr.         0.000000000000 Eh    ::
         :: add. restraining           0.000000000000 Eh    ::
         :: total charge              -0.000000000002 e     ::
         :::::::::::::::::::::::::::::::::::::::::::::::::::::

           ------------------------------------------------- 
          |        vertical delta SCC IP calculation        |
           ------------------------------------------------- 
   1   -581.3079784 -0.581308E+03  0.138E-01    0.00       0.0  T
   2   -581.2457906  0.621878E-01  0.364E-01    0.06       1.0  T
   3   -581.1288686  0.116922E+00  0.521E-01    0.15       1.0  T
   4   -581.2180635 -0.891949E-01  0.377E-01    0.01       1.0  T
   5   -581.1958187  0.222448E-01  0.431E-01    0.04       1.0  T
   6   -581.2942269 -0.984082E-01  0.183E-01    0.01       1.0  T
   7   -581.3017436 -0.751678E-02  0.133E-01    0.01       1.0  T
   8   -581.3072151 -0.547144E-02  0.100E-01    0.01       1.0  T
   9   -581.3115256 -0.431057E-02  0.616E-02    0.01       1.0  T
  10   -581.3140441 -0.251843E-02  0.665E-03    0.00       1.0  T
  11   -581.3135818  0.462287E-03  0.274E-02    0.00       1.0  T
  12   -581.3140398 -0.458032E-03  0.667E-03    0.00       1.0  T
  13   -581.3140636 -0.238033E-04  0.257E-03    0.00       2.4  T
  14   -581.3140662 -0.257335E-05  0.158E-03    0.00       4.0  T
  15   -581.3140668 -0.580930E-06  0.145E-03    0.00       4.3  T
  16   -581.3140678 -0.101800E-05  0.645E-04    0.00       9.7  T
  17   -581.3140680 -0.199242E-06  0.340E-04    0.00      18.3  T
  18   -581.3140681 -0.752719E-07  0.915E-05    0.00      68.0  T
  19   -581.3140681 -0.137959E-08  0.719E-05    0.00      86.6  T
     SCC iter.                  ...        0 min,  8.247 sec
     gradient                   ...        0 min,  1.619 sec
------------------------------------------------------------------------
empirical IP shift (eV):    4.8455
delta SCC IP (eV):    4.4498
------------------------------------------------------------------------
           ------------------------------------------------- 
          |        vertical delta SCC EA calculation        |
           ------------------------------------------------- 
   1   -581.9243025 -0.581924E+03  0.289E-01    0.00       0.0  T
   2   -581.7924472  0.131855E+00  0.491E-01    0.03       1.0  T
   3   -581.5624120  0.230035E+00  0.765E-01    0.28       1.0  T
   4   -581.8204451 -0.258033E+00  0.504E-01    0.02       1.0  T
   5   -581.7630502  0.573949E-01  0.495E-01    0.03       1.0  T
   6   -581.8565444 -0.934942E-01  0.345E-01    0.05       1.0  T
   7   -581.8181607  0.383836E-01  0.486E-01    0.06       1.0  T
   8   -581.9039506 -0.857899E-01  0.272E-01    0.03       1.0  T
   9   -581.8897180  0.142326E-01  0.265E-01    0.01       1.0  T
  10   -581.9387372 -0.490192E-01  0.111E-01    0.01       1.0  T
  11   -581.9385454  0.191798E-03  0.118E-01    0.01       1.0  T
  12   -581.9495503 -0.110048E-01  0.236E-02    0.01       1.0  T
  13   -581.9485879  0.962337E-03  0.444E-02    0.01       1.0  T
  14   -581.9497114 -0.112344E-02  0.159E-02    0.00       1.0  T
  15   -581.9497934 -0.819965E-04  0.102E-02    0.00       1.0  T
  16   -581.9498571 -0.637436E-04  0.136E-03    0.01       4.6  T
  17   -581.9498585 -0.134714E-05  0.258E-04    0.01      24.1  T
  18   -581.9498584  0.524899E-07  0.382E-04    0.01      16.3  T
  19   -581.9498583  0.851179E-07  0.519E-04    0.01      12.0  T
  20   -581.9498585 -0.169840E-06  0.341E-05    0.01     182.8  T
  21   -581.9498585 -0.237605E-10  0.314E-05    0.01     198.3  T
     SCC iter.                  ...        0 min,  9.117 sec
     gradient                   ...        0 min,  1.616 sec
------------------------------------------------------------------------
empirical EA shift (eV):    4.8455
delta SCC EA (eV):    3.1599
------------------------------------------------------------------------
           -------------------------------------------------
          |                Property Printout                |
           -------------------------------------------------

    * Orbital Energies and Occupations

         #    Occupation            Energy/Eh            Energy/eV
      -------------------------------------------------------------
         1        2.0000           -1.0081148             -27.4322
       ...           ...                  ...                  ...
       440        2.0000           -0.3481741              -9.4743
       441        2.0000           -0.3464435              -9.4272
       442        2.0000           -0.3442029              -9.3662
       443        2.0000           -0.3441902              -9.3659
       444        2.0000           -0.3388009              -9.2192
       445        2.0000           -0.3384795              -9.2105
       446        2.0000           -0.3384676              -9.2102
       447        2.0000           -0.3346952              -9.1075
       448        2.0000           -0.3249265              -8.8417
       449        2.0000           -0.3156350              -8.5889
       450        1.5521           -0.2721831              -7.4065
       451        0.9269           -0.2708053              -7.3690
       452        0.9182           -0.2707878              -7.3685 (HOMO)
       453        0.8066           -0.2705609              -7.3623 (LUMO)
       454        0.7886           -0.2705236              -7.3613
       455        0.0075           -0.2655553              -7.2261
       456        0.0000           -0.2588483              -7.0436
       457        0.0000           -0.2588218              -7.0429
       458        0.0000           -0.2557647              -6.9597
       459                         -0.2539523              -6.9104
       460                         -0.2539519              -6.9104
       461                         -0.2465385              -6.7087
       462                         -0.2250559              -6.1241
       463                         -0.2236547              -6.0860
       ...                                ...                  ...
      1084                        519.2523472           14129.5756
      -------------------------------------------------------------
                  HL-Gap            0.0002270 Eh            0.0062 eV
             Fermi-level           -0.2709512 Eh           -7.3730 eV

  Mulliken/CM5 charges         n(s)   n(p)   n(d)
     1Cu    0.29621  0.65121   0.538  0.896  9.270
     2C    -0.02796 -0.06923   1.082  2.945  0.000
     3C     0.05783  0.11925   1.117  2.825  0.000
     4C    -0.04020 -0.08635   1.087  2.953  0.000
     5C    -0.03636 -0.08209   1.082  2.954  0.000
     6C     0.05749  0.12256   1.109  2.833  0.000
     7N    -0.21357 -0.46396   1.327  3.886  0.000
     8C     0.00908  0.01441   1.090  2.901  0.000
     9C    -0.00310 -0.01129   1.078  2.925  0.000
    10C    -0.04088 -0.08903   1.063  2.978  0.000
    11C     0.08108  0.09817   1.115  2.804  0.000
    12O    -0.29451 -0.48969   1.629  4.665  0.000
    13C     0.06648  0.08625   1.092  2.842  0.000
    14O    -0.30275 -0.50264   1.623  4.680  0.000
    15C     0.07267  0.08773   1.104  2.823  0.000
    16O    -0.30297 -0.50653   1.624  4.679  0.000
    17C    -0.04725 -0.09670   1.051  2.996  0.000
    18C     0.05597  0.12025   1.107  2.837  0.000
    19C    -0.03834 -0.08405   1.079  2.959  0.000
    20C    -0.03820 -0.08342   1.085  2.953  0.000
    21N    -0.21002 -0.45971   1.330  3.880  0.000
    22C     0.06198  0.12814   1.121  2.817  0.000
    23C     0.01403  0.02084   1.083  2.903  0.000
    24C     0.06232  0.12844   1.122  2.816  0.000
    25C    -0.03748 -0.08271   1.085  2.952  0.000
    26C    -0.03708 -0.08279   1.079  2.958  0.000
    27C     0.05653  0.12082   1.107  2.837  0.000
    28N    -0.20999 -0.45967   1.330  3.880  0.000
    29C     0.00900  0.01433   1.090  2.901  0.000
    30C    -0.00299 -0.01118   1.079  2.924  0.000
    31C    -0.04020 -0.08833   1.063  2.977  0.000
    32C     0.08159  0.09867   1.115  2.803  0.000
    33O    -0.29357 -0.48876   1.629  4.664  0.000
    34C     0.06629  0.08604   1.092  2.842  0.000
    35O    -0.30287 -0.50271   1.623  4.680  0.000
    36C     0.07207  0.08711   1.104  2.824  0.000
    37O    -0.30384 -0.50738   1.624  4.680  0.000
    38C    -0.04790 -0.09734   1.051  2.997  0.000
    39C     0.05683  0.12192   1.109  2.834  0.000
    40C    -0.03781 -0.08351   1.082  2.956  0.000
    41C    -0.04096 -0.08709   1.087  2.954  0.000
    42C     0.05749  0.11895   1.117  2.826  0.000
    43N    -0.21373 -0.46405   1.327  3.887  0.000
    44H     0.02144  0.08037   0.979  0.000  0.000
    45H     0.02802  0.08456   0.972  0.000  0.000
    46H     0.02408  0.08297   0.976  0.000  0.000
    47H     0.02976  0.09053   0.970  0.000  0.000
    48H     0.23234  0.41179   0.768  0.000  0.000
    49H     0.23751  0.41688   0.762  0.000  0.000
    50H     0.23181  0.40432   0.768  0.000  0.000
    51H     0.02988  0.09003   0.970  0.000  0.000
    52H     0.02366  0.08258   0.976  0.000  0.000
    53H     0.02535  0.08341   0.975  0.000  0.000
    54H     0.02581  0.08385   0.974  0.000  0.000
    55H     0.02476  0.08370   0.975  0.000  0.000
    56H     0.03093  0.09166   0.969  0.000  0.000
    57H     0.23257  0.41203   0.767  0.000  0.000
    58H     0.23694  0.41629   0.763  0.000  0.000
    59H     0.23071  0.40321   0.769  0.000  0.000
    60H     0.02883  0.08896   0.971  0.000  0.000
    61H     0.02278  0.08162   0.977  0.000  0.000
    62H     0.02762  0.08415   0.972  0.000  0.000
    63Cu    0.29874  0.65435   0.539  0.897  9.265
    64C    -0.02795 -0.06923   1.082  2.946  0.000
    65C     0.05785  0.11926   1.117  2.825  0.000
    66C    -0.04018 -0.08633   1.087  2.953  0.000
    67C    -0.03634 -0.08207   1.082  2.954  0.000
    68C     0.05747  0.12250   1.109  2.833  0.000
    69N    -0.21342 -0.46389   1.327  3.886  0.000
    70C     0.00909  0.01441   1.090  2.901  0.000
    71C    -0.00304 -0.01123   1.078  2.925  0.000
    72C    -0.04078 -0.08893   1.063  2.978  0.000
    73C     0.08118  0.09826   1.115  2.804  0.000
    74O    -0.29440 -0.48959   1.629  4.665  0.000
    75C     0.06647  0.08623   1.092  2.842  0.000
    76O    -0.30281 -0.50269   1.623  4.680  0.000
    77C     0.07263  0.08767   1.104  2.823  0.000
    78O    -0.30312 -0.50668   1.624  4.680  0.000
    79C    -0.04726 -0.09670   1.051  2.996  0.000
    80C     0.05600  0.12026   1.107  2.837  0.000
    81C    -0.03818 -0.08388   1.079  2.959  0.000
    82C    -0.03796 -0.08319   1.085  2.953  0.000
    83N    -0.20985 -0.45962   1.330  3.880  0.000
    84C     0.06207  0.12819   1.121  2.817  0.000
    85C     0.01413  0.02093   1.083  2.903  0.000
    86C     0.06241  0.12854   1.122  2.816  0.000
    87C    -0.03735 -0.08259   1.085  2.952  0.000
    88C    -0.03683 -0.08253   1.079  2.957  0.000
    89C     0.05660  0.12085   1.107  2.837  0.000
    90N    -0.20972 -0.45956   1.330  3.880  0.000
    91C     0.00920  0.01452   1.090  2.901  0.000
    92C    -0.00308 -0.01128   1.079  2.925  0.000
    93C    -0.04028 -0.08840   1.063  2.977  0.000
    94C     0.08173  0.09883   1.115  2.803  0.000
    95O    -0.29336 -0.48856   1.629  4.664  0.000
    96C     0.06654  0.08631   1.092  2.842  0.000
    97O    -0.30251 -0.50235   1.622  4.680  0.000
    98C     0.07218  0.08722   1.104  2.824  0.000
    99O    -0.30367 -0.50720   1.624  4.680  0.000
   100C    -0.04794 -0.09737   1.051  2.997  0.000
   101C     0.05688  0.12195   1.109  2.834  0.000
   102C    -0.03765 -0.08333   1.082  2.956  0.000
   103C    -0.04088 -0.08702   1.087  2.954  0.000
   104C     0.05755  0.11899   1.117  2.826  0.000
   105N    -0.21352 -0.46392   1.327  3.886  0.000
   106H     0.02158  0.08051   0.978  0.000  0.000
   107H     0.02808  0.08462   0.972  0.000  0.000
   108H     0.02410  0.08299   0.976  0.000  0.000
   109H     0.02994  0.09070   0.970  0.000  0.000
   110H     0.23236  0.41181   0.768  0.000  0.000
   111H     0.23737  0.41674   0.763  0.000  0.000
   112H     0.23166  0.40417   0.768  0.000  0.000
   113H     0.02982  0.08997   0.970  0.000  0.000
   114H     0.02392  0.08283   0.976  0.000  0.000
   115H     0.02576  0.08383   0.974  0.000  0.000
   116H     0.02605  0.08409   0.974  0.000  0.000
   117H     0.02526  0.08419   0.975  0.000  0.000
   118H     0.03084  0.09156   0.969  0.000  0.000
   119H     0.23288  0.41231   0.767  0.000  0.000
   120H     0.23719  0.41651   0.763  0.000  0.000
   121H     0.23077  0.40328   0.769  0.000  0.000
   122H     0.02889  0.08900   0.971  0.000  0.000
   123H     0.02299  0.08183   0.977  0.000  0.000
   124H     0.02775  0.08428   0.972  0.000  0.000
   125C    -0.02627 -0.02711   1.063  2.964  0.000
   126C    -0.02794 -0.02958   1.087  2.941  0.000
   127C    -0.03067 -0.03150   1.059  2.972  0.000
   128C    -0.02458 -0.02620   1.092  2.933  0.000
   129C    -0.02943 -0.03026   1.060  2.969  0.000
   130C    -0.02715 -0.02878   1.089  2.938  0.000
   131C    -0.02942 -0.03025   1.060  2.969  0.000
   132C    -0.02724 -0.02886   1.089  2.938  0.000
   133C    -0.03040 -0.03123   1.059  2.972  0.000
   134C    -0.02437 -0.02599   1.092  2.932  0.000
   135C    -0.02601 -0.02685   1.063  2.963  0.000
   136C    -0.02778 -0.02943   1.087  2.941  0.000
   137Cu    0.32688  0.67832   0.545  0.907  9.222
   138C     0.00662  0.01346   1.076  2.918  0.000
   139C     0.06171  0.12798   1.122  2.816  0.000
   140C    -0.04101 -0.08623   1.083  2.958  0.000
   141C    -0.03859 -0.08430   1.080  2.958  0.000
   142C     0.05236  0.11665   1.103  2.844  0.000
   143N    -0.20906 -0.45822   1.329  3.880  0.000
   144C     0.01033  0.01557   1.091  2.898  0.000
   145C    -0.00425 -0.01254   1.076  2.928  0.000
   146C    -0.04636 -0.09574   1.051  2.995  0.000
   147C     0.08133  0.09861   1.112  2.806  0.000
   148O    -0.29458 -0.49149   1.624  4.670  0.000
   149C     0.07644  0.09864   1.101  2.822  0.000
   150O    -0.29535 -0.48792   1.626  4.669  0.000
   151C     0.07174  0.08675   1.105  2.823  0.000
   152O    -0.30246 -0.50742   1.622  4.681  0.000
   153C    -0.04696 -0.09642   1.052  2.995  0.000
   154C     0.05256  0.11683   1.103  2.844  0.000
   155C    -0.03845 -0.08418   1.080  2.958  0.000
   156C    -0.04018 -0.08541   1.084  2.956  0.000
   157N    -0.20853 -0.45755   1.329  3.879  0.000
   158C     0.06178  0.12811   1.122  2.816  0.000
   159C     0.00852  0.01536   1.077  2.914  0.000
   160C     0.06215  0.12842   1.122  2.816  0.000
   161C    -0.03935 -0.08459   1.084  2.956  0.000
   162C    -0.03689 -0.08261   1.080  2.957  0.000
   163C     0.05403  0.11835   1.103  2.843  0.000
   164N    -0.20791 -0.45721   1.329  3.879  0.000
   165C     0.01190  0.01718   1.091  2.897  0.000
   166C     0.00201 -0.00613   1.084  2.914  0.000
   167C    -0.03953 -0.08765   1.063  2.977  0.000
   168C     0.08419  0.10121   1.119  2.797  0.000
   169O    -0.29386 -0.48905   1.632  4.662  0.000
   170C     0.05417  0.07190   1.080  2.865  0.000
   171O    -0.31628 -0.52189   1.613  4.703  0.000
   172C     0.07785  0.09366   1.112  2.810  0.000
   173O    -0.29999 -0.49874   1.627  4.673  0.000
   174C    -0.03984 -0.08800   1.064  2.976  0.000
   175C     0.05380  0.11815   1.103  2.844  0.000
   176C    -0.03711 -0.08280   1.080  2.957  0.000
   177C    -0.04012 -0.08535   1.083  2.957  0.000
   178C     0.06213  0.12839   1.122  2.816  0.000
   179N    -0.20860 -0.45774   1.328  3.880  0.000
   180H     0.02301  0.08105   0.977  0.000  0.000
   181H     0.02262  0.08154   0.977  0.000  0.000
   182H     0.02987  0.09040   0.970  0.000  0.000
   183H     0.22919  0.40192   0.771  0.000  0.000
   184H     0.23408  0.41488   0.766  0.000  0.000
   185H     0.23157  0.40421   0.768  0.000  0.000
   186H     0.02892  0.08912   0.971  0.000  0.000
   187H     0.02359  0.08251   0.976  0.000  0.000
   188H     0.02409  0.08212   0.976  0.000  0.000
   189H     0.02427  0.08230   0.976  0.000  0.000
   190H     0.02361  0.08253   0.976  0.000  0.000
   191H     0.03136  0.09214   0.969  0.000  0.000
   192H     0.22975  0.40920   0.770  0.000  0.000
   193H     0.23553  0.41040   0.764  0.000  0.000
   194H     0.22767  0.40487   0.772  0.000  0.000
   195H     0.03040  0.09124   0.970  0.000  0.000
   196H     0.02259  0.08151   0.977  0.000  0.000
   197H     0.02333  0.08135   0.977  0.000  0.000
   198Cu    0.32892  0.68087   0.545  0.907  9.219
   199C     0.00848  0.01532   1.077  2.914  0.000
   200C     0.06162  0.12786   1.122  2.817  0.000
   201C    -0.04027 -0.08550   1.084  2.957  0.000
   202C    -0.03851 -0.08424   1.080  2.958  0.000
   203C     0.05255  0.11682   1.103  2.844  0.000
   204N    -0.20828 -0.45761   1.329  3.879  0.000
   205C     0.01044  0.01568   1.091  2.898  0.000
   206C    -0.00429 -0.01258   1.076  2.929  0.000
   207C    -0.04641 -0.09580   1.051  2.995  0.000
   208C     0.08131  0.09860   1.112  2.806  0.000
   209O    -0.29465 -0.49158   1.624  4.670  0.000
   210C     0.07664  0.09885   1.101  2.822  0.000
   211O    -0.29516 -0.48772   1.626  4.669  0.000
   212C     0.07198  0.08699   1.105  2.823  0.000
   213O    -0.30214 -0.50710   1.622  4.680  0.000
   214C    -0.04680 -0.09627   1.052  2.995  0.000
   215C     0.05253  0.11678   1.103  2.844  0.000
   216C    -0.03813 -0.08388   1.081  2.958  0.000
   217C    -0.04060 -0.08583   1.083  2.957  0.000
   218N    -0.20896 -0.45800   1.329  3.880  0.000
   219C     0.06188  0.12813   1.122  2.816  0.000
   220C     0.00677  0.01361   1.076  2.918  0.000
   221C     0.06223  0.12845   1.122  2.816  0.000
   222C    -0.03999 -0.08522   1.083  2.957  0.000
   223C    -0.03676 -0.08247   1.080  2.957  0.000
   224C     0.05392  0.11823   1.103  2.844  0.000
   225N    -0.20828 -0.45774   1.328  3.880  0.000
   226C     0.01191  0.01719   1.091  2.897  0.000
   227C     0.00226 -0.00589   1.084  2.914  0.000
   228C    -0.03968 -0.08779   1.063  2.977  0.000
   229C     0.08437  0.10139   1.120  2.796  0.000
   230O    -0.29378 -0.48896   1.632  4.662  0.000
   231C     0.05350  0.07118   1.080  2.866  0.000
   232O    -0.31742 -0.52315   1.613  4.705  0.000
   233C     0.07845  0.09433   1.113  2.808  0.000
   234O    -0.29930 -0.49783   1.628  4.672  0.000
   235C    -0.03994 -0.08808   1.064  2.976  0.000
   236C     0.05390  0.11821   1.103  2.843  0.000
   237C    -0.03717 -0.08286   1.080  2.957  0.000
   238C    -0.03942 -0.08465   1.084  2.956  0.000
   239C     0.06215  0.12845   1.122  2.816  0.000
   240N    -0.20794 -0.45708   1.329  3.879  0.000
   241H     0.02407  0.08210   0.976  0.000  0.000
   242H     0.02321  0.08215   0.977  0.000  0.000
   243H     0.02965  0.09019   0.970  0.000  0.000
   244H     0.22897  0.40171   0.771  0.000  0.000
   245H     0.23434  0.41512   0.766  0.000  0.000
   246H     0.23189  0.40453   0.768  0.000  0.000
   247H     0.02917  0.08940   0.971  0.000  0.000
   248H     0.02362  0.08255   0.976  0.000  0.000
   249H     0.02364  0.08167   0.976  0.000  0.000
   250H     0.02340  0.08144   0.977  0.000  0.000
   251H     0.02342  0.08232   0.977  0.000  0.000
   252H     0.03130  0.09206   0.969  0.000  0.000
   253H     0.22972  0.40909   0.770  0.000  0.000
   254H     0.23571  0.41041   0.764  0.000  0.000
   255H     0.22768  0.40502   0.772  0.000  0.000
   256H     0.03049  0.09130   0.970  0.000  0.000
   257H     0.02296  0.08184   0.977  0.000  0.000
   258H     0.02429  0.08232   0.976  0.000  0.000

Wiberg/Mayer (AO) data.
largest (>0.10) Wiberg bond orders for each atom

 ---------------------------------------------------------------------------
     #   Z sym  total        # sym  WBO       # sym  WBO       # sym  WBO
 ---------------------------------------------------------------------------
     1  29 Cu   2.673 --     7 N    0.609    43 N    0.608    28 N    0.606
                            21 N    0.605
     2   6 C    3.794 --     3 C    1.385    42 C    1.384    44 H    0.998
     3   6 C    3.947 --     2 C    1.385     7 N    1.272     4 C    1.198
     4   6 C    3.838 --     5 C    1.643     3 C    1.198    45 H    0.994
     5   6 C    3.825 --     4 C    1.643     6 C    1.206    46 H    1.001
     6   6 C    3.915 --     8 C    1.369     7 N    1.263     5 C    1.206
     7   7 N    2.957 --     3 C    1.272     6 C    1.263     1 Cu   0.609
     8   6 C    3.827 --     6 C    1.369    18 C    1.360     9 C    1.048
     9   6 C    3.892 --    10 C    1.415    17 C    1.407     8 C    1.048
    10   6 C    3.847 --     9 C    1.415    11 C    1.393    47 H    0.994
    11   6 C    3.978 --    10 C    1.393    13 C    1.359    12 O    1.123
    12   8 O    2.158 --    11 C    1.123    48 H    0.964
    13   6 C    3.912 --    15 C    1.369    11 C    1.359    14 O    1.089
    14   8 O    2.100 --    13 C    1.089    49 H    0.962
    15   6 C    3.939 --    17 C    1.400    13 C    1.369    16 O    1.093
    16   8 O    2.112 --    15 C    1.093    50 H    0.963
    17   6 C    3.818 --     9 C    1.407    15 C    1.400    51 H    0.992
    18   6 C    3.902 --     8 C    1.360    21 N    1.256    19 C    1.220
    19   6 C    3.814 --    20 C    1.618    18 C    1.220    52 H    1.000
    20   6 C    3.825 --    19 C    1.618    22 C    1.229    53 H    1.000
    21   7 N    2.973 --    22 C    1.299    18 C    1.256     1 Cu   0.605
    22   6 C    3.919 --    21 N    1.299    23 C    1.286    20 C    1.229
    23   6 C    3.814 --    24 C    1.288    22 C    1.286   126 C    1.232
    24   6 C    3.920 --    28 N    1.298    23 C    1.288    25 C    1.228
    25   6 C    3.827 --    26 C    1.620    24 C    1.228    54 H    1.000
    26   6 C    3.814 --    25 C    1.620    27 C    1.219    55 H    1.000
    27   6 C    3.902 --    29 C    1.362    28 N    1.256    26 C    1.219
    28   7 N    2.973 --    24 C    1.298    27 C    1.256     1 Cu   0.606
    29   6 C    3.827 --    39 C    1.368    27 C    1.362    30 C    1.047
    30   6 C    3.893 --    31 C    1.416    38 C    1.408    29 C    1.047
    31   6 C    3.848 --    30 C    1.416    32 C    1.392    56 H    0.993
    32   6 C    3.978 --    31 C    1.392    34 C    1.358    33 O    1.124
    33   8 O    2.159 --    32 C    1.124    57 H    0.964
    34   6 C    3.912 --    36 C    1.370    32 C    1.358    35 O    1.088
    35   8 O    2.100 --    34 C    1.088    58 H    0.962
    36   6 C    3.938 --    38 C    1.400    34 C    1.370    37 O    1.092
    37   8 O    2.111 --    36 C    1.092    59 H    0.963
    38   6 C    3.818 --    30 C    1.408    36 C    1.400    60 H    0.992
    39   6 C    3.915 --    29 C    1.368    43 N    1.264    40 C    1.207
    40   6 C    3.826 --    41 C    1.641    39 C    1.207    61 H    1.001
    41   6 C    3.837 --    40 C    1.641    42 C    1.199    62 H    0.994
    42   6 C    3.947 --     2 C    1.384    43 N    1.273    41 C    1.199
    43   7 N    2.956 --    42 C    1.273    39 C    1.264     1 Cu   0.608
    44   1 H    1.035 --     2 C    0.998
    45   1 H    1.024 --     4 C    0.994
    46   1 H    1.032 --     5 C    1.001
    47   1 H    1.038 --    10 C    0.994
    48   1 H    0.997 --    12 O    0.964
    49   1 H    0.992 --    14 O    0.962
    50   1 H    0.997 --    16 O    0.963
    51   1 H    1.027 --    17 C    0.992
    52   1 H    1.031 --    19 C    1.000
    53   1 H    1.033 --    20 C    1.000
    54   1 H    1.033 --    25 C    1.000
    55   1 H    1.031 --    26 C    1.000
    56   1 H    1.039 --    31 C    0.993
    57   1 H    0.997 --    33 O    0.964
    58   1 H    0.992 --    35 O    0.962
    59   1 H    0.998 --    37 O    0.963
    60   1 H    1.027 --    38 C    0.992
    61   1 H    1.031 --    40 C    1.001
    62   1 H    1.023 --    41 C    0.994
    63  29 Cu   2.680 --    69 N    0.611   105 N    0.610    90 N    0.607
                            83 N    0.607
    64   6 C    3.794 --    65 C    1.385   104 C    1.384   106 H    0.998
    65   6 C    3.947 --    64 C    1.385    69 N    1.272    66 C    1.198
    66   6 C    3.838 --    67 C    1.643    65 C    1.198   107 H    0.994
    67   6 C    3.825 --    66 C    1.643    68 C    1.207   108 H    1.001
    68   6 C    3.915 --    70 C    1.369    69 N    1.263    67 C    1.207
    69   7 N    2.957 --    65 C    1.272    68 C    1.263    63 Cu   0.611
    70   6 C    3.827 --    68 C    1.369    80 C    1.360    71 C    1.048
    71   6 C    3.892 --    72 C    1.415    79 C    1.407    70 C    1.048
    72   6 C    3.847 --    71 C    1.415    73 C    1.392   109 H    0.994
    73   6 C    3.978 --    72 C    1.392    75 C    1.359    74 O    1.124
    74   8 O    2.158 --    73 C    1.124   110 H    0.964
    75   6 C    3.912 --    77 C    1.369    73 C    1.359    76 O    1.089
    76   8 O    2.100 --    75 C    1.089   111 H    0.962
    77   6 C    3.939 --    79 C    1.400    75 C    1.369    78 O    1.093
    78   8 O    2.112 --    77 C    1.093   112 H    0.963
    79   6 C    3.819 --    71 C    1.407    77 C    1.400   113 H    0.992
    80   6 C    3.902 --    70 C    1.360    83 N    1.256    81 C    1.220
    81   6 C    3.814 --    82 C    1.618    80 C    1.220   114 H    1.000
    82   6 C    3.825 --    81 C    1.618    84 C    1.229   115 H    1.000
    83   7 N    2.974 --    84 C    1.298    80 C    1.256    63 Cu   0.607
    84   6 C    3.919 --    83 N    1.298    85 C    1.286    82 C    1.229
    85   6 C    3.814 --    86 C    1.288    84 C    1.286   136 C    1.232
    86   6 C    3.920 --    90 N    1.298    85 C    1.288    87 C    1.228
    87   6 C    3.827 --    88 C    1.620    86 C    1.228   116 H    0.999
    88   6 C    3.814 --    87 C    1.620    89 C    1.219   117 H    1.000
    89   6 C    3.902 --    91 C    1.362    90 N    1.255    88 C    1.219
    90   7 N    2.974 --    86 C    1.298    89 C    1.255    63 Cu   0.607
    91   6 C    3.828 --   101 C    1.368    89 C    1.362    92 C    1.047
    92   6 C    3.892 --    93 C    1.416   100 C    1.408    91 C    1.047
    93   6 C    3.848 --    92 C    1.416    94 C    1.392   118 H    0.993
    94   6 C    3.978 --    93 C    1.392    96 C    1.358    95 O    1.125
    95   8 O    2.159 --    94 C    1.125   119 H    0.964
    96   6 C    3.913 --    98 C    1.370    94 C    1.358    97 O    1.089
    97   8 O    2.101 --    96 C    1.089   120 H    0.962
    98   6 C    3.938 --   100 C    1.400    96 C    1.370    99 O    1.092
    99   8 O    2.111 --    98 C    1.092   121 H    0.963
   100   6 C    3.818 --    92 C    1.408    98 C    1.400   122 H    0.992
   101   6 C    3.915 --    91 C    1.368   105 N    1.263   102 C    1.207
   102   6 C    3.826 --   103 C    1.641   101 C    1.207   123 H    1.001
   103   6 C    3.837 --   102 C    1.641   104 C    1.199   124 H    0.994
   104   6 C    3.947 --    64 C    1.384   105 N    1.272   103 C    1.199
   105   7 N    2.957 --   104 C    1.272   101 C    1.263    63 Cu   0.610
   106   1 H    1.035 --    64 C    0.998
   107   1 H    1.024 --    66 C    0.994
   108   1 H    1.032 --    67 C    1.001
   109   1 H    1.038 --    72 C    0.994
   110   1 H    0.997 --    74 O    0.964
   111   1 H    0.992 --    76 O    0.962
   112   1 H    0.997 --    78 O    0.963
   113   1 H    1.027 --    79 C    0.992
   114   1 H    1.030 --    81 C    1.000
   115   1 H    1.033 --    82 C    1.000
   116   1 H    1.033 --    87 C    0.999
   117   1 H    1.031 --    88 C    1.000
   118   1 H    1.039 --    93 C    0.993
   119   1 H    0.996 --    95 O    0.964
   120   1 H    0.992 --    97 O    0.962
   121   1 H    0.998 --    99 O    0.963
   122   1 H    1.027 --   100 C    0.992
   123   1 H    1.031 --   102 C    1.001
   124   1 H    1.023 --   103 C    0.994
   125   6 C    3.803 --   126 C    2.486   127 C    1.339
   126   6 C    3.797 --   125 C    2.486    23 C    1.232   128 C    0.176
   127   6 C    3.800 --   128 C    2.483   125 C    1.339
   128   6 C    3.799 --   127 C    2.483   138 C    1.235   126 C    0.176
   129   6 C    3.800 --   130 C    2.474   131 C    1.346
   130   6 C    3.798 --   129 C    2.474   159 C    1.242   132 C    0.174
   131   6 C    3.800 --   132 C    2.474   129 C    1.346
   132   6 C    3.798 --   131 C    2.474   199 C    1.242   130 C    0.174
   133   6 C    3.800 --   134 C    2.483   135 C    1.338
   134   6 C    3.799 --   133 C    2.483   220 C    1.235   136 C    0.176
   135   6 C    3.804 --   136 C    2.486   133 C    1.338
   136   6 C    3.797 --   135 C    2.486    85 C    1.232   134 C    0.176
   137  29 Cu   2.748 --   164 N    0.625   179 N    0.625   143 N    0.625
                           157 N    0.624
   138   6 C    3.794 --   178 C    1.281   139 C    1.279   128 C    1.235
   139   6 C    3.921 --   143 N    1.300   138 C    1.279   140 C    1.232
   140   6 C    3.820 --   141 C    1.613   139 C    1.232   180 H    1.000
   141   6 C    3.817 --   140 C    1.613   142 C    1.224   181 H    1.000
   142   6 C    3.900 --   144 C    1.365   143 N    1.244   141 C    1.224
   143   7 N    2.971 --   139 C    1.300   142 C    1.244   137 Cu   0.625
   144   6 C    3.825 --   142 C    1.365   154 C    1.363   145 C    1.052
   145   6 C    3.888 --   146 C    1.413   153 C    1.404   144 C    1.052
   146   6 C    3.816 --   145 C    1.413   147 C    1.394   182 H    0.993
   147   6 C    3.969 --   146 C    1.394   149 C    1.355   148 O    1.116
   148   8 O    2.147 --   147 C    1.116   183 H    0.965
   149   6 C    3.946 --   151 C    1.359   147 C    1.355   150 O    1.114
   150   8 O    2.144 --   149 C    1.114   184 H    0.962
   151   6 C    3.937 --   153 C    1.408   149 C    1.359   152 O    1.089
   152   8 O    2.105 --   151 C    1.089   185 H    0.962
   153   6 C    3.819 --   151 C    1.408   145 C    1.404   186 H    0.993
   154   6 C    3.900 --   144 C    1.363   157 N    1.244   155 C    1.225
   155   6 C    3.816 --   156 C    1.611   154 C    1.225   187 H    1.000
   156   6 C    3.821 --   155 C    1.611   158 C    1.233   188 H    1.000
   157   7 N    2.973 --   158 C    1.301   154 C    1.244   137 Cu   0.624
   158   6 C    3.920 --   157 N    1.301   159 C    1.277   156 C    1.233
   159   6 C    3.793 --   160 C    1.279   158 C    1.277   130 C    1.242
   160   6 C    3.920 --   164 N    1.300   159 C    1.279   161 C    1.232
   161   6 C    3.821 --   162 C    1.613   160 C    1.232   189 H    1.000
   162   6 C    3.815 --   161 C    1.613   163 C    1.224   190 H    1.000
   163   6 C    3.900 --   165 C    1.363   164 N    1.245   162 C    1.224
   164   7 N    2.972 --   160 C    1.300   163 C    1.245   137 Cu   0.625
   165   6 C    3.823 --   175 C    1.367   163 C    1.363   166 C    1.049
   166   6 C    3.900 --   174 C    1.416   167 C    1.414   165 C    1.049
   167   6 C    3.847 --   166 C    1.414   168 C    1.390   191 H    0.993
   168   6 C    3.981 --   167 C    1.390   170 C    1.365   169 O    1.131
   169   8 O    2.172 --   168 C    1.131   192 H    0.963
   170   6 C    3.871 --   172 C    1.379   168 C    1.365   171 O    1.049
   171   8 O    2.032 --   170 C    1.049   193 H    0.961
   172   6 C    3.958 --   174 C    1.391   170 C    1.379   173 O    1.111
   173   8 O    2.138 --   172 C    1.111   194 H    0.967
   174   6 C    3.848 --   166 C    1.416   172 C    1.391   195 H    0.993
   175   6 C    3.900 --   165 C    1.367   179 N    1.243   176 C    1.222
   176   6 C    3.816 --   177 C    1.615   175 C    1.222   196 H    1.000
   177   6 C    3.821 --   176 C    1.615   178 C    1.230   197 H    1.000
   178   6 C    3.921 --   179 N    1.299   138 C    1.281   177 C    1.230
   179   7 N    2.971 --   178 C    1.299   175 C    1.243   137 Cu   0.625
   180   1 H    1.033 --   140 C    1.000
   181   1 H    1.031 --   141 C    1.000
   182   1 H    1.026 --   146 C    0.993
   183   1 H    1.003 --   148 O    0.965
   184   1 H    0.998 --   150 O    0.962
   185   1 H    0.998 --   152 O    0.962
   186   1 H    1.028 --   153 C    0.993
   187   1 H    1.030 --   155 C    1.000
   188   1 H    1.033 --   156 C    1.000
   189   1 H    1.034 --   161 C    1.000
   190   1 H    1.032 --   162 C    1.000
   191   1 H    1.038 --   167 C    0.993
   192   1 H    1.000 --   169 O    0.963
   193   1 H    0.984 --   171 O    0.961
   194   1 H    0.997 --   173 O    0.967
   195   1 H    1.039 --   174 C    0.993
   196   1 H    1.034 --   176 C    1.000
   197   1 H    1.034 --   177 C    1.000
   198  29 Cu   2.754 --   225 N    0.627   204 N    0.626   240 N    0.626
                           218 N    0.626
   199   6 C    3.793 --   239 C    1.278   200 C    1.277   132 C    1.242
   200   6 C    3.920 --   204 N    1.299   199 C    1.277   201 C    1.234
   201   6 C    3.821 --   202 C    1.610   200 C    1.234   241 H    1.000
   202   6 C    3.816 --   201 C    1.610   203 C    1.226   242 H    1.000
   203   6 C    3.899 --   205 C    1.361   204 N    1.245   202 C    1.226
   204   7 N    2.974 --   200 C    1.299   203 C    1.245   198 Cu   0.626
   205   6 C    3.825 --   215 C    1.366   203 C    1.361   206 C    1.052
   206   6 C    3.888 --   207 C    1.413   214 C    1.404   205 C    1.052
   207   6 C    3.816 --   206 C    1.413   208 C    1.394   243 H    0.994
   208   6 C    3.969 --   207 C    1.394   210 C    1.355   209 O    1.116
   209   8 O    2.147 --   208 C    1.116   244 H    0.965
   210   6 C    3.946 --   212 C    1.358   208 C    1.355   211 O    1.115
   211   8 O    2.144 --   210 C    1.115   245 H    0.962
   212   6 C    3.937 --   214 C    1.408   210 C    1.358   213 O    1.089
   213   8 O    2.106 --   212 C    1.089   246 H    0.962
   214   6 C    3.819 --   212 C    1.408   206 C    1.404   247 H    0.993
   215   6 C    3.900 --   205 C    1.366   218 N    1.243   216 C    1.224
   216   6 C    3.818 --   217 C    1.613   215 C    1.224   248 H    1.000
   217   6 C    3.820 --   216 C    1.613   219 C    1.232   249 H    1.000
   218   7 N    2.971 --   219 C    1.300   215 C    1.243   198 Cu   0.626
   219   6 C    3.921 --   218 N    1.300   220 C    1.280   217 C    1.232
   220   6 C    3.794 --   221 C    1.281   219 C    1.280   134 C    1.235
   221   6 C    3.921 --   225 N    1.299   220 C    1.281   222 C    1.230
   222   6 C    3.821 --   223 C    1.615   221 C    1.230   250 H    1.000
   223   6 C    3.816 --   222 C    1.615   224 C    1.223   251 H    1.000
   224   6 C    3.901 --   226 C    1.367   225 N    1.243   223 C    1.223
   225   7 N    2.971 --   221 C    1.299   224 C    1.243   198 Cu   0.627
   226   6 C    3.823 --   224 C    1.367   236 C    1.364   227 C    1.048
   227   6 C    3.900 --   235 C    1.416   228 C    1.415   226 C    1.048
   228   6 C    3.846 --   227 C    1.415   229 C    1.389   252 H    0.993
   229   6 C    3.981 --   228 C    1.389   231 C    1.366   230 O    1.132
   230   8 O    2.172 --   229 C    1.132   253 H    0.963
   231   6 C    3.870 --   233 C    1.379   229 C    1.366   232 O    1.047
   232   8 O    2.027 --   231 C    1.047   254 H    0.960
   233   6 C    3.960 --   235 C    1.390   231 C    1.379   234 O    1.113
   234   8 O    2.142 --   233 C    1.113   255 H    0.967
   235   6 C    3.848 --   227 C    1.416   233 C    1.390   256 H    0.993
   236   6 C    3.900 --   226 C    1.364   240 N    1.244   237 C    1.224
   237   6 C    3.815 --   238 C    1.613   236 C    1.224   257 H    1.000
   238   6 C    3.821 --   237 C    1.613   239 C    1.232   258 H    1.000
   239   6 C    3.920 --   240 N    1.300   199 C    1.278   238 C    1.232
   240   7 N    2.973 --   239 C    1.300   236 C    1.244   198 Cu   0.626
   241   1 H    1.033 --   201 C    1.000
   242   1 H    1.030 --   202 C    1.000
   243   1 H    1.026 --   207 C    0.994
   244   1 H    1.004 --   209 O    0.965
   245   1 H    0.998 --   211 O    0.962
   246   1 H    0.998 --   213 O    0.962
   247   1 H    1.028 --   214 C    0.993
   248   1 H    1.030 --   216 C    1.000
   249   1 H    1.033 --   217 C    1.000
   250   1 H    1.034 --   222 C    1.000
   251   1 H    1.032 --   223 C    1.000
   252   1 H    1.038 --   228 C    0.993
   253   1 H    1.000 --   230 O    0.963
   254   1 H    0.984 --   232 O    0.960
   255   1 H    0.997 --   234 O    0.967
   256   1 H    1.039 --   235 C    0.993
   257   1 H    1.033 --   237 C    1.000
   258   1 H    1.034 --   238 C    1.000
 ---------------------------------------------------------------------------

Topologies differ in total number of bonds
Writing topology from bond orders to xtbtopo.mol

 dipole moment from electron density (au)
     X       Y       Z   
-133.5945  -3.8939  -0.8842  total (Debye):  339.715


           -------------------------------------------------
          | TOTAL ENERGY             -572.433503817571 Eh   |
          | GRADIENT NORM               0.122165588395 Eh/α |
          | HOMO-LUMO GAP               0.006175642010 eV   |
           -------------------------------------------------
########################################################################
[WARNING] Runtime exception occurred
-1- restart_readRestart: Dimension missmatch in restart file.
########################################################################

------------------------------------------------------------------------
 * finished run on 2022/07/30 at 09:38:55.309     
------------------------------------------------------------------------
 total:
 * wall-time:     0 d,  0 h,  0 min, 40.267 sec
 *  cpu-time:     0 d,  0 h,  0 min, 40.079 sec
 * ratio c/w:     0.995 speedup
 SCF:
 * wall-time:     0 d,  0 h,  0 min, 39.567 sec
 *  cpu-time:     0 d,  0 h,  0 min, 39.385 sec
 * ratio c/w:     0.995 speedup

