258
 energy: -516.268595533952 gnorm: 1.825103961009 xtb: 6.5.1 (b24c23e)
Cu          49.30782799999999       -0.06046900000000       -0.03289000000000
C           45.97468900000000        0.09054300000000        0.07351900000000
C           46.64150100000000        1.24748900000000        0.05212000000000
C           45.99313000000000        2.55310700000000        0.05091600000000
C           46.93677000000000        3.47517700000000        0.04295500000000
C           48.24191699999999        2.80012700000000        0.04088600000000
N           48.06193500000000        1.38390200000000        0.04592200000000
C           49.43586699999999        3.42501900000000        0.07080400000000
C           49.47339100000000        4.90372200000000        0.07831900000000
C           49.26405200000000        5.61899700000000       -1.10865600000000
C           49.28570599999999        7.01733600000000       -1.10571800000000
O           49.07142900000000        7.69851400000000       -2.30410600000000
C           49.51877000000000        7.71299500000000        0.09443400000000
O           49.53439900000000        9.10852800000000        0.09036800000000
C           49.73254600000000        6.99698100000000        1.28652600000000
O           49.96539100000000        7.67967900000000        2.47916600000000
C           49.71006899999999        5.59575100000000        1.27313200000000
C           50.73407499999999        2.70091400000000        0.10915900000000
C           52.03334800000000        3.37044000000000        0.24058300000000
C           52.96767400000000        2.44327000000000        0.22592900000000
N           50.86869800000000        1.41313900000000        0.00857400000000
C           52.27456900000000        1.16936800000000        0.07440100000000
C           52.86977799999999       -0.03134000000000       -0.03399600000000
C           52.11681899999999       -1.29687100000000       -0.21414700000000
C           52.68210800000000       -2.45881300000000       -0.51927400000000
C           51.63461200000000       -3.45787300000000       -0.54947200000000
C           50.49292200000000       -2.84370500000000       -0.26341600000000
N           50.70667300000000       -1.44698800000000       -0.03712600000000
C           49.18381200000000       -3.53741900000000       -0.14494700000000
C           49.16499600000000       -5.01620100000000       -0.16355300000000
C           49.31162600000000       -5.73420300000000        1.02985600000000
C           49.29034200000000       -7.13266500000000        1.02099800000000
O           49.43207100000000       -7.81794900000000        2.22773000000000
C           49.12701499999999       -7.82463100000000       -0.19298700000000
O           49.11018399999999       -9.22006500000000       -0.19400300000000
C           48.98511100000000       -7.10485000000000       -1.39353100000000
O           48.82767100000000       -7.78425400000000       -2.60074000000000
C           49.00328300000000       -5.70353800000000       -1.37351700000000
C           48.02113800000000       -2.87224400000000       -0.02285200000000
C           46.69720800000000       -3.48041500000000        0.09586300000000
C           45.83819699999999       -2.48177200000000        0.14759800000000
C           46.60430800000000       -1.23914100000000        0.06760500000000
N           47.87904100000000       -1.45389300000000       -0.03284000000000
H           44.89180499999999        0.12332700000000        0.09814000000000
H           44.92850300000000        2.74886700000000        0.06002900000000
H           46.75308999999999        4.54182700000000        0.04951200000000
H           49.08032000000000        5.08867500000000       -2.03534700000000
H           49.07640300000000        8.70995300000000       -2.35708100000000
H           49.68477200000000        9.64878300000000        0.93337400000000
H           50.12170400000000        7.18735400000000        3.35108800000000
H           49.87279500000000        5.04515200000000        2.19179200000000
H           52.21691400000000        4.43300000000000        0.33049600000000
H           54.03146200000000        2.62644600000000        0.30068400000000
H           53.73176000000000       -2.64372100000000       -0.70124800000000
H           51.76950600000000       -4.51263800000000       -0.75241500000000
H           49.43880100000000       -5.20644800000000        1.96730500000000
H           49.41375400000000       -8.82901600000000        2.27809700000000
H           48.99629100000000       -9.75818300000000       -1.04443000000000
H           48.72783300000000       -7.28995400000000       -3.48015800000000
H           48.89294399999999       -5.15005500000000       -2.29856100000000
H           46.44531600000000       -4.53257400000000        0.13035600000000
H           44.76319900000000       -2.57957500000000        0.23104300000000
Cu          90.85954099999998       -0.00252400000000       -0.02959600000000
C           94.19268000000000       -0.16462400000000        0.05901200000000
C           93.52586800000000       -1.31168800000000       -0.09338500000000
C           94.17423999999998       -2.60875600000000       -0.24256700000000
C           93.23059900000000       -3.52398200000000       -0.35498900000000
C           91.92545200000001       -2.85304800000000       -0.28053000000000
N           92.10543400000000       -1.44652000000000       -0.11500500000000
C           90.73150200000001       -3.47730300000000       -0.32163500000000
C           90.69397800000000       -4.94732900000000       -0.48177300000000
C           90.90331700000000       -5.52345600000000       -1.74217100000000
C           90.88166300000000       -6.91311700000000       -1.89774700000000
O           91.09594000000000       -7.45407300000000       -3.16562100000000
C           90.64859899999999       -7.74032400000000       -0.78418000000000
O           90.63297099999998       -9.12640300000000       -0.94639700000000
C           90.43482400000001       -7.16404300000000        0.48138700000000
O           90.20197800000000       -7.97752300000000        1.58896100000000
C           90.45729999999999       -5.77032500000000        0.62690300000000
C           89.43329499999999       -2.76221200000000       -0.20145200000000
C           88.13402100000000       -3.44232000000000       -0.14676300000000
C           87.19969599999999       -2.51946400000000       -0.05623200000000
N           89.29867100000000       -1.47133600000000       -0.15542600000000
C           87.89279999999999       -1.23659700000000       -0.06239300000000
C           87.29759100000000       -0.03134000000000       -0.03399600000000
C           88.05055099999998        1.24645500000000       -0.06954300000000
C           87.48526099999999        2.43549300000000       -0.24100400000000
C           88.53275700000000        3.43153800000000       -0.15776800000000
C           89.67444700000000        2.78890500000000        0.05683200000000
N           89.46069600000000        1.37553900000000        0.12335100000000
C           90.98355699999999        3.46472100000000        0.25316700000000
C           91.00237299999999        4.93608100000000        0.40229400000000
C           90.85574300000000        5.51418900000000        1.66939400000000
C           90.87702800000000        6.90464200000000        1.81910300000000
O           90.73529899999998        7.44873300000000        3.09573200000000
C           91.04035399999998        7.72974900000000        0.69137300000000
O           91.05718499999999        9.11630600000000        0.84852900000000
C           91.18225800000000        7.15068300000000       -0.58301900000000
O           91.33969800000000        7.96254000000000       -1.70544100000000
C           91.16408600000000        5.75613300000000       -0.72196600000000
C           92.14623100000000        2.78999300000000        0.29908000000000
C           93.47016100000000        3.38078900000000        0.48596400000000
C           94.32917200000000        2.38271800000000        0.42417300000000
C           93.56306200000000        1.15716100000000        0.20384900000000
N           92.28832800000001        1.38191500000000        0.12839300000000
H           95.27556400000000       -0.19998800000000        0.07975700000000
H           95.23886700000000       -2.80428700000000       -0.25570100000000
H           93.41427899999998       -4.58450100000000       -0.46937400000000
H           91.08704899999999       -4.89151500000000       -2.60278000000000
H           91.09096599999999       -8.45299000000000       -3.33289700000000
H           90.48259700000000       -9.75872800000000       -0.17005900000000
H           90.04566499999999       -7.58719900000000        2.51106600000000
H           90.29457400000000       -5.32740000000000        1.60205000000000
H           87.95045499999999       -4.50822300000000       -0.17786600000000
H           86.13590800000000       -2.70993300000000       -0.00272100000000
H           86.43560900000000        2.63983600000000       -0.40084600000000
H           88.39786399999998        4.50250900000000       -0.23985000000000
H           90.72856800000000        4.88357900000000        2.54098300000000
H           90.75361500000000        8.44757500000000        3.26037400000000
H           91.17107799999998        9.74734700000000        0.06457600000000
H           91.43953700000000        7.57110400000000       -2.63521800000000
H           91.27442499999998        5.31106700000000       -1.70378400000000
H           93.72205300000000        4.42225800000000        0.63949200000000
H           95.40416999999999        2.47043200000000        0.51816600000000
C           56.14922200000000       -0.01890400000000       -0.03155400000000
C           54.89695200000000       -0.03808400000000       -0.03590300000000
C           57.46289100000000       -0.01966900000000       -0.02962200000000
C           58.96602399999999       -0.03808400000000       -0.03590300000000
C           69.34642200000000       -0.01890400000000       -0.03155400000000
C           68.09415099999998       -0.03808400000000       -0.03590300000000
C           70.66008999999998       -0.01966900000000       -0.02962200000000
C           72.16322400000000       -0.03808400000000       -0.03590300000000
C           82.54362100000000       -0.01890400000000       -0.03155400000000
C           81.29135100000001       -0.03808400000000       -0.03590300000000
C           83.85728999999999       -0.01966900000000       -0.02962200000000
C           85.36042300000000       -0.03808400000000       -0.03590300000000
Cu          63.44532800000000       -0.04927300000000       -0.05864300000000
C           60.03569800000000        0.03560000000000        0.03808400000000
C           60.69216399999999        1.20423700000000        0.15765500000000
C           60.05057500000000        2.50329300000000        0.37008600000000
C           60.98863399999999        3.42970500000000        0.39233600000000
C           62.28744700000000        2.77821300000000        0.19503700000000
N           62.10951500000000        1.36660400000000        0.05361800000000
C           63.47240099999999        3.42243700000000        0.14300100000000
C           63.50212100000000        4.89810000000000        0.24627300000000
C           63.96461700000000        5.51105600000000        1.41970300000000
C           64.00725199999999        6.90821100000000        1.51849300000000
O           64.46019000000000        7.51879000000000        2.68841800000000
C           63.59224700000000        7.69904700000000        0.43765000000000
O           63.64476800000000        9.08844000000000        0.55340900000000
C           63.12986300000000        7.08805400000000       -0.74344500000000
O           62.71840000000000        7.87109000000000       -1.82087700000000
C           63.08575200000000        5.68995300000000       -0.83375800000000
C           64.77346100000000        2.72399800000000       -0.01024100000000
C           66.04684000000000        3.41570900000000       -0.24530500000000
C           67.00061599999999        2.50689000000000       -0.27478500000000
N           64.93958000000001        1.44213700000000        0.09564800000000
C           66.34197000000000        1.22459500000000       -0.06288500000000
C           66.95701699999999        0.03560000000000        0.03808400000000
C           66.20806899999999       -1.22324100000000        0.23647300000000
C           66.74624900000001       -2.35481200000000        0.67284500000000
C           65.71378799999999       -3.37176800000000        0.61372400000000
C           64.61554400000000       -2.79198300000000        0.14302600000000
N           64.83722700000000       -1.40673800000000       -0.11658600000000
C           63.35684699999999       -3.51040600000000       -0.16919200000000
C           63.41877300000000       -4.97528100000000       -0.39212900000000
C           64.15354900000000       -5.48934200000000       -1.46747600000000
C           64.22492200000001       -6.86801100000000       -1.68287300000000
O           64.95616200000001       -7.33816400000000       -2.77435300000000
C           63.56621400000000       -7.75673000000000       -0.81102500000000
O           63.66047300000000       -9.12777900000000       -1.06435800000000
C           62.83403199999999       -7.24026300000000        0.28663500000000
O           62.16229400000000       -8.05755600000000        1.19924000000000
C           62.76994599999999       -5.85633500000000        0.48408200000000
C           62.18053400000000       -2.86193800000000       -0.27279500000000
C           60.89911200000000       -3.46384100000000       -0.62649700000000
C           60.00985299999999       -2.49352300000000       -0.56850700000000
C           60.71192300000000       -1.26427500000000       -0.18354400000000
N           61.98103600000000       -1.47226300000000       -0.01110000000000
H           58.99417400000000        2.70196000000000        0.49499900000000
H           60.80377300000000        4.48564900000000        0.54026400000000
H           64.28986000000000        4.90341500000000        2.25606000000000
H           64.75094799999999        6.97433600000000        3.49662100000000
H           63.35215800000000        9.70342900000000       -0.19978200000000
H           62.35856100000000        7.45686900000000       -2.67320200000000
H           62.73202999999999        5.21998900000000       -1.74513700000000
H           66.19833700000000        4.47993000000000       -0.37092300000000
H           68.05401199999999        2.70489700000000       -0.42440300000000
H           67.77130600000000       -2.50620300000000        0.98547000000000
H           65.83107900000000       -4.41661600000000        0.87064700000000
H           64.66685600000000       -4.81677600000000       -2.14537500000000
H           65.03912000000000       -8.32580100000000       -2.98505300000000
H           63.21041399999999       -9.84127900000000       -0.50725600000000
H           62.15337599999999       -9.06603200000000        1.15655200000000
H           62.21367200000000       -5.46553200000000        1.32827500000000
H           60.69190100000000       -4.49164700000000       -0.89324600000000
H           58.95495099999999       -2.60773000000000       -0.78197000000000
Cu          76.64252800000000       -0.04927300000000       -0.05864300000000
C           73.23289699999998        0.03560000000000        0.03808400000000
C           73.88936400000000        1.20423700000000        0.15765500000000
C           73.24777500000000        2.50329300000000        0.37008600000000
C           74.18583400000000        3.42970500000000        0.39233600000000
C           75.48464599999998        2.77821300000000        0.19503700000000
N           75.30671500000000        1.36660400000000        0.05361800000000
C           76.66960099999999        3.42243700000000        0.14300100000000
C           76.69932100000000        4.89810000000000        0.24627300000000
C           77.16181700000000        5.51105600000000        1.41970300000000
C           77.20445200000000        6.90821100000000        1.51849300000000
O           77.65739000000001        7.51879000000000        2.68841800000000
C           76.78944700000000        7.69904700000000        0.43765000000000
O           76.84196700000000        9.08844000000000        0.55340900000000
C           76.32706200000000        7.08805400000000       -0.74344500000000
O           75.91559999999998        7.87109000000000       -1.82087700000000
C           76.28295100000000        5.68995300000000       -0.83375800000000
C           77.97066000000000        2.72399800000000       -0.01024100000000
C           79.24403900000000        3.41570900000000       -0.24530500000000
C           80.19781500000001        2.50689000000000       -0.27478500000000
N           78.13678000000000        1.44213700000000        0.09564800000000
C           79.53917000000000        1.22459500000000       -0.06288500000000
C           80.15421699999999        0.03560000000000        0.03808400000000
C           79.40526800000001       -1.22324100000000        0.23647300000000
C           79.94344799999999       -2.35481200000000        0.67284500000000
C           78.91098699999999       -3.37176800000000        0.61372400000000
C           77.81274400000000       -2.79198300000000        0.14302600000000
N           78.03442600000000       -1.40673800000000       -0.11658600000000
C           76.55404600000000       -3.51040600000000       -0.16919200000000
C           76.61597300000000       -4.97528100000000       -0.39212900000000
C           77.35074799999998       -5.48934200000000       -1.46747600000000
C           77.42212199999999       -6.86801100000000       -1.68287300000000
O           78.15336200000000       -7.33816400000000       -2.77435300000000
C           76.76341300000000       -7.75673000000000       -0.81102500000000
O           76.85767300000001       -9.12777900000000       -1.06435800000000
C           76.03123200000000       -7.24026300000000        0.28663500000000
O           75.35949300000000       -8.05755600000000        1.19924000000000
C           75.96714499999999       -5.85633500000000        0.48408200000000
C           75.37773300000001       -2.86193800000000       -0.27279500000000
C           74.09631100000000       -3.46384100000000       -0.62649700000000
C           73.20705199999999       -2.49352300000000       -0.56850700000000
C           73.90912299999999       -1.26427500000000       -0.18354400000000
N           75.17823500000000       -1.47226300000000       -0.01110000000000
H           72.19137300000000        2.70196000000000        0.49499900000000
H           74.00097300000000        4.48564900000000        0.54026400000000
H           77.48705899999999        4.90341500000000        2.25606000000000
H           77.94814700000001        6.97433600000000        3.49662100000000
H           76.54935700000000        9.70342900000000       -0.19978200000000
H           75.55576000000001        7.45686900000000       -2.67320200000000
H           75.92922999999999        5.21998900000000       -1.74513700000000
H           79.39553599999999        4.47993000000000       -0.37092300000000
H           81.25121100000000        2.70489700000000       -0.42440300000000
H           80.96850499999999       -2.50620300000000        0.98547000000000
H           79.02827799999999       -4.41661600000000        0.87064700000000
H           77.86405499999999       -4.81677600000000       -2.14537500000000
H           78.23631899999999       -8.32580100000000       -2.98505300000000
H           76.40761400000000       -9.84127900000000       -0.50725600000000
H           75.35057600000000       -9.06603200000000        1.15655200000000
H           75.41087099999999       -5.46553200000000        1.32827500000000
H           73.88910100000000       -4.49164700000000       -0.89324600000000
H           72.15215100000000       -2.60773000000000       -0.78197000000000
258
 energy: -516.919173877652 gnorm: 0.735610600087 xtb: 6.5.1 (b24c23e)
Cu          49.31347237658395       -0.05829896784846       -0.03188880698634
C           45.97542735432476        0.07805053557930        0.07362675756191
C           46.64705083867187        1.24962979853398        0.05189191165398
C           45.99190816804715        2.54861548005674        0.05101704750663
C           46.94316781103977        3.47725031971694        0.04293932143415
C           48.23987301673956        2.79495958498350        0.04049645667876
N           48.04845285269437        1.39660483361522        0.04595577435163
C           49.44710255703267        3.42203424109830        0.07085764781635
C           49.47505026540026        4.90730896692161        0.07768265206159
C           49.26388874113799        5.62315966891530       -1.10770663634685
C           49.28569894421967        7.02540244822554       -1.10581672844154
O           49.07181126297881        7.69882826127738       -2.30183034962611
C           49.52005806204598        7.71847780006631        0.10129982008686
O           49.53426663885767        9.11012387280187        0.08997088089073
C           49.73351495822377        6.99492449118499        1.29155300477516
O           49.96536500387798        7.68035007896860        2.47955650238824
C           49.71030743026935        5.59702596452525        1.27178953943489
C           50.72853122855121        2.71244075942311        0.10940527884924
C           52.02453095591201        3.37733675444525        0.24045877528739
C           52.96853928045807        2.43818223107515        0.22542340742468
N           50.87835184397471        1.40937197761978        0.00943580919181
C           52.28195481376069        1.16778985673571        0.07453894577592
C           52.88858003526898       -0.04097556140726       -0.03613603873206
C           52.11660854340594       -1.28378642807024       -0.20939133319374
C           52.68357589085456       -2.47526265983920       -0.52185755639331
C           51.65058563726379       -3.45920000245942       -0.55136563593452
C           50.48250884922268       -2.83465829460094       -0.25900224356259
N           50.71346823304684       -1.45104761181480       -0.03959909230429
C           49.19400820013878       -3.53119660560551       -0.14512229942438
C           49.16803909318680       -5.01875337659159       -0.16338943787149
C           49.31156588060138       -5.73821535483648        1.02901733136203
C           49.29007747395000       -7.14070196987410        1.02107421847478
O           49.43163383430142       -7.81814421488735        2.22535972887536
C           49.12618638736705       -7.83005872072937       -0.19993643518217
O           49.11013095203307       -9.22165104962357       -0.19361525269689
C           48.98453983559010       -7.10266038944156       -1.39854999900771
O           48.82752140584559       -7.78478171835453       -2.60103164615867
C           49.00351831374074       -5.70439714550052       -1.37218407320530
C           48.01975691610642       -2.87095987935372       -0.02245927868840
C           46.70309381955551       -3.48125606221800        0.09526453078029
C           45.83220463914909       -2.47375210688555        0.14791021662805
C           46.59050791075789       -1.23201494838335        0.06796591908548
N           47.87908546008015       -1.46224693927828       -0.03275736092097
H           44.89215295201477        0.12101792451045        0.09828959626285
H           44.92850054004897        2.74528890598061        0.06000116582483
H           46.75740037029114        4.54216772159564        0.04934771119478
H           49.08057653835942        5.08996373835982       -2.03472223901423
H           49.07794047421367        8.69736818478987       -2.34803584640420
H           49.68359834741922        9.63476632142679        0.92689717426342
H           50.11891415289250        7.18817388168995        3.33598574443166
H           49.87270718772321        5.04554505194830        2.19136402474134
H           52.21326096193946        4.43484891830170        0.33047801539779
H           54.03117814483607        2.62213431850342        0.30040561171295
H           53.73225831184919       -2.64580030880968       -0.70170036787322
H           51.77157588413503       -4.51253359175694       -0.75295359992411
H           49.43877584573913       -5.20777282143569        1.96672405179131
H           49.41297546502837       -8.81643664813570        2.26901082860301
H           48.99732077677097       -9.74412884686652       -1.03783726452229
H           48.72971835024513       -7.29080762172524       -3.46483599177155
H           48.89303925029539       -5.15041556113889       -2.29806471581401
H           46.44951281866170       -4.53228851631257        0.13011084073988
H           44.76190882403406       -2.57645107992423        0.23115653006435
Cu          90.85396675998007       -0.00476353114838       -0.02885524185215
C           94.19191859007046       -0.15226520522143        0.06052945328886
C           93.52033803482969       -1.31381950101855       -0.09384735996927
C           94.17548660640625       -2.60433300090844       -0.24195728782787
C           93.22422999896015       -3.52605528476488       -0.35523544976584
C           91.92757232422400       -2.84779326453616       -0.28031166762009
N           92.11897845170266       -1.45931566534715       -0.11648444336174
C           90.72013925111203       -3.47430333331586       -0.32123663895857
C           90.69230933572121       -4.95081466694946       -0.48281362666086
C           90.90348436854366       -5.52769516201529       -1.74169965477419
C           90.88166858064950       -6.92112071743728       -1.89877379864005
O           91.09556674409301       -7.45464128558488       -3.16337153238169
C           90.64730841260985       -7.74654167992636       -0.77798047067174
O           90.63310494196267       -9.12795644654969       -0.94696844194257
C           90.43385655022922       -7.16256546584692        0.48660382830223
O           90.20200011777256       -7.97824797049830        1.58928585086294
C           90.45706226254630       -5.77143690049655        0.62542634134706
C           89.43887343926906       -2.77371776547446       -0.20252908209542
C           88.14284510534695       -3.44922669349306       -0.14766538687508
C           87.19884495231072       -2.51449860703950       -0.05615968651342
N           89.28855125645940       -1.46748384942434       -0.15409500174343
C           87.88523725749874       -1.23545064755191       -0.06209169342362
C           87.27438680629986       -0.02155745073529       -0.03497707696166
C           88.05031021681302        1.23311248701768       -0.06628376571508
C           87.48373469137736        2.45224511963415       -0.24172371098944
C           88.51677420986491        3.43308149668183       -0.15949820520033
C           89.68480020581076        2.77934056192420        0.06020516895324
N           89.45353461908604        1.37976632008118        0.12133833526213
C           90.97335762457048        3.45854836835339        0.25229089553147
C           90.99932534487314        4.93860358615736        0.40274589785520
C           90.85580209061474        5.51826773622987        1.66902337290248
C           90.87728255853769        6.91264193897327        1.82011190248758
O           90.73576383042989        7.44916856277643        3.09336959158735
C           91.04117519413994        7.73597651752631        0.68508477539144
O           91.05727113148249        9.11776907880976        0.84908369923175
C           91.18282318874331        7.14909646503461       -0.58826876621267
O           91.33986723330518        7.96306017758289       -1.70564594447167
C           91.16385393519629        5.75683137145507       -0.72055386169962
C           92.14764032740590        2.78867540602768        0.29932218368350
C           93.46430593168508        3.38171345219990        0.48546282240099
C           94.33518276537548        2.37475220852519        0.42358727736614
C           93.57683011877342        1.15011390368356        0.20340517442292
N           92.28840988164875        1.39030432781487        0.12944928949534
H           95.27521138737805       -0.19771520372470        0.08016349675700
H           95.23887748042448       -2.80073620113929       -0.25532350799333
H           93.40997184828279       -4.58482727703475       -0.46957605751392
H           91.08679057260429       -4.89286710668591       -2.60230601787949
H           91.08942253115593       -8.44150470341144       -3.32249119118895
H           90.48377309965718       -9.74406115344716       -0.17490548296712
H           90.04845698442358       -7.58629316202444        2.49596642143283
H           90.29466107406057       -5.32774192320586        1.60158210628479
H           87.95409520793784       -4.51006605636806       -0.17809718534435
H           86.13614508224927       -2.70556117152239       -0.00250872437463
H           86.43505455727529        2.64195902438902       -0.40106933466190
H           88.39578978685219        4.50245672347224       -0.24040223958290
H           90.72859226296104        4.88495939992473        2.54055923245623
H           90.75437165174274        8.43611058218835        3.24992124936770
H           91.17002349689339        9.73264837664992        0.06954121834297
H           91.43763873334079        7.57022786619963       -2.61990231674025
H           91.27432945667407        5.31136630737509       -1.70325352679642
H           93.71786102688381        4.42200683400716        0.63921714829347
H           95.40546627162202        2.46732088149373        0.51792482628187