258
 energy: -517.582793469266 gnorm: 0.000740757904 xtb: 6.5.1 (b24c23e)
Cu          49.88959475131276        0.00530827400031       -0.06977702943607
C           46.48620290912412        0.04961049595399       -0.19206551817453
C           47.12483137883458        1.27923298077698       -0.13755046189603
C           46.45220711615396        2.54576964834234       -0.08879602160703
C           47.41253783762391        3.50067998911081       -0.02256837670613
C           48.68229372666809        2.82622014031158       -0.04141211632636
N           48.47584106580209        1.47778215959623       -0.10286666911431
C           49.92784194112291        3.45550433746155        0.02018068332676
C           49.94506511890221        4.94017442376867        0.06673117153523
C           49.42732296424999        5.68110843283610       -0.99559252589246
C           49.44660548670258        7.07034303282178       -0.95153125539110
O           48.95267827145620        7.80016732728151       -1.98158720076542
C           49.97870969280336        7.72335419006831        0.16135501661549
O           49.98147623145741        9.09367027638026        0.17838698221728
C           50.49254613304538        6.98333835161295        1.22314447370292
O           50.99422695307054        7.69411414553660        2.28187091339510
C           50.48120071132199        5.59472060517583        1.17891044532988
C           51.15850112728848        2.79598921311218        0.04033526447389
C           52.43875887013643        3.44511222964139        0.04331368333227
C           53.38126849388537        2.46830168613989        0.04640237134801
N           51.34235420513759        1.43826758587477        0.02993313128810
C           52.68503200397782        1.21726613650759        0.03823906112746
C           53.31654814360811       -0.03905486021165        0.02585051022114
C           52.65446560854642       -1.27864530691726       -0.00848938648464
C           53.31963224141311       -2.54633262686319       -0.03999578152933
C           52.35374658899267       -3.49850230797848       -0.08569509837949
C           51.08974882480381       -2.81787666920167       -0.07556112506855
N           51.30660220446511       -1.46554466262155       -0.03412957052849
C           49.84401153778743       -3.44511966287946       -0.13594458052198
C           49.82489212515808       -4.93051794228866       -0.16248450181707
C           50.32284094361567       -5.65723251705178        0.91889687958834
C           50.30150073654055       -7.04694273161336        0.89401909279952
O           50.77608147351213       -7.76327821388050        1.94241237747929
C           49.78762443415866       -7.71448052664024       -0.21884599480557
O           49.78302133377161       -9.08518790708789       -0.21726173862013
C           49.29378098414366       -6.98859493093026       -1.29962974543009
O           48.80963357061960       -7.71319856883045       -2.35751800196068
C           49.30664479120789       -5.59950209686690       -1.27448378039094
C           48.61417526332125       -2.78371705119212       -0.17663683321033
C           47.32870770010263       -3.42735040571885       -0.19854282185274
C           46.39153619369078       -2.44724585177810       -0.22056980052756
C           47.09446742687077       -1.19669473606436       -0.20184901908807
N           48.43997072640839       -1.42947947055346       -0.17271754039750
H           45.40138674525728        0.06366374121740       -0.21625849386727
H           45.38108718154592        2.67289214991763       -0.09694412808726
H           47.27968987575314        4.56844478306399        0.04400036887152
H           49.02529650983405        5.18494955157688       -1.86950104509485
H           49.05648830271246        8.74151340473027       -1.76517595412606
H           50.38291857303710        9.38099102396896        1.01393675863138
H           51.32949243542861        7.10049446852231        2.96648736897875
H           50.87081008505888        5.02493731862472        2.01438409919230
H           52.59382686771657        4.51183517005218        0.02865016386787
H           54.45420325907052        2.57605472732622        0.04742942000946
H           54.38953760969526       -2.68050419603521       -0.03279527654893
H           52.48206704599578       -4.56764349893283       -0.13424342861974
H           50.71190850190348       -5.14947751146072        1.79203436960378
H           50.67345231759607       -8.70732395754961        1.73770244942455
H           49.39624078196137       -9.38284162978779       -1.05618035756730
H           48.49076331241619       -7.12808503756299       -3.05713456881126
H           48.93286813150135       -5.04072768077681       -2.12453753809807
H           47.16955241325902       -4.49367721944067       -0.18512390334884
H           45.31772781665597       -2.54831365306298       -0.23940296334775
Cu          90.28765355042060       -0.05896932381041       -0.04633043647537
C           93.68984639441184       -0.09082755689511       -0.20701467483327
C           93.04932958830744       -1.31798411556336       -0.28707106939444
C           93.72002285825718       -2.58203945737992       -0.39193995794224
C           92.75858046744274       -3.53749557317848       -0.42741648506062
C           91.49010152743986       -2.86458424099296       -0.35510895232455
N           91.69825841381130       -1.51804386419026       -0.26190464205493
C           90.24433372634249       -3.49613197421189       -0.35401884159122
C           90.22525532228879       -4.97623850803382       -0.47935618655606
C           90.72831840418033       -5.58949128104887       -1.62664137521719
C           90.70782441416699       -6.97456222256786       -1.74285993778817
O           91.18768416612872       -7.58058493931460       -2.85638956792173
C           90.18954027957203       -7.75170237993733       -0.70579526644231
O           90.18575050678001       -9.11495957596613       -0.84654937117532
C           89.69037730300735       -7.13921638756279        0.44079826516177
O           89.20207870765510       -7.96742284495010        1.41742346090711
C           89.70262102311275       -5.75477940895101        0.55674565583309
C           89.01536748621974       -2.84257755524132       -0.24486693563275
C           87.73426192008928       -3.48718668730391       -0.30346231270571
C           86.79337014729124       -2.51684745705158       -0.17879814906563
N           88.83382534155810       -1.49244639448010       -0.09711634519746
C           87.49140292370852       -1.27352213730293       -0.05002494114990
C           86.86193750499098       -0.02400795856769        0.08921273788543
C           87.52645022858330        1.21048046572669        0.19123494616052
C           86.86320926756055        2.47364663197429        0.31368770338325
C           87.83018286419306        3.42421149754232        0.36783367946557
C           89.09288584238317        2.74640477934117        0.28494139716670
N           88.87426824144721        1.39817255895831        0.17261591162533
C           90.33860830770605        3.37609761869549        0.28182240196111
C           90.35963753515739        4.85493653685648        0.42462091605118
C           89.88166639033614        5.45262905733290        1.59062702603122
C           89.90390706216529        6.83610447243727        1.72446235134367
O           89.44901191663983        7.42685176666526        2.85626625027891
C           90.39810801452009        7.62710049800933        0.68596300576469
O           90.40363333075756        8.98829169971278        0.84417877388127
C           90.87173129180333        7.02995258570350       -0.47938650520103
O           91.33699204320649        7.87114134872087       -1.45623345897293
C           90.85864848686934        5.64696501312953       -0.61274499819680
C           91.56648792071776        2.72300288957849        0.15183826658497
C           92.85241290352138        3.36471215465089        0.18771683670863
C           93.78781596305259        2.39302907380382        0.04541511741177
C           93.08327555965313        1.14856239447602       -0.06888683011815
N           91.73838586432092        1.37673243202418        0.00114019440314
H           94.77430169925532       -0.10260407913002       -0.24392534643504
H           94.79077577735706       -2.70801558769019       -0.42542377275937
H           92.88992589910876       -4.60588512034870       -0.48684561787912
H           91.11982492253640       -4.99586069018113       -2.44262330273874
H           91.08402111320544       -8.54054325913471       -2.74942172034713
H           89.79500606711754       -9.49645774237554       -0.04429961727183
H           88.87697197124916       -7.45643357754806        2.17019842875718
H           89.32437833274565       -5.28511001292991        1.45719996988429
H           87.57760083670287       -4.54516650140672       -0.43867354778467
H           85.72035292734046       -2.62358695524065       -0.17975408287210
H           85.79367030074258        2.60652270506783        0.34763241306008
H           87.70349675036805        4.49183519488126        0.44533128456949
H           89.50742353047671        4.84785312477083        2.40657116210318
H           89.54502854389916        8.38856505686288        2.75817095254209
H           90.77069489297079        9.38152257918001        0.03633043077778
H           91.63853210382565        7.37060255676424       -2.22565842616869
H           91.21690315167446        5.18947293260430       -1.52754950129049
H           93.01288737796669        4.42288818432037        0.31842034262554
H           94.86150517768772        2.49514114808295        0.02603465302565
C           55.94465925849657       -0.06423037102479        0.03136359062269
C           54.72275820233398       -0.05455132102486        0.03291608719201
C           57.29437294613698       -0.06766332881827        0.02371075294938
C           58.51637123158167       -0.06605471398306        0.01096368824899
C           69.41557492459495       -0.01340345586129       -0.03877133300915
C           68.19339019606504       -0.02086078793456       -0.04187168339335
C           70.76459642031959       -0.00781947567861       -0.03507588358331
C           71.98677862135874        0.00185013471423       -0.03673228856633
C           82.88436636959572        0.00620791190328        0.11574478312156
C           81.66243728233070        0.00641331196602        0.10050801577032
C           84.23409749775529        0.00053641435688        0.11875974545752
C           85.45596069324203       -0.00813218774571        0.11104315955032
Cu          63.35537098763729       -0.04259610420748       -0.03835711631610
C           59.92177880000837       -0.06008893460872       -0.00608009775024
C           60.56510252582756        1.18636909455921        0.10174170447066
C           59.88237358891043        2.43190108489974        0.27964882039502
C           60.83350298218569        3.39954297011263        0.33126947224942
C           62.10367952505285        2.75014482034899        0.17717658925107
N           61.90722339813937        1.40079249156397        0.04596813350705
C           63.34053854707474        3.39952915038570        0.18342722273511
C           63.33183856845899        4.88127585138579        0.27087382125906
C           63.93612700018006        5.52828370264642        1.34930975622703
C           63.92992195560691        6.91711316804943        1.44670551296623
O           64.50559009904399        7.55761896046451        2.49770969101470
C           63.31972041694497        7.67997703137103        0.44581961005469
O           63.30136413334166        9.03691334563669        0.50918238945598
C           62.72144427723615        7.02483468012145       -0.63375201645673
O           62.14566679160158        7.83066465025915       -1.58241547020929
C           62.71714117240941        5.64018787485842       -0.72683907558465
C           64.58340351070763        2.76615153993983        0.11448625812716
C           65.84893822489337        3.44001460156668        0.05514247529985
C           66.80833095295839        2.48113786830466       -0.00428039870022
N           64.79102985108631        1.41251853672966        0.07593817557135
C           66.13524144130281        1.21779626961316        0.00708825613112
C           66.78842836150419       -0.02727943527721       -0.04344286747149
C           66.14616709273128       -1.27710316467954       -0.09960984857355
C           66.83007497418437       -2.53509767078469       -0.10720880097733
C           65.87908602261865       -3.50088674207450       -0.17990883586605
C           64.60741822091218       -2.83688420581922       -0.22377248924768
N           64.80314600382454       -1.48243006812131       -0.16641670034731
C           63.37021257090238       -3.48050638041203       -0.29202728014574
C           63.37754242637546       -4.96151831017167       -0.40996096726660
C           63.96566459669891       -5.56770577464295       -1.52069199151997
C           63.96057898725676       -6.95257958389873       -1.63887683719404
O           64.51320508214691       -7.55412134125183       -2.71892574029912
C           63.37325117664183       -7.73238657865533       -0.64061833091690
O           63.39448739720395       -9.11224237915453       -0.79293599045302
C           62.81965912387505       -7.12966223088185        0.48718650187902
O           62.27742279492162       -7.89025325785883        1.48107211773519
C           62.80481965259082       -5.74330567145222        0.59338385407974
C           62.12714908677225       -2.84533337288679       -0.25753573288020
C           60.86051980079422       -3.50753827268237       -0.38788316074418
C           59.90080090392218       -2.55118431302552       -0.30461176430984
C           60.57434024576676       -1.29922785757940       -0.13376990335927
N           61.91971392579398       -1.49941845602295       -0.11100169271225
H           58.81294856678452        2.54210886137352        0.36300648212554
H           60.69057270861241        4.45799420310296        0.47758581909593
H           64.40061922650196        4.94612561589484        2.13727216394303
H           64.89201927267146        6.92800947849923        3.12040370909557
H           62.83546579399287        9.37055397875533       -0.27440659182915
H           61.75738591703604        7.30275135894223       -2.29209358942865
H           62.25722304473093        5.15611093289384       -1.58037284473153
H           65.98323471226031        4.50955802153345        0.04456364532071
H           67.87746559372312        2.60928785444228       -0.06165220190387
H           67.90047071287896       -2.65458312449220       -0.05521601168684
H           66.02178885409002       -4.56928757172682       -0.18864563615904
H           64.40601125299196       -4.97021751453868       -2.30841699311267
H           64.41386923243172       -8.51547542298288       -2.61579482155544
H           62.53725932578275       -9.49493837395745       -0.56464682562362
H           62.58498989062731       -8.80483126942729        1.40591228998282
H           62.37141481775117       -5.28558335541725        1.47314784582366
H           60.72606192680168       -4.56674548387487       -0.53628410655710
H           58.83083566819285       -2.67195087730135       -0.36244518979745
Cu          76.82459617938706        0.00712953566599        0.00638681618034
C           73.39170478188487        0.00376292311710       -0.03109746170494
C           74.03801798201867        1.24706449002835        0.09275692757088
C           73.35708950577491        2.49477249289388        0.26056185657970
C           74.31084300772791        3.45875574720736        0.32900831350256
C           75.58099666484367        2.80465366240794        0.19603130865877
N           75.38186687342515        1.45601535206217        0.06104455761826
C           76.81990874270674        3.44964061227803        0.22174001176257
C           76.81454216223324        4.93160691966757        0.30178197555252
C           77.40883015608435        5.58327227133908        1.38301938247198
C           77.40483111231948        6.97266041348189        1.47249140657242
O           77.97105003471761        7.61779200481064        2.52569815975374
C           76.80674108153872        7.73147880565529        0.46121372620699
O           76.79111328658345        9.08859751939347        0.51705078151357
C           76.21779088222176        7.07172218493139       -0.62071998937097
O           75.65337882618903        7.87349992309489       -1.57940265064556
C           76.21174705607567        5.68663876189745       -0.70628688854411
C           78.06106250083968        2.81041603552499        0.17771469314379
C           79.33040406276085        3.47847382065359        0.13872867969793
C           80.28669599410735        2.51531438172400        0.10426210092179
N           78.26348072309781        1.45563488894878        0.15076615990882
C           79.60830081372457        1.25485430542478        0.10959315573884
C           80.25705785186220        0.00709721152761        0.07716268209967
C           79.61003426521451       -1.23961377552920        0.01021794236696
C           80.28773287541838       -2.50089386022739        0.01796395500880
C           79.33412776768895       -3.46205829662353       -0.07863313138195
C           78.06727669150145       -2.79194754319906       -0.15245081243257
N           78.26774742323551       -1.43844602900558       -0.08828362930604
C           76.82977640543047       -3.43043858762321       -0.25438808452758
C           76.83454880050537       -4.91108913015174       -0.37911416273235
C           77.44096525090221       -5.51284890791617       -1.48222662193395
C           77.43475188106382       -6.89728347626079       -1.60738025857586
O           78.00538502650173       -7.49479110803443       -2.67993413239644
C           76.82822276024163       -7.68014710945452       -0.62326497792007
O           76.85069052476823       -9.06046148159647       -0.77844069164656
C           76.25585490470407       -7.08187876970959        0.49768512119082
O           75.69680894222763       -7.84691309983480        1.47777846607548
C           76.24179271437437       -5.69594556225039        0.61015158543574
C           75.58932289925075       -2.79010564270576       -0.24839090683234
C           74.32325492169583       -3.44595586878871       -0.41046770852216
C           73.36618950329820       -2.48554128286208       -0.34439206951282
C           74.04139700930602       -1.23763755405091       -0.15247355354563
N           75.38486363411198       -1.44360650713522       -0.10089626892449
H           72.28680064912781        2.60886117035225        0.32559703207275
H           74.16979815518498        4.51754494238781        0.47443566448245
H           77.86306971831776        5.00473344763348        2.17956789485744
H           78.35023823893324        6.99104128688204        3.15566074140284
H           76.33157891680025        9.41915636192165       -0.27163182789459
H           75.26766066727056        7.34266700858996       -2.28830517511595
H           75.75968648867077        5.19893833716318       -1.56196340866588
H           79.46978861980966        4.54729106923976        0.12379239685718
H           81.35726049023846        2.63875226378850        0.06716320609465
H           81.35599675699193       -2.62534351398912        0.09548084227546
H           79.47181795141525       -4.53114783447596       -0.08582077251549
H           77.89706106222506       -4.91226463489785       -2.25853077039311
H           77.90768996134796       -8.45676151821271       -2.58007702788457
H           75.97798737670823       -9.43907559936472       -0.61052180714692
H           75.99025441659821       -8.76512163026239        1.38924503732536
H           75.79350388932284       -5.24089684452997        1.48383772313800
H           74.18804856291059       -4.50393807132762       -0.56684604526476
H           72.29731723762522       -2.60134109779071       -0.42691976086941
