120
 energy: -206.069988828440 gnorm: 1.121370682930 xtb: 6.5.1 (b24c23e)
C           13.56338400000000       -0.01292100000000        0.10757500000000
C           14.29160300000000        1.36304300000000        0.18632700000000
C           13.68429500000000        2.58470400000000        0.36469500000000
C           14.70691400000000        3.56753800000000        0.31762400000000
C           15.90438400000000        2.91178100000000        0.10254700000000
N           15.64364000000000        1.56451400000000        0.07118200000000
C           17.32722499999999        3.58058300000000       -0.10040300000000
C           17.36662300000000        5.04655800000000       -0.30413200000000
C           17.67097200000000        5.89786700000000        0.76512900000000
C           17.69990500000000        7.28157100000000        0.57810300000000
C           17.42340400000000        7.82139600000000       -0.68255200000000
C           17.45419800000000        9.24115100000000       -0.87844100000000
N           17.47792300000000       10.39063500000000       -1.04272800000000
C           17.11670900000000        6.97398800000000       -1.75302500000000
C           17.08848400000000        5.59001600000000       -1.56233800000000
C           18.45749900000000        2.82409900000000       -0.12388600000000
C           19.76059200000000        3.40499300000000       -0.37597300000000
C           20.66401800000000        2.43237400000000       -0.35981300000000
N           18.65561599999999        1.47860300000000        0.04389400000000
C           19.98757800000000        1.17965300000000       -0.08532100000000
C           20.65894400000000        0.00000000000000        0.00000000000000
C           19.88579800000000       -1.34799600000000        0.32692400000000
C           20.43949700000000       -2.49942200000000        0.85412800000000
C           19.41218300000000       -3.47257900000000        0.92673900000000
C           18.25849000000000       -2.88648900000000        0.45117700000000
N           18.54393200000000       -1.57790400000000        0.14470400000000
C           16.84540900000000       -3.58933600000000        0.29665900000000
C           16.81302900000000       -5.06511400000000        0.20991700000000
C           16.47067000000000       -5.83572500000000        1.32820100000000
C           16.44927000000000       -7.22890000000000        1.24284600000000
C           16.77454500000000       -7.86026800000000        0.03720300000000
C           16.75088000000000       -9.29057000000000       -0.05301400000000
N           16.73268600000000      -10.44955900000000       -0.12673400000000
C           17.12119900000000       -7.09368800000000       -1.08142900000000
C           17.13954700000000       -5.70065200000000       -0.99323800000000
C           15.71806400000000       -2.83683500000000        0.21230200000000
C           14.39466700000000       -3.41547200000000        0.05681300000000
C           13.50733800000000       -2.42529000000000        0.01940100000000
C           14.22963700000000       -1.18253300000000        0.13260800000000
N           15.55203400000000       -1.48025100000000        0.24207500000000
H           12.48453700000000       -0.01147600000000        0.00655600000000
H           12.62633500000000        2.75063200000000        0.49774600000000
H           14.57864000000000        4.63565500000000        0.40647800000000
H           16.34304000000000        0.83190400000000       -0.01924000000000
H           17.88949000000000        5.46404000000000        1.73970600000000
H           17.93972300000000        7.92358900000000        1.42122500000000
H           16.90097900000000        7.37412100000000       -2.73936400000000
H           16.85309300000000        4.92085000000000       -2.38676300000000
H           19.97352300000000        4.44256100000000       -0.56166300000000
H           21.71654300000000        2.57495000000000       -0.52367300000000
H           21.47260899999999       -2.63350200000000        1.13692800000000
H           19.51044900000000       -4.49013100000000        1.26896100000000
H           17.85602800000000       -0.88230200000000       -0.13484600000000
H           16.21619700000000       -5.33198900000000        2.25851300000000
H           16.17788500000000       -7.80776400000000        2.12137700000000
H           17.37941200000000       -7.56490600000000       -2.02623100000000
H           17.40316500000000       -5.09227900000000       -1.85757700000000
H           14.16313100000000       -4.46232800000000       -0.01606100000000
H           12.44205000000000       -2.52518800000000       -0.08782000000000
C           31.16854500000000        0.04228500000000        0.09975600000000
C           30.44032600000000       -1.25769500000000        0.55750300000000
C           31.04763400000000       -2.38177700000000        1.06809800000000
C           30.02501500000000       -3.33902800000000        1.29580100000000
C           28.82754500000000       -2.76878600000000        0.90708600000000
N           29.08828900000000       -1.48321600000000        0.50283300000000
C           27.40470400000000       -3.46764300000000        0.89783800000000
C           27.36530600000000       -4.93253600000000        1.10920700000000
C           27.06095699999999       -5.45344000000000        2.37281500000000
C           27.03202400000000       -6.83466000000000        2.57738500000000
C           27.30852500000000       -7.70332400000000        1.51621500000000
C           27.27773100000000       -9.12163800000000        1.72228200000000
N           27.25400600000000      -10.27153400000000        1.88365600000000
C           27.61522000000000       -7.18650400000000        0.25252600000000
C           27.64344500000000       -5.80401100000000        0.05139800000000
C           26.27443000000000       -2.74743100000000        0.66521000000000
C           24.97133699999999       -3.37548100000000        0.58434600000000
C           24.06791100000000       -2.43662700000000        0.32978400000000
N           26.07631300000000       -1.40826100000000        0.45276100000000
C           24.74435100000000       -1.15695100000000        0.24561200000000
C           24.07298500000000        0.00000000000000        0.00000000000000
C           24.84613100000000        1.38576400000000       -0.06025900000000
C           24.29243200000000        2.63830500000000        0.12647100000000
C           25.31974600000000        3.59335100000000       -0.07400900000000
C           26.47343900000000        2.89825300000000       -0.36811600000000
N           26.18799700000000        1.55603000000000       -0.29915500000000
C           27.88652000000000        3.53055000000000       -0.71173000000000
C           27.91890000000000        4.92419900000000       -1.20486900000000
C           28.26125900000000        5.97503800000000       -0.34455800000000
C           28.28265900000000        7.28971900000000       -0.81342700000000
C           27.95738500000000        7.56146100000000       -2.14697700000000
C           27.98104900000000        8.91045700000000       -2.63082600000000
N           27.99924300000000       10.00339400000000       -3.02348600000000
C           27.61073000000000        6.51439700000000       -3.00874300000000
C           27.59238200000000        5.20063800000000       -2.53718800000000
C           29.01386500000000        2.78421900000000       -0.58380800000000
C           30.33726200000000        3.29692000000000       -0.89386300000000
C           31.22459100000000        2.33529300000000       -0.65484000000000
C           30.50229200000000        1.17284800000000       -0.20098400000000
N           29.17989499999999        1.48925600000000       -0.17849600000000
H           32.24739200000000        0.01284500000000        0.00311100000000
H           32.10559400000000       -2.50423200000000        1.24199300000000
H           30.15328900000000       -4.34046400000000        1.67776600000000
H           28.38888900000000       -0.80452800000000        0.21252800000000
H           26.84243900000000       -4.76604500000000        3.18859300000000
H           26.79220600000000       -7.21730000000000        3.56562900000000
H           27.83095000000000       -7.84479600000000       -0.58390900000000
H           27.87883600000000       -5.39009700000000       -0.92642300000000
H           24.75840700000000       -4.42380600000000        0.69408000000000
H           23.01538600000000       -2.61909800000000        0.21196100000000
H           23.25932000000000        2.84564200000000        0.36091700000000
H           25.22148000000000        4.66591500000000       -0.02781000000000
H           26.87590100000000        0.81015600000000       -0.37454900000000
H           28.51573200000000        5.74945200000000        0.68904800000000
H           28.55404400000000        8.08977600000000       -0.13019200000000
H           27.35251700000000        6.70472000000000       -4.04723900000000
H           27.32876400000000        4.37617400000000       -3.19859400000000
H           30.56879800000000        4.28236800000000       -1.25457200000000
H           32.28987900000000        2.40148800000000       -0.78558600000000
C           21.75500600000000        0.00000000000000        0.00000000000000
C           22.97692300000000        0.00000000000000        0.00000000000000
120
 energy: -206.334449073126 gnorm: 0.327014418239 xtb: 6.5.1 (b24c23e)
C           13.58507220564139        0.01594505387644        0.10898265910954
C           14.28792602822117        1.34748144348031        0.18582359650206
C           13.68847857942511        2.58894937572020        0.36197864392786
C           14.70535990797834        3.56556078221374        0.31421354919730
C           15.91980290043287        2.91581835736020        0.10133951598102
N           15.64419710073911        1.56451141945231        0.06909202211712
C           17.29817453619704        3.56394976269576       -0.09606190635624
C           17.35813128855395        5.04093759395362       -0.30121807999156
C           17.67059229975026        5.89716772990751        0.76267001420794
C           17.70007335897584        7.27707643119738        0.57742979805733
C           17.42330167129258        7.82196202886725       -0.68268424087950
C           17.45411876607779        9.24162412839532       -0.87869474777375
N           17.47781298488296       10.38177283911046       -1.04137192719422
C           17.11754291583701        6.96993445743500       -1.75141561186761
C           17.08762107864668        5.59067674662539       -1.55945978387798
C           18.45318861886265        2.82802858991097       -0.12422017607010
C           19.75827633614043        3.41680350609910       -0.37712771716572
C           20.66004413405799        2.43184937164803       -0.36063025110538
N           18.62912142068309        1.47891845667169        0.04405247804794
C           19.92396063723220        1.20489633718836       -0.09060536859959
C           20.52236398008924       -0.02772513209124        0.00801660141230
C           19.86106240902461       -1.34957380983275        0.33050447069332
C           20.43212111318996       -2.50206767655556        0.85060490939673
C           19.41194093068724       -3.47326360299056        0.92229020974444
C           18.23895959445325       -2.89556025908041        0.45056372332796
N           18.53239413992752       -1.58567527672224        0.14204481193040
C           16.87150941621363       -3.57125168320158        0.29862812579846
C           16.82118066855306       -5.05871994178610        0.21273576951016
C           16.47078542938547       -5.83508143299915        1.32536097037019
C           16.44910133321157       -7.22464803161056        1.24172391162133
C           16.77458755993078       -7.86088874811557        0.03704851544294
C           16.75104185136371       -9.29104725153006       -0.05300647678740
N           16.73272892394569      -10.44059940333876       -0.12619849381423
C           17.12051686203812       -7.08963749295767       -1.08014107786643
C           17.14050302865659       -5.70060410519268       -0.99023069348429
C           15.71644912473646       -2.83114195902559        0.21084644902579
C           14.39286798174977       -3.42340319582595        0.05677479473930
C           13.50186422940746       -2.42930457504253        0.01853254406212
C           14.23631209102399       -1.18401858529585        0.13158878872273
N           15.56215558601385       -1.47294502144292        0.24198498389916
H           12.49727288256939        0.00012734657344        0.00992071357719
H           12.62950301855486        2.75340984236490        0.49767329802483
H           14.57738613199146        4.63384737652194        0.40640071614062
H           16.34238529183358        0.83305003539539       -0.01952017750325
H           17.88860201741075        5.46649552958821        1.73741754549742
H           17.93910692363885        7.92254817113246        1.41847105641548
H           16.90176477167005        7.37400439073318       -2.73661953816010
H           16.85326140945975        4.92377167320460       -2.38539214557870
H           19.97130193380478        4.45089628614717       -0.56226986729727
H           21.71597180737677        2.56612885680331       -0.52499420038867
H           21.46596845763091       -2.63260245763488        1.13771789622058
H           19.51219849168042       -4.48934291098536        1.26888572487621
H           17.85387267183761       -0.88511086356339       -0.13519425817704
H           16.21712666393030       -5.33442410507850        2.25660648933804
H           16.17865991501411       -7.80697914721210        2.11859146544336
H           17.37821342805642       -7.56457980600916       -2.02330176428636
H           17.40296183751281       -5.09524470752553       -1.85548455180659
H           14.16584637124445       -4.46972167853994       -0.01578098461100
H           12.43691488518656       -2.52378893701670       -0.08812896200251
C           31.14685683442833        0.01494521284800        0.10912417458228
C           30.44400291905247       -1.24288498220327        0.55269794188387
C           31.04345048180713       -2.38660988913472        1.06666746630649
C           30.02656908111351       -3.33807587603745        1.29197576635079
C           28.81212609410846       -2.77300009849686        0.90704724528392
N           29.08773180732680       -1.48379385991744        0.50082441181152
C           27.43375439785784       -3.45045821164284        0.89738931638807
C           27.37379769080560       -4.92632723865249        1.11044570512154
C           27.06133670941381       -5.45345109750527        2.37025844964730
C           27.03185565011768       -6.83052879014548        2.57549015214595
C           27.30862736381337       -7.70390464574074        1.51624496178691
C           27.27781025167396       -9.12216282326349        1.72216950790048
N           27.25411600700074      -10.26264412321268        1.88249786951352
C           27.61438610475533       -7.18216300613558        0.25294632857782
C           27.64430791071806       -5.80384644555621        0.05434659029105
C           26.27874046807294       -2.75129888328339        0.66598024135919
C           24.97365277518134       -3.38714756459455        0.58651629049026
C           24.07188488200244       -2.43634988959200        0.32885318687219
N           26.10280759982509       -1.40852026593646        0.45300081582995
C           24.80796837837723       -1.18266887827356        0.24754537184915
C           24.20956502939568        0.02886091138211        0.00000228749903
C           24.87086657197749        1.38827401076337       -0.05725744472162
C           24.29980783648725        2.63986811902886        0.12235187660472
C           25.31998804425659        3.59277345124441       -0.07847293488861
C           26.49296946316777        2.90679720721786       -0.37122417691257
N           26.19953493764641        1.56275687759940       -0.30386762970559
C           27.86041960201852        3.51372359532253       -0.70481657221785
C           27.91074831115897        4.91883918159441       -1.20038574894144
C           28.26114360214311        5.97363134009526       -0.34710754598503
C           28.28282776282408        7.28532264109210       -0.81332406163731
C           27.95734224881308        7.56201442339021       -2.14729785801762
C           27.98088720845208        8.91091812527117       -2.63095150952885
N           27.99920006014674        9.99493490068720       -3.02048336455399
C           27.61141222657954        6.51086339849205       -3.00638080385444
C           27.59142598053109        5.20142713097974       -2.53428564367321
C           29.01547986478306        2.77834556219326       -0.58362529335710
C           30.33906101856713        3.30452887026484       -0.89610215663151
C           31.23006483420310        2.33890835656487       -0.65678914943725
C           30.49561688314371        1.17399244336006       -0.20237580197313
N           29.16977335833749        1.48221229668923       -0.17655365595846
H           32.23465612331877        0.00263233040913        0.00956551724256
H           32.10242601604443       -2.50692085474122        1.24269454117627
H           30.15454282025388       -4.33874868251417        1.67718969221848
H           28.38954377263203       -0.80570685858608        0.21257713654132
H           26.84332697692299       -4.76903942408462        3.18707645468643
H           26.79282201225359       -7.21706497802781        3.56269463223533
H           27.83016421149490       -7.84392189721956       -0.58130473549521
H           27.87866761330831       -5.39252305384434       -0.92429487980715
H           24.76062798967560       -4.43198222849486        0.69581169745171
H           23.01595718682068       -2.61099064845893        0.20824218361782
H           23.26596056024342        2.84499716269559        0.36192556816215
H           25.21973050405033        4.66513711647814       -0.02766347396653
H           26.87805616925960        0.81275785241760       -0.37566353121710
H           28.51480233951894        5.75126199513261        0.68654029480881
H           28.55326907005709        8.08824839063132       -0.13265009818987
H           27.35371558670384        6.70522008281540       -4.04433436308617
H           27.32896712492007        4.37960400883038       -3.19740744113438
H           30.56608263370775        4.28954864686596       -1.25635616997362
H           32.29501409558029        2.40005809361608       -0.78549422751450
C           21.78161703660473       -0.01202583900409        0.00221929031046
C           22.95031197090920        0.01216917625657       -0.00120745390095
120
 energy: -206.423080461151 gnorm: 0.169524975936 xtb: 6.5.1 (b24c23e)
C           13.62874053733593        0.05418664148359        0.11146680734278
C           14.29236358629054        1.33238874883052        0.18418873533045
C           13.69797493246380        2.59478642969269        0.35359693898719
C           14.70280762322171        3.56126655518659        0.30511820295970
C           15.93623638417433        2.91740466701536        0.09835337053109
N           15.64986897784357        1.56418762207001        0.06683948409984
C           17.24983862375329        3.54209472026332       -0.08906626822067
C           17.33167803187248        5.02922228941322       -0.29347098388482
C           17.66512594274560        5.89098556627451        0.75984230887437
C           17.70103765536485        7.26738172974003        0.57509281029421
C           17.42308966445053        7.81682075238323       -0.68207089761095
C           17.45340934464195        9.23390046351196       -0.87775807871492
N           17.47767638235139       10.37300392185544       -1.03989501683273
C           17.11948421783108        6.96173841328189       -1.74779442650759
C           17.08107818149310        5.58705479327275       -1.55281279612217
C           18.43516881560608        2.83209729785483       -0.12625792344462
C           19.74552590552346        3.42541214795041       -0.37791580960489
C           20.64462445956736        2.42651222238435       -0.36445451786309
N           18.58865073171124        1.48122232907972        0.03609642370642
C           19.87563092400560        1.21015121879799       -0.09583419640831
C           20.44080110675013       -0.06250339822437        0.03228820239499
C           19.83264038699560       -1.33506468496247        0.33308261026517
C           20.41397804665706       -2.50484656274938        0.83975170870513
C           19.40942367349947       -3.47357342235930        0.90802852592626
C           18.21131255776059       -2.90510062687867        0.44679540099834
N           18.50864487954223       -1.59279471944479        0.14118349033014
C           16.90530848034711       -3.54433189845441        0.30113467301940
C           16.84100324183437       -5.04389172212737        0.21979230075444
C           16.47463315568762       -5.82828364439063        1.32184457541360
C           16.44854395688247       -7.21492999053746        1.23861591908582
C           16.77475688421880       -7.85554496273164        0.03739045524538
C           16.75171011227299       -9.28328885984605       -0.05225531787645
N           16.73290852428368      -10.43167092411531       -0.12573107142660
C           17.11902207880593       -7.08064255090106       -1.07646953590516
C           17.14585855141387       -5.69506875072726       -0.98293260089238
C           15.71999160402776       -2.82292768910991        0.20580460771146
C           14.39623946635669       -3.42963674519782        0.05703096324008
C           13.50154104608846       -2.42913662612099        0.01729092893184
C           14.25110719811563       -1.18176528594503        0.12771338930913
N           15.57690103886493       -1.46558332958572        0.23719197427943
H           12.53617114316800        0.03242403197784        0.02178527546877
H           12.63914120792863        2.75919478595742        0.49640995803678
H           14.57410084544799        4.62892428677517        0.40515845428847
H           16.34654027228628        0.83352846468175       -0.02008372775693
H           17.88571382232168        5.46854207100852        1.73514773247728
H           17.93869530437750        7.91785251003327        1.41227640553048
H           16.90447108583939        7.37176444804617       -2.73047266308457
H           16.85107339173035        4.92700365878126       -2.38330512411981
H           19.95995141186525        4.46275508604657       -0.56063810268604
H           21.70380584821150        2.54607841659526       -0.52887249165426
H           21.44475921481697       -2.63057118616450        1.13965144846968
H           19.51527797551211       -4.48619658145998        1.26619467145526
H           17.83743191512434       -0.88990911070791       -0.13611754247877
H           16.21936101024156       -5.33636281580119        2.25495054226338
H           16.17964945562040       -7.80267887394035        2.11205473456336
H           17.37472187298525       -7.56149683224834       -2.01674324089615
H           17.40490810767673       -5.09816226917086       -1.85217743780147
H           14.17577114946212       -4.48039265882437       -0.01367177345714
H           12.43283634654926       -2.51703827290169       -0.08758225288554
C           31.10318845731709       -0.02110240210645        0.12213004734934
C           30.43956535456531       -1.22883960902838        0.54693610520250
C           31.03395411975942       -2.39454500710600        1.06023636428418
C           30.02912135270784       -3.33647639597157        1.28204581478874
C           28.79569261704874       -2.77535344853614        0.90461914475150
N           29.08205990455394       -1.48410836893322        0.49857044035662
C           27.48209035029927       -3.42751981453798        0.89804068008758
C           27.40025096460939       -4.91292108529542        1.11463495910798
C           27.06680306458711       -5.44829727675525        2.36582515406353
C           27.03089135570652       -6.82186402202020        2.57055296244203
C           27.30883938266584       -7.69879546105459        1.51540634476273
C           27.27851968605711       -9.11448284164995        1.72092442520600
N           27.25425261431042      -10.25381004487111        1.88148167150528
C           27.61244480561701       -7.17328371900346        0.25414904654245
C           27.65085081029454       -5.79852098802404        0.05972646669821
C           26.29676032325738       -2.75577347200056        0.66515252641797
C           24.98640327775960       -3.39563647661773        0.58814961876785
C           24.08730458860707       -2.43228456446641        0.32369724488644
N           26.14327832697140       -1.41294305827404        0.44599733587833
C           24.85629811984979       -1.18916898265750        0.24398158140260
C           24.29112793711300        0.06901142773870        0.01366164032338
C           24.89928859086314        1.37505140982810       -0.05075156887952
C           24.31795088790064        2.63952369255630        0.11115401775550
C           25.32250530082552        3.58911088836118       -0.09225976576981
C           26.52061651822223        2.91491594342116       -0.37749363374749
N           26.22328420155878        1.56935683827053       -0.30667208321091
C           27.82662052454957        3.48855841036477       -0.69493340797000
C           27.89092575203308        4.90655364515664       -1.18948932109191
C           28.25729591228231        5.96612464578136       -0.34859789251750
C           28.28338522001017        7.27512367313576       -0.81361105107969
C           27.95717262659377        7.55697560204138       -2.14548543303964
C           27.98021905259313        8.90367364150267       -2.62807555038783
N           27.99902044431419        9.98648742707249       -3.01755499839667
C           27.61290709710792        6.50324172286452       -3.00035568832428
C           27.58607047228126        5.19813600426002       -2.52573744940808
C           29.01193739584899        2.76905415996902       -0.58618768156803
C           30.33568954872758        3.31058859391511       -0.89758707275566
C           31.23038801643026        2.33840210116681       -0.65793542956705
C           30.48082173435978        1.17075190654649       -0.20547325307762
N           29.15502787942998        1.47380909270824       -0.17911386036806
H           32.19575781389738       -0.02509949502788        0.02993195132798
H           32.09278783653252       -2.51282922730940        1.24308729223325
H           30.15782807939738       -4.33436397252407        1.67462911513736
H           28.38538884098044       -0.80632310728464        0.21216867950919
H           26.84621516434347       -4.77163575018871        3.18546425711476
H           26.79323358582560       -7.21427435137338        3.55543995220977
H           27.82745788548968       -7.84006320468177       -0.57602145070199
H           27.88085564433159       -5.39504831727758       -0.92139260522852
H           24.77197835281845       -4.44292175163749        0.70067250019570
H           23.02812316530897       -2.59280569616802        0.19894853216222
H           23.28716981238510        2.84358266334805        0.36434701660515
H           25.21665102577118        4.66136740904162       -0.02937501404553
H           26.89449681797990        0.81711112343585       -0.37788291125810
H           28.51256800092660        5.75266475957984        0.68441117250866
H           28.55227954828725        8.08230195305243       -0.13773565983396
H           27.35720720071496        6.70407966851723       -4.03717756324713
H           27.32702080041843        4.38332498064822       -3.19504062099715
H           30.55615788498079        4.30038570940226       -1.25729320423547
H           32.29909261521994        2.39372464179182       -0.78309427544884
C           21.75700446130264       -0.03055591173221        0.01012830053500
C           22.97492457967903        0.03216679401961        0.00124485188246
120
 energy: -206.455443229698 gnorm: 0.066039623905 xtb: 6.5.1 (b24c23e)
C           13.67864229252434        0.08553461075940        0.11482027767937
C           14.30881219506773        1.32535820812207        0.18228380148872
C           13.70939054784156        2.60343048227540        0.34073079659385
C           14.69638872608483        3.56001900691897        0.29165497212332
C           15.94755168146087        2.91991627400847        0.09355860765324
N           15.66377428521225        1.56681156142084        0.06923192796860
C           17.20387448373863        3.52513813811841       -0.08439444972009
C           17.29648770100085        5.01749279856339       -0.28338229285068
C           17.65019573345039        5.88004537279045        0.76102306306414
C           17.70034642302007        7.25347226657150        0.57394744109904
C           17.42255775322300        7.80635751581207       -0.68051474157020
C           17.45418648424824        9.22024007674997       -0.87610907551778
N           17.47717543218349       10.35988618492906       -1.03738858387321
C           17.11888558124512        6.94984608957693       -1.74341404362753
C           17.06492622033013        5.57882094151687       -1.54417024967682
C           18.41203616092228        2.83508355433842       -0.13464377322008
C           19.72253832549060        3.42729018026441       -0.38013003518981
C           20.61616742950087        2.41590999082474       -0.37070264043572
N           18.54715767546776        1.48368454666590        0.01988380969192
C           19.84073507818055        1.20518694522583       -0.10329750517272