      -----------------------------------------------------------      
     |                   =====================                   |     
     |                           x T B                           |     
     |                   =====================                   |     
     |                         S. Grimme                         |     
     |          Mulliken Center for Theoretical Chemistry        |     
     |                    University of Bonn                     |     
      -----------------------------------------------------------      

   * xtb version 6.5.1 (b24c23e) compiled by 'conda@728c89f4b128' on 2022-07-12

   xtb is free software: you can redistribute it and/or modify it under
   the terms of the GNU Lesser General Public License as published by
   the Free Software Foundation, either version 3 of the License, or
   (at your option) any later version.
   
   xtb is distributed in the hope that it will be useful,
   but WITHOUT ANY WARRANTY; without even the implied warranty of
   MERCHANTABILITY or FITNESS FOR A PARTICULAR PURPOSE.  See the
   GNU Lesser General Public License for more details.
   
   Cite this work as:
   * C. Bannwarth, E. Caldeweyher, S. Ehlert, A. Hansen, P. Pracht,
     J. Seibert, S. Spicher, S. Grimme, WIREs Comput. Mol. Sci., 2020, 11,
     e01493. DOI: 10.1002/wcms.1493
   
   for GFN2-xTB:
   * C. Bannwarth, S. Ehlert and S. Grimme., J. Chem. Theory Comput., 2019,
     15, 1652-1671. DOI: 10.1021/acs.jctc.8b01176
   for GFN1-xTB:
   * S. Grimme, C. Bannwarth, P. Shushkov, J. Chem. Theory Comput., 2017,
     13, 1989-2009. DOI: 10.1021/acs.jctc.7b00118
   for GFN0-xTB:
   * P. Pracht, E. Caldeweyher, S. Ehlert, S. Grimme, ChemRxiv, 2019, preprint.
     DOI: 10.26434/chemrxiv.8326202.v1
   for GFN-FF:
   * S. Spicher and S. Grimme, Angew. Chem. Int. Ed., 2020, 59, 15665-15673.
     DOI: 10.1002/anie.202004239
   
   for ALPB and GBSA implicit solvation:
   * S. Ehlert, M. Stahn, S. Spicher, S. Grimme, J. Chem. Theory Comput.,
     2021, 17, 4250-4261. DOI: 10.1021/acs.jctc.1c00471
   
   for DFT-D4:
   * E. Caldeweyher, C. Bannwarth and S. Grimme, J. Chem. Phys., 2017,
     147, 034112. DOI: 10.1063/1.4993215
   * E. Caldeweyher, S. Ehlert, A. Hansen, H. Neugebauer, S. Spicher,
     C. Bannwarth and S. Grimme, J. Chem. Phys., 2019, 150, 154122.
     DOI: 10.1063/1.5090222
   * E. Caldeweyher, J.-M. Mewes, S. Ehlert and S. Grimme, Phys. Chem. Chem. Phys.
     2020, 22, 8499-8512. DOI: 10.1039/D0CP00502A
   
   for sTDA-xTB:
   * S. Grimme and C. Bannwarth, J. Chem. Phys., 2016, 145, 054103.
     DOI: 10.1063/1.4959605
   
   in the mass-spec context:
   * V. Asgeirsson, C. Bauer and S. Grimme, Chem. Sci., 2017, 8, 4879.
     DOI: 10.1039/c7sc00601b
   * J. Koopman and S. Grimme, ACS Omega 2019, 4, 12, 15120-15133.
     DOI: 10.1021/acsomega.9b02011
   
   for metadynamics refer to:
   * S. Grimme, J. Chem. Theory Comput., 2019, 155, 2847-2862
     DOI: 10.1021/acs.jctc.9b00143
   
   for SPH calculations refer to:
   * S. Spicher and S. Grimme, J. Chem. Theory Comput., 2021, 17, 1701-1714
     DOI: 10.1021/acs.jctc.0c01306
   
   with help from (in alphabetical order)
   P. Atkinson, C. Bannwarth, F. Bohle, G. Brandenburg, E. Caldeweyher
   M. Checinski, S. Dohm, S. Ehlert, S. Ehrlich, I. Gerasimov, C. Hölzer
   A. Katbashev, J. Koopman, C. Lavigne, S. Lehtola, F. März, M. Müller,
   F. Musil, H. Neugebauer, J. Pisarek, C. Plett, P. Pracht, F. Pultar,
   J. Seibert, P. Shushkov, S. Spicher, M. Stahn, M. Steiner, T. Strunk,
   J. Stückrath, T. Rose, and J. Unsleber
   
 * started run on 2022/07/30 at 07:12:08.310     

           -------------------------------------------------
          |                Calculation Setup                |
           -------------------------------------------------

          program call               : xtb Co_BSA_C6_2.xyz --gfn 1 --opt -T 48
          hostname                   : cx3-15-13.cx3.hpc.ic.ac.uk
          coordinate file            : Co_BSA_C6_2.xyz
          omp threads                :                     1

   ID    Z sym.   atoms
    1   27 Co     1, 65
    2    6 C      2-6, 8-12, 17-21, 23-28, 30-34, 39-44, 66-70, 72-76, 81-85,
                  87-92, 94-98, 103-108, 129-134
    3    7 N      7, 22, 29, 45, 71, 86, 93, 109
    4   16 S      13, 35, 77, 99
    5    8 O      14-16, 36-38, 78-80, 100-102
    6    1 H      46-64, 110-128
########################################################################
[WARNING] Please study the warnings concerning your input carefully
-1- prog_main_parseArguments: Unknown option '-T' provided
########################################################################

           -------------------------------------------------
          |                 G F N 1 - x T B                 |
           -------------------------------------------------

        Reference                      10.1021/acs.jctc.7b00118
      * Hamiltonian:
        H0-scaling (s, p, d)           1.850000    2.250000    2.000000
        zeta-weighting                 0.000000
      * Dispersion:
        s8                             2.400000
        a1                             0.630000
        a2                             5.000000
        s9                             0.000000
      * Repulsion:
        kExp                           1.500000
        rExp                           1.000000
      * Coulomb:
        alpha                          2.000000
        third order                    atomic
        anisotropic                    false
      * Halogen bond correction:
        rad-scale                      1.300000
        damping                        0.440000


          ...................................................
          :                      SETUP                      :
          :.................................................:
          :  # basis functions                 496          :
          :  # atomic orbitals                 490          :
          :  # shells                          274          :
          :  # electrons                       472          :
          :  # halogen bonds                     0          :
          :  max. iterations                   250          :
          :  Hamiltonian                  GFN1-xTB          :
          :  restarted?                      false          :
          :  GBSA solvation                  false          :
          :  PC potential                    false          :
          :  electronic temp.          300.0000000     K    :
          :  accuracy                    1.0000000          :
          :  -> integral cutoff          0.2500000E+02      :
          :  -> integral neglect         0.1000000E-07      :
          :  -> SCF convergence          0.1000000E-05 Eh   :
          :  -> wf. convergence          0.2000000E-04 e    :
          :  Broyden damping             0.4000000          :
          ...................................................

 iter      E             dE          RMSdq      gap      omega  full diag
   1   -273.7713945 -0.273771E+03  0.107E+01    0.15       0.0  T
   2   -244.2681206  0.295033E+02  0.116E+01    0.03       1.0  T
   3   -267.4033984 -0.231353E+02  0.679E+00    0.02       1.0  T
   4   -233.1613962  0.342420E+02  0.705E+00    0.05       1.0  T
   5   -217.6587610  0.155026E+02  0.595E+00    0.13       1.0  T
   6   -271.9122004 -0.542534E+02  0.377E+00    0.22       1.0  T
   7   -273.6581076 -0.174591E+01  0.304E+00    0.17       1.0  T
   8   -274.0555516 -0.397444E+00  0.273E+00    0.31       1.0  T
   9   -274.2702525 -0.214701E+00  0.238E+00    0.31       1.0  T
  10   -274.4810330 -0.210781E+00  0.187E+00    0.26       1.0  T
  11   -274.7096664 -0.228633E+00  0.136E+00    0.27       1.0  T
  12   -274.8806892 -0.171023E+00  0.604E-01    0.00       1.0  T
  13   -274.8641338  0.165554E-01  0.635E-01    0.00       1.0  T
  14   -274.9335391 -0.694054E-01  0.415E-01    0.06       1.0  T
  15   -274.9697993 -0.362601E-01  0.306E-01    0.00       1.0  T
  16   -274.9584296  0.113697E-01  0.351E-01    0.02       1.0  T
  17   -274.8948874  0.635422E-01  0.571E-01    0.00       1.0  T
  18   -274.9553239 -0.604365E-01  0.349E-01    0.04       1.0  T
  19   -274.9463869  0.893694E-02  0.378E-01    0.02       1.0  T
  20   -274.9608430 -0.144561E-01  0.298E-01    0.03       1.0  T
  21   -274.9894212 -0.285782E-01  0.318E-02    0.04       1.0  T
  22   -274.9897166 -0.295308E-03  0.239E-02    0.04       1.0  T
  23   -274.9897272 -0.106161E-04  0.219E-02    0.04       1.0  T
  24   -274.9893733  0.353879E-03  0.387E-02    0.04       1.0  T
  25   -274.9897973 -0.424028E-03  0.108E-02    0.04       1.0  T
  26   -274.9898308 -0.334403E-04  0.230E-03    0.04       3.8  T
  27   -274.9898292  0.151746E-05  0.311E-03    0.04       2.8  T
  28   -274.9898319 -0.262703E-05  0.107E-03    0.04       8.1  T
  29   -274.9898321 -0.184588E-06  0.745E-04    0.04      11.6  T
  30   -274.9898322 -0.143591E-06  0.374E-04    0.04      23.1  T
  31   -274.9898322 -0.424911E-07  0.157E-04    0.04      55.0  T
  32   -274.9898322 -0.857193E-08  0.335E-05    0.04     257.5  T

   *** convergence criteria satisfied after 32 iterations ***

         #    Occupation            Energy/Eh            Energy/eV
      -------------------------------------------------------------
         1        2.0000           -1.0297677             -28.0214
       ...           ...                  ...                  ...
       230        2.0000           -0.4108813             -11.1806
       231        2.0000           -0.4095781             -11.1452
       232        2.0000           -0.4094599             -11.1420
       233        2.0000           -0.4093563             -11.1392
       234        1.9501           -0.4015193             -10.9259
       235        1.6010           -0.3993572             -10.8671
       236        1.5979           -0.3993479             -10.8668 (HOMO)
       237        0.8511           -0.3977521             -10.8234 (LUMO)
       238                         -0.3773218             -10.2675
       239                         -0.3575235              -9.7287
       240                         -0.3568248              -9.7097
       241                         -0.3468390              -9.4380
       ...                                ...                  ...
       490                          4.9246731             134.0072
      -------------------------------------------------------------
                  HL-Gap            0.0015958 Eh            0.0434 eV
             Fermi-level           -0.3980371 Eh          -10.8311 eV

 SCC (total)                   0 d,  0 h,  0 min,  3.598 sec
 SCC setup                      ...        0 min,  0.007 sec (  0.197%)
 Dispersion                     ...        0 min,  0.005 sec (  0.142%)
 classical contributions        ...        0 min,  0.002 sec (  0.054%)
 integral evaluation            ...        0 min,  0.181 sec (  5.038%)
 iterations                     ...        0 min,  2.831 sec ( 78.696%)
 molecular gradient             ...        0 min,  0.551 sec ( 15.301%)
 printout                       ...        0 min,  0.021 sec (  0.571%)

         :::::::::::::::::::::::::::::::::::::::::::::::::::::
         ::                     SUMMARY                     ::
         :::::::::::::::::::::::::::::::::::::::::::::::::::::
         :: total energy            -270.561486090665 Eh    ::
         :: gradient norm              3.107754278106 Eh/a0 ::
         :: HOMO-LUMO gap              0.043423650577 eV    ::
         ::.................................................::
         :: SCC energy              -274.989832249129 Eh    ::
         :: -> electrostatic           0.559207329033 Eh    ::
         :: repulsion energy           4.547824513112 Eh    ::
         :: dispersion energy         -0.119478354649 Eh    ::
         :: halogen bond corr.         0.000000000000 Eh    ::
         :: add. restraining           0.000000000000 Eh    ::
         :: total charge               0.000000000000 e     ::
         :::::::::::::::::::::::::::::::::::::::::::::::::::::

      ----------------------------------------------------------- 
     |                   =====================                   |
     |                        A N C O P T                        |
     |                   =====================                   |
     |               Approximate Normal Coordinate               |
     |                Rational Function Optimizer                |
      ----------------------------------------------------------- 

          ...................................................
          :                      SETUP                      :
          :.................................................:
          :   optimization level            normal          :
          :   max. optcycles                   402          :
          :   ANC micro-cycles                  20          :
          :   degrees of freedom               396          :
          :.................................................:
          :   RF solver                   davidson          :
          :   write xtbopt.log                true          :
          :   linear?                        false          :
          :   energy convergence         0.5000000E-05 Eh   :
          :   grad. convergence          0.1000000E-02 Eh/α :
          :   maximium RF displ.         1.0000000          :
          :   Hlow (freq-cutoff)         0.1000000E-01      :
          :   Hmax (freq-cutoff)         5.0000000          :
          :   S6 in model hess.         20.0000000          :
          ...................................................

generating ANC from model Hessian ...
Using Lindh-Hessian (1995)
 Shifting diagonal of input Hessian by    1.0035588409227397E-002
 Lowest  eigenvalues of input Hessian
    0.010000    0.010019    0.010028    0.000000    0.000000    0.000000
    0.000000    0.000000    0.000000    0.010052    0.010059    0.010098
    0.010114    0.010142    0.010178    0.010311    0.010343    0.010362
 Highest eigenvalues
    2.703953    2.703955    3.136613    3.529019    4.344996    4.349180


........................................................................
.............................. CYCLE    1 ..............................
........................................................................
   1   -274.9898322 -0.274990E+03  0.400E-05    0.04       0.0  T
   2   -274.9898298  0.241152E-05  0.266E-03    0.04       3.2  T
   3   -274.9898322 -0.239556E-05  0.218E-04    0.04      39.7  T
   4   -274.9898322 -0.108759E-07  0.127E-04    0.04      67.9  T
   5   -274.9898322 -0.375064E-08  0.701E-05    0.04     123.3  T
     SCC iter.                  ...        0 min,  0.484 sec
     gradient                   ...        0 min,  0.608 sec
 * total energy  :  -270.5614861 Eh     change        0.1559897E-08 Eh
   gradient norm :     3.1077548 Eh/α   predicted     0.0000000E+00 (-100.00%)
   displ. norm   :     0.5947086 α      lambda       -0.1774235E+01
   maximum displ.:     0.4627916 α      in ANC's #396, #388, #318, ...

........................................................................
.............................. CYCLE    2 ..............................
........................................................................
   1   -275.1130622 -0.275113E+03  0.352E-01    0.00       0.0  T
   2   -274.9385229  0.174539E+00  0.101E+00    0.14       1.0  T
   3   -275.0936682 -0.155145E+00  0.378E-01    0.02       1.0  T
   4   -274.6561953  0.437473E+00  0.123E+00    0.11       1.0  T
   5   -275.0191055 -0.362910E+00  0.576E-01    0.02       1.0  T
   6   -274.7797454  0.239360E+00  0.101E+00    0.04       1.0  T
   7   -275.1185979 -0.338853E+00  0.210E-01    0.01       1.0  T
   8   -275.1034766  0.151213E-01  0.295E-01    0.01       1.0  T
   9   -275.1007211  0.275558E-02  0.305E-01    0.01       1.0  T
  10   -275.1171403 -0.164193E-01  0.217E-01    0.01       1.0  T
  11   -275.1214009 -0.426059E-02  0.187E-01    0.01       1.0  T
  12   -275.1323646 -0.109637E-01  0.652E-02    0.01       1.0  T
  13   -275.1338545 -0.148984E-02  0.732E-03    0.01       1.2  T
  14   -275.1338215  0.329271E-04  0.122E-02    0.01       1.0  T
  15   -275.1338669 -0.453284E-04  0.450E-03    0.01       1.9  T
  16   -275.1338724 -0.550544E-05  0.205E-03    0.01       4.2  T
  17   -275.1338738 -0.140891E-05  0.302E-04    0.01      28.6  T
  18   -275.1338736  0.165310E-06  0.738E-04    0.01      11.7  T
  19   -275.1338738 -0.192160E-06  0.936E-06    0.01     923.3  T
  20   -275.1338738  0.213076E-07  0.246E-04    0.01      35.1  T
  21   -275.1338738 -0.194938E-07  0.720E-05    0.01     120.0  T
     SCC iter.                  ...        0 min,  1.977 sec
     gradient                   ...        0 min,  0.630 sec
 * total energy  :  -271.3795878 Eh     change       -0.8181017E+00 Eh
   gradient norm :     0.5569513 Eh/α   predicted    -0.1200873E+01 (  46.79%)
   displ. norm   :     0.4619536 α      lambda       -0.2013426E+00
   maximum displ.:     0.0983238 α      in ANC's #274, #136, #314, ...

........................................................................
.............................. CYCLE    3 ..............................
........................................................................
   1   -275.1863110 -0.275186E+03  0.136E-01    0.01       0.0  T
   2   -275.1627764  0.235347E-01  0.362E-01    0.05       1.0  T
   3   -275.0574492  0.105327E+00  0.635E-01    0.06       1.0  T
   4   -274.7981340  0.259315E+00  0.109E+00    0.11       1.0  T
   5   -275.1815723 -0.383438E+00  0.160E-01    0.01       1.0  T
   6   -275.1818686 -0.296299E-03  0.148E-01    0.01       1.0  T
   7   -275.1753178  0.655076E-02  0.203E-01    0.02       1.0  T
   8   -275.1775759 -0.225804E-02  0.186E-01    0.02       1.0  T
   9   -275.1796194 -0.204359E-02  0.169E-01    0.02       1.0  T
  10   -275.1885034 -0.888391E-02  0.535E-02    0.01       1.0  T
  11   -275.1892953 -0.791937E-03  0.239E-02    0.01       1.0  T
  12   -275.1894887 -0.193392E-03  0.238E-03    0.01       3.6  T
  13   -275.1894906 -0.189184E-05  0.290E-04    0.01      29.8  T
  14   -275.1894905  0.554577E-07  0.490E-04    0.01      17.6  T
  15   -275.1894906 -0.379712E-07  0.320E-04    0.01      27.0  T
  16   -275.1894906 -0.303423E-07  0.730E-05    0.01     118.4  T
  17   -275.1894906 -0.112777E-08  0.294E-05    0.01     293.8  T
     SCC iter.                  ...        0 min,  1.648 sec
     gradient                   ...        0 min,  0.640 sec
 * total energy  :  -271.5185355 Eh     change       -0.1389477E+00 Eh
   gradient norm :     0.3357991 Eh/α   predicted    -0.1221547E+00 ( -12.09%)
   displ. norm   :     0.5219553 α      lambda       -0.1097749E+00
   maximum displ.:     0.1206902 α      in ANC's #136, #108, #91, ...

........................................................................
.............................. CYCLE    4 ..............................
........................................................................
   1   -275.2925542 -0.275293E+03  0.158E-01    0.01       0.0  T
   2   -275.2437913  0.487630E-01  0.507E-01    0.06       1.0  T
   3   -275.2532717 -0.948047E-02  0.381E-01    0.03       1.0  T
   4   -274.8316092  0.421663E+00  0.120E+00    0.20       1.0  T
   5   -275.2721795 -0.440570E+00  0.275E-01    0.02       1.0  T
   6   -275.2286964  0.434832E-01  0.451E-01    0.04       1.0  T
   7   -275.1380489  0.906475E-01  0.687E-01    0.06       1.0  T
   8   -275.2039963 -0.659473E-01  0.525E-01    0.05       1.0  T
   9   -275.2788389 -0.748427E-01  0.233E-01    0.02       1.0  T
  10   -275.2960280 -0.171890E-01  0.538E-02    0.01       1.0  T
  11   -275.2969020 -0.874004E-03  0.166E-02    0.01       1.0  T
  12   -275.2969706 -0.686569E-04  0.790E-03    0.01       1.1  T
  13   -275.2969774 -0.676248E-05  0.623E-03    0.01       1.4  T
  14   -275.2969882 -0.108529E-04  0.235E-03    0.01       3.7  T
  15   -275.2969896 -0.140960E-05  0.104E-03    0.01       8.3  T
  16   -275.2969893  0.322431E-06  0.142E-03    0.01       6.1  T
  17   -275.2969900 -0.651198E-06  0.247E-04    0.01      35.0  T
  18   -275.2969900 -0.113292E-07  0.160E-04    0.01      54.0  T
  19   -275.2969900 -0.565080E-08  0.925E-05    0.01      93.4  T
     SCC iter.                  ...        0 min,  1.856 sec
     gradient                   ...        0 min,  0.639 sec
 * total energy  :  -271.5944647 Eh     change       -0.7592917E-01 Eh
   gradient norm :     0.1484745 Eh/α   predicted    -0.6984093E-01 (  -8.02%)
   displ. norm   :     0.5770938 α      lambda       -0.4241183E-01
   maximum displ.:     0.1807618 α      in ANC's #91, #88, #108, ...

........................................................................
.............................. CYCLE    5 ..............................
........................................................................
   1   -275.3438378 -0.275344E+03  0.189E-01    0.00       0.0  T
   2   -275.0914139  0.252424E+00  0.110E+00    0.37       1.0  T
   3   -275.3506486 -0.259235E+00  0.525E-02    0.01       1.0  T
   4   -275.0922227  0.258426E+00  0.879E-01    0.09       1.0  T
   5   -275.3493201 -0.257097E+00  0.811E-02    0.01       1.0  T
   6   -275.3510568 -0.173663E-02  0.351E-02    0.01       1.0  T
   7   -275.3513698 -0.313016E-03  0.135E-02    0.01       1.0  T
   8   -275.3513885 -0.187230E-04  0.920E-03    0.01       1.0  T
   9   -275.3514087 -0.201566E-04  0.456E-03    0.01       1.9  T
  10   -275.3514126 -0.397750E-05  0.167E-03    0.01       5.2  T
  11   -275.3514131 -0.435464E-06  0.981E-04    0.01       8.8  T
  12   -275.3514133 -0.194012E-06  0.301E-04    0.01      28.7  T
  13   -275.3514133  0.288549E-08  0.347E-04    0.01      24.9  T
  14   -275.3514133 -0.237751E-07  0.987E-05    0.01      87.5  T
  15   -275.3514133 -0.193643E-08  0.226E-05    0.01     381.8  T
     SCC iter.                  ...        0 min,  1.466 sec
     gradient                   ...        0 min,  0.608 sec
 * total energy  :  -271.6255193 Eh     change       -0.3105463E-01 Eh
   gradient norm :     0.0783807 Eh/α   predicted    -0.2826828E-01 (  -8.97%)
   displ. norm   :     0.5994013 α      lambda       -0.2159540E-01
   maximum displ.:     0.1621519 α      in ANC's #72, #91, #88, ...

........................................................................
.............................. CYCLE    6 ..............................
........................................................................
   1   -275.3590587 -0.275359E+03  0.189E-01    0.00       0.0  T
   2   -275.0933193  0.265739E+00  0.113E+00    0.35       1.0  T
   3   -275.3631970 -0.269878E+00  0.114E-01    0.00       1.0  T
   4   -275.2540919  0.109105E+00  0.576E-01    0.06       1.0  T
   5   -275.3654105 -0.111319E+00  0.463E-02    0.00       1.0  T
   6   -275.3660196 -0.609167E-03  0.813E-03    0.00       1.1  T
   7   -275.3660304 -0.107252E-04  0.484E-03    0.00       1.8  T
   8   -275.3660325 -0.208227E-05  0.366E-03    0.00       2.4  T
   9   -275.3660354 -0.289689E-05  0.741E-04    0.00      11.7  T
  10   -275.3660344  0.952189E-06  0.243E-03    0.00       3.6  T
  11   -275.3660352 -0.848552E-06  0.124E-03    0.00       7.0  T
  12   -275.3660356 -0.316289E-06  0.173E-04    0.00      49.8  T
  13   -275.3660356 -0.327594E-08  0.164E-04    0.00      52.7  T
     SCC iter.                  ...        0 min,  1.307 sec
     gradient                   ...        0 min,  0.652 sec
 * total energy  :  -271.6419085 Eh     change       -0.1638918E-01 Eh
   gradient norm :     0.0508399 Eh/α   predicted    -0.1467714E-01 ( -10.45%)
   displ. norm   :     0.6224674 α      lambda       -0.1261720E-01
   maximum displ.:     0.2349336 α      in ANC's #22, #26, #72, ...

........................................................................
.............................. CYCLE    7 ..............................
........................................................................
   1   -275.3605913 -0.275361E+03  0.162E-01    0.00       0.0  T
   2   -275.0984232  0.262168E+00  0.111E+00    0.30       1.0  T
   3   -275.3622715 -0.263848E+00  0.124E-01    0.00       1.0  T
   4   -275.2044579  0.157814E+00  0.689E-01    0.08       1.0  T
   5   -275.3646701 -0.160212E+00  0.649E-02    0.00       1.0  T
   6   -275.3654638 -0.793736E-03  0.217E-02    0.00       1.0  T
   7   -275.3655493 -0.854297E-04  0.793E-03    0.00       1.1  T
   8   -275.3655593 -0.100307E-04  0.334E-03    0.00       2.6  T
   9   -275.3655624 -0.306901E-05  0.601E-04    0.00      14.4  T
  10   -275.3655624 -0.254444E-07  0.433E-04    0.00      19.9  T
  11   -275.3655624  0.322639E-07  0.731E-04    0.00      11.8  T
  12   -275.3655624 -0.428463E-07  0.548E-04    0.00      15.8  T
  13   -275.3655624 -0.488674E-07  0.230E-04    0.00      37.5  T
  14   -275.3655625 -0.985176E-08  0.624E-05    0.00     138.4  T
  15   -275.3655625 -0.639488E-09  0.241E-05    0.00     358.0  T
     SCC iter.                  ...        0 min,  1.371 sec
     gradient                   ...        0 min,  0.504 sec
 * total energy  :  -271.6516768 Eh     change       -0.9768349E-02 Eh
   gradient norm :     0.0378829 Eh/α   predicted    -0.8752992E-02 ( -10.39%)
   displ. norm   :     0.6447955 α      lambda       -0.8136950E-02
   maximum displ.:     0.3245459 α      in ANC's #22, #26, #28, ...

........................................................................
.............................. CYCLE    8 ..............................
........................................................................
   1   -275.3604055 -0.275360E+03  0.120E-01    0.00       0.0  T
   2   -275.1197950  0.240610E+00  0.107E+00    0.21       1.0  T
   3   -275.3606908 -0.240896E+00  0.106E-01    0.00       1.0  T
   4   -275.1938654  0.166825E+00  0.705E-01    0.08       1.0  T
   5   -275.3621222 -0.168257E+00  0.684E-02    0.00       1.0  T
   6   -275.3628112 -0.689031E-03  0.372E-02    0.00       1.0  T
   7   -275.3629938 -0.182509E-03  0.221E-02    0.00       1.0  T
   8   -275.3630923 -0.985793E-04  0.385E-03    0.00       2.2  T
   9   -275.3630935 -0.115815E-05  0.379E-03    0.00       2.3  T
  10   -275.3630967 -0.321934E-05  0.907E-04    0.00       9.5  T
  11   -275.3630969 -0.167175E-06  0.460E-04    0.00      18.8  T
  12   -275.3630969 -0.394718E-07  0.219E-04    0.00      39.4  T
  13   -275.3630969 -0.122300E-07  0.107E-04    0.00      80.7  T
  14   -275.3630969 -0.268005E-08  0.491E-05    0.00     175.8  T
     SCC iter.                  ...        0 min,  1.361 sec
     gradient                   ...        0 min,  0.630 sec
 * total energy  :  -271.6581690 Eh     change       -0.6492159E-02 Eh
   gradient norm :     0.0277532 Eh/α   predicted    -0.5760003E-02 ( -11.28%)
   displ. norm   :     0.6753738 α      lambda       -0.5927593E-02
   maximum displ.:     0.4015215 α      in ANC's #22, #26, #28, ...

........................................................................
.............................. CYCLE    9 ..............................
........................................................................
   1   -275.3615789 -0.275362E+03  0.731E-02    0.00       0.0  T
   2   -275.2013735  0.160205E+00  0.869E-01    0.10       1.0  T
   3   -275.3583341 -0.156961E+00  0.120E-01    0.01       1.0  T
   4   -275.3132153  0.451188E-01  0.382E-01    0.04       1.0  T
   5   -275.3619777 -0.487624E-01  0.529E-02    0.00       1.0  T
   6   -275.3622497 -0.272002E-03  0.379E-02    0.00       1.0  T
   7   -275.3623985 -0.148812E-03  0.264E-02    0.00       1.0  T
   8   -275.3625329 -0.134327E-03  0.758E-03    0.00       1.1  T
   9   -275.3625427 -0.983364E-05  0.311E-03    0.00       2.8  T
  10   -275.3625446 -0.186830E-05  0.186E-03    0.00       4.6  T
  11   -275.3625456 -0.103383E-05  0.564E-04    0.00      15.3  T
  12   -275.3625456 -0.198588E-08  0.479E-04    0.00      18.0  T
  13   -275.3625457 -0.702807E-07  0.979E-05    0.00      88.3  T
  14   -275.3625457 -0.209104E-08  0.583E-05    0.00     148.2  T
     SCC iter.                  ...        0 min,  1.295 sec
     gradient                   ...        0 min,  0.605 sec
 * total energy  :  -271.6630159 Eh     change       -0.4846909E-02 Eh
   gradient norm :     0.0196783 Eh/α   predicted    -0.4315682E-02 ( -10.96%)
   displ. norm   :     0.6995220 α      lambda       -0.4571456E-02
   maximum displ.:     0.4550964 α      in ANC's #22, #26, #28, ...

........................................................................
.............................. CYCLE   10 ..............................
........................................................................
   1   -275.3622755 -0.275362E+03  0.260E-02    0.00       0.0  T
   2   -275.3481304  0.141450E-01  0.247E-01    0.01       1.0  T
   3   -275.2920651  0.560653E-01  0.453E-01    0.05       1.0  T
   4   -275.3609065 -0.688414E-01  0.695E-02    0.01       1.0  T
   5   -275.3623021 -0.139559E-02  0.189E-02    0.00       1.0  T
   6   -275.3623547 -0.526141E-04  0.119E-02    0.00       1.0  T
   7   -275.3623658 -0.110659E-04  0.848E-03    0.00       1.0  T
   8   -275.3623823 -0.165102E-04  0.177E-03    0.00       4.9  T
   9   -275.3623826 -0.266407E-06  0.127E-03    0.00       6.8  T
  10   -275.3623828 -0.209607E-06  0.919E-04    0.00       9.4  T
  11   -275.3623830 -0.250081E-06  0.210E-04    0.00      41.1  T
  12   -275.3623830  0.125729E-07  0.259E-04    0.00      33.4  T
  13   -275.3623830 -0.206662E-07  0.537E-05    0.00     160.9  T
  14   -275.3623830 -0.704631E-09  0.205E-05    0.00     422.0  T
     SCC iter.                  ...        0 min,  1.283 sec
     gradient                   ...        0 min,  0.555 sec
 * total energy  :  -271.6667974 Eh     change       -0.3781527E-02 Eh
   gradient norm :     0.0148244 Eh/α   predicted    -0.3404219E-02 (  -9.98%)
   displ. norm   :     0.6864325 α      lambda       -0.3443419E-02
   maximum displ.:     0.4545674 α      in ANC's #22, #26, #28, ...

........................................................................
.............................. CYCLE   11 ..............................
........................................................................
   1   -275.3598369 -0.275360E+03  0.164E-02    0.00       0.0  T
   2   -275.3501601  0.967682E-02  0.176E-01    0.01       1.0  T
   3   -275.2997780  0.503822E-01  0.420E-01    0.04       1.0  T
   4   -275.3592198 -0.594418E-01  0.442E-02    0.01       1.0  T
   5   -275.3597913 -0.571477E-03  0.167E-02    0.00       1.0  T
   6   -275.3598437 -0.523985E-04  0.117E-02    0.00       1.0  T
   7   -275.3598850 -0.413339E-04  0.387E-03    0.00       2.2  T
   8   -275.3598892 -0.416597E-05  0.159E-03    0.00       5.4  T
   9   -275.3598894 -0.232856E-06  0.138E-03    0.00       6.3  T
  10   -275.3598900 -0.628199E-06  0.300E-04    0.00      28.8  T
  11   -275.3598900 -0.582008E-08  0.262E-04    0.00      33.0  T
  12   -275.3598900 -0.766755E-08  0.220E-04    0.00      39.3  T
  13   -275.3598901 -0.156167E-07  0.545E-05    0.00     158.4  T
  14   -275.3598901 -0.100954E-08  0.231E-06    0.00    3736.7  T
     SCC iter.                  ...        0 min,  1.371 sec
     gradient                   ...        0 min,  0.634 sec
 * total energy  :  -271.6696474 Eh     change       -0.2850035E-02 Eh
   gradient norm :     0.0155707 Eh/α   predicted    -0.2532974E-02 ( -11.12%)
   displ. norm   :     0.6634576 α      lambda       -0.2640619E-02
   maximum displ.:     0.4523682 α      in ANC's #22, #26, #28, ...

........................................................................
.............................. CYCLE   12 ..............................
........................................................................
   1   -275.3569344 -0.275357E+03  0.330E-02    0.01       0.0  T
   2   -275.3401131  0.168213E-01  0.237E-01    0.02       1.0  T
   3   -275.1084331  0.231680E+00  0.854E-01    0.11       1.0  T
   4   -275.3568941 -0.248461E+00  0.268E-02    0.01       1.0  T
   5   -275.3569027 -0.863107E-05  0.264E-02    0.01       1.0  T
   6   -275.3569315 -0.287931E-04  0.244E-02    0.01       1.0  T
   7   -275.3571227 -0.191217E-03  0.688E-03    0.01       1.3  T
   8   -275.3571391 -0.163595E-04  0.472E-04    0.01      18.3  T
   9   -275.3571376  0.153208E-05  0.214E-03    0.01       4.0  T
  10   -275.3571388 -0.120592E-05  0.106E-03    0.01       8.1  T
  11   -275.3571391 -0.371980E-06  0.251E-04    0.01      34.4  T
  12   -275.3571392 -0.102931E-07  0.185E-04    0.01      46.8  T
  13   -275.3571392 -0.660322E-08  0.121E-04    0.01      71.1  T
     SCC iter.                  ...        0 min,  1.157 sec
     gradient                   ...        0 min,  0.588 sec
 * total energy  :  -271.6716792 Eh     change       -0.2031771E-02 Eh
   gradient norm :     0.0140491 Eh/α   predicted    -0.1901486E-02 (  -6.41%)
   displ. norm   :     0.6905148 α      lambda       -0.2303163E-02
   maximum displ.:     0.4534582 α      in ANC's #22, #26, #28, ...

........................................................................
.............................. CYCLE   13 ..............................
........................................................................
   1   -275.3447832 -0.275345E+03  0.290E-02    0.01       0.0  T
   2   -275.3421835  0.259979E-02  0.111E-01    0.00       1.0  T
   3   -275.3226991  0.194844E-01  0.254E-01    0.03       1.0  T
   4   -275.3443148 -0.216157E-01  0.429E-02    0.01       1.0  T
   5   -275.3449065 -0.591771E-03  0.569E-03    0.01       1.5  T
   6   -275.3449109 -0.433064E-05  0.390E-03    0.01       2.2  T
   7   -275.3449147 -0.378449E-05  0.123E-03    0.01       7.0  T
   8   -275.3449150 -0.324493E-06  0.384E-04    0.01      22.5  T
   9   -275.3449150 -0.523943E-07  0.243E-04    0.01      35.6  T
  10   -275.3449150 -0.692785E-08  0.168E-04    0.01      51.3  T
  11   -275.3449151 -0.500381E-08  0.326E-05    0.01     264.6  T
     SCC iter.                  ...        0 min,  1.055 sec
     gradient                   ...        0 min,  0.606 sec
 * total energy  :  -271.6726027 Eh     change       -0.9235014E-03 Eh
   gradient norm :     0.0356937 Eh/α   predicted    -0.1700669E-02 (  84.15%)
   displ. norm   :     0.3278082 α      lambda       -0.1610995E-02
   maximum displ.:     0.2347278 α      in ANC's #22, #26, #20, ...

........................................................................
.............................. CYCLE   14 ..............................
........................................................................
   1   -275.3468521 -0.275347E+03  0.129E-02    0.01       0.0  T
   2   -275.3357575  0.110946E-01  0.180E-01    0.02       1.0  T
   3   -275.3467956 -0.110381E-01  0.165E-02    0.01       1.0  T
   4   -275.3463894  0.406191E-03  0.444E-02    0.01       1.0  T
   5   -275.3464540 -0.645177E-04  0.340E-02    0.01       1.0  T
   6   -275.3468338 -0.379800E-03  0.856E-03    0.01       1.0  T
   7   -275.3468373 -0.358354E-05  0.796E-03    0.01       1.1  T
   8   -275.3468571 -0.197359E-04  0.265E-03    0.01       3.3  T
   9   -275.3468595 -0.244303E-05  0.261E-04    0.01      33.1  T
  10   -275.3468595  0.377035E-07  0.421E-04    0.01      20.5  T
  11   -275.3468595 -0.471212E-07  0.207E-04    0.01      41.8  T
  12   -275.3468595 -0.147038E-07  0.262E-05    0.01     329.8  T
  13   -275.3468595 -0.216232E-09  0.620E-06    0.01    1393.4  T
     SCC iter.                  ...        0 min,  1.281 sec
     gradient                   ...        0 min,  0.653 sec
 * total energy  :  -271.6736200 Eh     change       -0.1017333E-02 Eh
   gradient norm :     0.0116696 Eh/α   predicted    -0.8920697E-03 ( -12.31%)
   displ. norm   :     0.3771934 α      lambda       -0.5948829E-03
   maximum displ.:     0.2584442 α      in ANC's #22, #20, #8, ...

........................................................................
.............................. CYCLE   15 ..............................
........................................................................
   1   -275.3433913 -0.275343E+03  0.519E-03    0.01       0.0  T
   2   -275.3362477  0.714370E-02  0.144E-01    0.02       1.0  T
   3   -275.3432680 -0.702037E-02  0.193E-02    0.01       1.0  T
   4   -275.3433117 -0.437133E-04  0.182E-02    0.01       1.0  T
   5   -275.3433935 -0.817658E-04  0.290E-03    0.01       3.0  T
   6   -275.3433960 -0.253165E-05  0.862E-04    0.01      10.0  T
   7   -275.3433884  0.767770E-05  0.475E-03    0.01       1.8  T
   8   -275.3433961 -0.774502E-05  0.519E-04    0.01      16.6  T
   9   -275.3433962 -0.639943E-07  0.315E-04    0.01      27.5  T
  10   -275.3433962 -0.132025E-07  0.249E-04    0.01      34.7  T
  11   -275.3433962 -0.188455E-07  0.881E-05    0.01      98.0  T
  12   -275.3433962 -0.260036E-08  0.187E-05    0.01     461.0  T
     SCC iter.                  ...        0 min,  1.209 sec
     gradient                   ...        0 min,  0.659 sec
 * total energy  :  -271.6740688 Eh     change       -0.4487656E-03 Eh
   gradient norm :     0.0090311 Eh/α   predicted    -0.3397629E-03 ( -24.29%)
   displ. norm   :     0.4569846 α      lambda       -0.6617546E-03
   maximum displ.:     0.2824647 α      in ANC's #22, #8, #12, ...

........................................................................
.............................. CYCLE   16 ..............................
........................................................................
   1   -275.3411066 -0.275341E+03  0.140E-02    0.01       0.0  T
   2   -275.3104549  0.306517E-01  0.306E-01    0.03       1.0  T
   3   -275.3175580 -0.710304E-02  0.266E-01    0.03       1.0  T
   4   -275.3406239 -0.230660E-01  0.398E-02    0.01       1.0  T
   5   -275.3411357 -0.511762E-03  0.583E-03    0.01       1.5  T
   6   -275.3411421 -0.642841E-05  0.364E-03    0.01       2.4  T
   7   -275.3411432 -0.111471E-05  0.247E-03    0.01       3.5  T
   8   -275.3411441 -0.864382E-06  0.123E-03    0.01       7.0  T
   9   -275.3411443 -0.215252E-06  0.906E-04    0.01       9.5  T
  10   -275.3411446 -0.278808E-06  0.118E-04    0.01      73.2  T
  11   -275.3411446  0.262033E-07  0.299E-04    0.01      28.9  T
  12   -275.3411446 -0.293280E-07  0.649E-05    0.01     133.2  T
     SCC iter.                  ...        0 min,  1.214 sec
     gradient                   ...        0 min,  0.657 sec
 * total energy  :  -271.6745310 Eh     change       -0.4621882E-03 Eh
   gradient norm :     0.0072174 Eh/α   predicted    -0.3999767E-03 ( -13.46%)
   displ. norm   :     0.3870099 α      lambda       -0.5322474E-03
   maximum displ.:     0.1646159 α      in ANC's #22, #8, #12, ...

........................................................................
.............................. CYCLE   17 ..............................
........................................................................
   1   -275.3386706 -0.275339E+03  0.118E-02    0.00       0.0  T
   2   -275.3364484  0.222217E-02  0.996E-02    0.01       1.0  T
   3   -275.3274779  0.897052E-02  0.181E-01    0.02       1.0  T
   4   -275.3383744 -0.108965E-01  0.313E-02    0.01       1.0  T
   5   -275.3386865 -0.312192E-03  0.604E-03    0.01       1.4  T
   6   -275.3386922 -0.561985E-05  0.402E-03    0.01       2.1  T
   7   -275.3386856  0.657527E-05  0.546E-03    0.01       1.6  T
   8   -275.3386947 -0.910261E-05  0.143E-03    0.01       6.0  T
   9   -275.3386953 -0.623058E-06  0.537E-04    0.01      16.1  T
  10   -275.3386954 -0.964076E-07  0.825E-05    0.01     104.7  T
  11   -275.3386954 -0.106365E-08  0.429E-05    0.01     201.2  T
     SCC iter.                  ...        0 min,  1.099 sec
     gradient                   ...        0 min,  0.646 sec
 * total energy  :  -271.6748920 Eh     change       -0.3610160E-03 Eh
   gradient norm :     0.0074954 Eh/α   predicted    -0.3059834E-03 ( -15.24%)
   displ. norm   :     0.3195659 α      lambda       -0.3505936E-03
   maximum displ.:     0.1480149 α      in ANC's #8, #12, #14, ...

........................................................................
.............................. CYCLE   18 ..............................
........................................................................
   1   -275.3374845 -0.275337E+03  0.718E-03    0.00       0.0  T
   2   -275.3045146  0.329699E-01  0.311E-01    0.03       1.0  T
   3   -275.3367490 -0.322344E-01  0.508E-02    0.01       1.0  T
   4   -275.3374457 -0.696763E-03  0.135E-02    0.00       1.0  T
   5   -275.3374944 -0.486731E-04  0.270E-03    0.00       3.2  T
   6   -275.3374958 -0.144928E-05  0.176E-03    0.00       4.9  T
   7   -275.3374958  0.385695E-07  0.138E-03    0.00       6.3  T
   8   -275.3374964 -0.615709E-06  0.128E-04    0.00      67.3  T
   9   -275.3374964 -0.639943E-08  0.881E-05    0.00      98.1  T
     SCC iter.                  ...        0 min,  0.863 sec
     gradient                   ...        0 min,  0.589 sec
 * total energy  :  -271.6751539 Eh     change       -0.2618342E-03 Eh
   gradient norm :     0.0091618 Eh/α   predicted    -0.1931991E-03 ( -26.21%)
   displ. norm   :     0.4459598 α      lambda       -0.5116999E-03
   maximum displ.:     0.2100492 α      in ANC's #8, #12, #26, ...

........................................................................
.............................. CYCLE   19 ..............................
........................................................................
   1   -275.3358412 -0.275336E+03  0.179E-02    0.00       0.0  T
   2   -275.0891474  0.246694E+00  0.849E-01    0.10       1.0  T
   3   -275.3358959 -0.246748E+00  0.116E-02    0.00       1.0  T
   4   -275.3353747  0.521247E-03  0.492E-02    0.00       1.0  T
   5   -275.3359163 -0.541689E-03  0.452E-03    0.00       1.9  T
   6   -275.3359205 -0.419851E-05  0.271E-03    0.00       3.2  T
   7   -275.3359208 -0.298811E-06  0.226E-03    0.00       3.8  T
   8   -275.3359223 -0.147357E-05  0.900E-04    0.00       9.6  T
   9   -275.3359226 -0.256921E-06  0.301E-04    0.00      28.7  T
  10   -275.3359226 -0.818613E-08  0.258E-04    0.00      33.5  T
  11   -275.3359226 -0.195220E-07  0.983E-05    0.00      87.9  T
  12   -275.3359226 -0.320279E-08  0.190E-05    0.00     453.9  T
     SCC iter.                  ...        0 min,  1.175 sec
     gradient                   ...        0 min,  0.593 sec
 * total energy  :  -271.6752215 Eh     change       -0.6766863E-04 Eh
   gradient norm :     0.0219026 Eh/α   predicted    -0.3067369E-03 ( 353.29%)
   displ. norm   :     0.2165037 α      lambda       -0.6782610E-03
   maximum displ.:     0.1024742 α      in ANC's #12, #8, #14, ...

........................................................................
.............................. CYCLE   20 ..............................
........................................................................
   1   -275.3368908 -0.275337E+03  0.171E-02    0.00       0.0  T
   2   -275.1000026  0.236888E+00  0.832E-01    0.10       1.0  T
   3   -275.3366902 -0.236688E+00  0.328E-02    0.00       1.0  T
   4   -275.3363994  0.290832E-03  0.485E-02    0.01       1.0  T
   5   -275.3369447 -0.545311E-03  0.775E-03    0.00       1.1  T
   6   -275.3369359  0.873459E-05  0.900E-03    0.00       1.0  T
   7   -275.3369603 -0.244104E-04  0.339E-03    0.00       2.5  T
   8   -275.3369620 -0.168357E-05  0.250E-03    0.00       3.5  T
   9   -275.3369642 -0.215001E-05  0.135E-04    0.00      64.0  T
  10   -275.3369641  0.335387E-07  0.338E-04    0.00      25.5  T
  11   -275.3369642 -0.265371E-07  0.194E-04    0.00      44.5  T
  12   -275.3369642 -0.116275E-07  0.628E-05    0.00     137.5  T
     SCC iter.                  ...        0 min,  1.135 sec
     gradient                   ...        0 min,  0.595 sec
 * total energy  :  -271.6755958 Eh     change       -0.3742587E-03 Eh
   gradient norm :     0.0089653 Eh/α   predicted    -0.3550277E-03 (  -5.14%)
   displ. norm   :     0.1584297 α      lambda       -0.1835877E-03
   maximum displ.:     0.0841545 α      in ANC's #12, #8, #14, ...
 * RMSD in coord.:     0.5900416 α      energy gain  -0.1114110E+01 Eh

generating ANC from model Hessian ...
Using Lindh-Hessian (1995)
 Shifting diagonal of input Hessian by    1.0024006400300709E-002
 Lowest  eigenvalues of input Hessian
    0.010000    0.010010    0.010016    0.000000    0.000000    0.000000
    0.000000    0.000000    0.000000    0.010035    0.010037    0.010096
    0.010108    0.010171    0.010229    0.010381    0.010386    0.010393
 Highest eigenvalues
    2.833789    2.988909    3.574541    3.574671    3.667479    3.667661


........................................................................
.............................. CYCLE   21 ..............................
........................................................................
   1   -275.3380410 -0.275338E+03  0.292E-03    0.00       0.0  T
   2   -275.3373070  0.733969E-03  0.473E-02    0.01       1.0  T
   3   -275.3367047  0.602358E-03  0.628E-02    0.01       1.0  T
   4   -275.3380326 -0.132792E-02  0.580E-03    0.00       1.5  T
   5   -275.3380416 -0.898862E-05  0.184E-03    0.00       4.7  T
   6   -275.3380421 -0.502603E-06  0.135E-03    0.00       6.4  T
   7   -275.3380419  0.159555E-06  0.145E-03    0.00       5.9  T
   8   -275.3380426 -0.695806E-06  0.232E-04    0.00      37.2  T
   9   -275.3380427 -0.164267E-07  0.909E-05    0.00      95.1  T
  10   -275.3380426  0.644644E-08  0.164E-04    0.00      52.8  T
     SCC iter.                  ...        0 min,  0.938 sec
     gradient                   ...        0 min,  0.592 sec
 * total energy  :  -271.6757626 Eh     change       -0.1667958E-03 Eh
   gradient norm :     0.0080702 Eh/α   predicted     0.0000000E+00 (-100.00%)
   displ. norm   :     0.1007235 α      lambda       -0.2350657E-03
   maximum displ.:     0.0377632 α      in ANC's #20, #8, #33, ...

........................................................................
.............................. CYCLE   22 ..............................
........................................................................
   1   -275.3396809 -0.275340E+03  0.295E-03    0.00       0.0  T
   2   -275.3334728  0.620809E-02  0.135E-01    0.01       1.0  T
   3   -275.3396806 -0.620783E-02  0.311E-03    0.00       2.8  T
   4   -275.3396664  0.141995E-04  0.875E-03    0.00       1.0  T
   5   -275.3396822 -0.157616E-04  0.141E-03    0.00       6.1  T
   6   -275.3396828 -0.580365E-06  0.646E-04    0.00      13.4  T
   7   -275.3396828 -0.182592E-07  0.566E-04    0.00      15.3  T
   8   -275.3396829 -0.101867E-06  0.141E-04    0.00      61.1  T
   9   -275.3396829 -0.515467E-08  0.857E-05    0.00     100.8  T
     SCC iter.                  ...        0 min,  0.837 sec
     gradient                   ...        0 min,  0.582 sec
 * total energy  :  -271.6759337 Eh     change       -0.1711289E-03 Eh
   gradient norm :     0.0042814 Eh/α   predicted    -0.1187256E-03 ( -30.62%)
   displ. norm   :     0.2855718 α      lambda       -0.4612826E-03
   maximum displ.:     0.1150563 α      in ANC's #20, #8, #33, ...

........................................................................
.............................. CYCLE   23 ..............................
........................................................................
   1   -275.3429173 -0.275343E+03  0.795E-03    0.00       0.0  T
   2   -275.3098860  0.330313E-01  0.311E-01    0.03       1.0  T
   3   -275.3426883 -0.328022E-01  0.301E-02    0.00       1.0  T
   4   -275.3428396 -0.151360E-03  0.190E-02    0.00       1.0  T
   5   -275.3429302 -0.906169E-04  0.231E-03    0.00       3.7  T
   6   -275.3429315 -0.125771E-05  0.152E-03    0.00       5.7  T
   7   -275.3429314  0.990138E-07  0.141E-03    0.00       6.1  T
   8   -275.3429320 -0.638229E-06  0.262E-04    0.00      33.0  T
   9   -275.3429321 -0.162616E-07  0.196E-04    0.00      44.0  T
  10   -275.3429321 -0.734099E-08  0.128E-04    0.00      67.3  T
     SCC iter.                  ...        0 min,  0.883 sec
     gradient                   ...        0 min,  0.547 sec
 * total energy  :  -271.6761529 Eh     change       -0.2192178E-03 Eh
   gradient norm :     0.0085045 Eh/α   predicted    -0.2494507E-03 (  13.79%)
   displ. norm   :     0.2744035 α      lambda       -0.3883562E-03
   maximum displ.:     0.1161917 α      in ANC's #8, #20, #33, ...

........................................................................
.............................. CYCLE   24 ..............................
........................................................................
   1   -275.3428032 -0.275343E+03  0.461E-03    0.00       0.0  T
   2   -275.3415804  0.122278E-02  0.600E-02    0.01       1.0  T
   3   -275.3424841 -0.903670E-03  0.310E-02    0.01       1.0  T
   4   -275.3427477 -0.263643E-03  0.157E-02    0.00       1.0  T
   5   -275.3428073 -0.595510E-04  0.145E-03    0.00       6.0  T
   6   -275.3428076 -0.360516E-06  0.985E-04    0.00       8.8  T
   7   -275.3428074  0.256457E-06  0.125E-03    0.00       6.9  T
   8   -275.3428078 -0.476054E-06  0.363E-04    0.00      23.8  T
   9   -275.3428079 -0.375304E-07  0.189E-04    0.00      45.8  T
  10   -275.3428079  0.185844E-08  0.202E-04    0.00      42.9  T
  11   -275.3428079 -0.126126E-07  0.655E-05    0.00     131.9  T
     SCC iter.                  ...        0 min,  1.074 sec
     gradient                   ...        0 min,  0.608 sec
 * total energy  :  -271.6763958 Eh     change       -0.2428634E-03 Eh
   gradient norm :     0.0093358 Eh/α   predicted    -0.2087998E-03 ( -14.03%)
   displ. norm   :     0.2837676 α      lambda       -0.3161468E-03
   maximum displ.:     0.1354404 α      in ANC's #8, #20, #14, ...

........................................................................
.............................. CYCLE   25 ..............................
........................................................................
   1   -275.3414729 -0.275341E+03  0.584E-03    0.01       0.0  T
   2   -275.3199459  0.215270E-01  0.251E-01    0.02       1.0  T
   3   -275.3412876 -0.213417E-01  0.248E-02    0.01       1.0  T
   4   -275.3414323 -0.144687E-03  0.150E-02    0.01       1.0  T
   5   -275.3414796 -0.472286E-04  0.165E-03    0.00       5.2  T
   6   -275.3414801 -0.591362E-06  0.115E-03    0.00       7.5  T
   7   -275.3414801  0.464744E-07  0.109E-03    0.00       7.9  T
   8   -275.3414805 -0.357797E-06  0.299E-04    0.00      28.9  T
   9   -275.3414805 -0.329536E-07  0.750E-05    0.00     115.2  T
  10   -275.3414805  0.272064E-08  0.114E-04    0.00      75.6  T
     SCC iter.                  ...        0 min,  0.963 sec
     gradient                   ...        0 min,  0.632 sec
 * total energy  :  -271.6766329 Eh     change       -0.2370952E-03 Eh
   gradient norm :     0.0079788 Eh/α   predicted    -0.1708027E-03 ( -27.96%)
   displ. norm   :     0.3197712 α      lambda       -0.3068430E-03
   maximum displ.:     0.1687294 α      in ANC's #8, #14, #11, ...

........................................................................
.............................. CYCLE   26 ..............................
........................................................................
   1   -275.3404545 -0.275340E+03  0.848E-03    0.01       0.0  T
   2   -275.3145112  0.259434E-01  0.276E-01    0.03       1.0  T
   3   -275.3371802 -0.226691E-01  0.100E-01    0.01       1.0  T
   4   -275.3404467 -0.326644E-02  0.979E-03    0.01       1.0  T
   5   -275.3404677 -0.209807E-04  0.212E-03    0.01       4.1  T
   6   -275.3404683 -0.686195E-06  0.179E-03    0.01       4.8  T
   7   -275.3404674  0.906312E-06  0.238E-03    0.01       3.6  T
   8   -275.3404691 -0.164292E-05  0.816E-04    0.01      10.6  T
   9   -275.3404693 -0.232472E-06  0.483E-05    0.01     178.7  T
  10   -275.3404693  0.160672E-07  0.220E-04    0.01      39.3  T
  11   -275.3404693 -0.141198E-07  0.871E-05    0.01      99.2  T
     SCC iter.                  ...        0 min,  1.070 sec
     gradient                   ...        0 min,  0.638 sec
 * total energy  :  -271.6768482 Eh     change       -0.2153579E-03 Eh
   gradient norm :     0.0104190 Eh/α   predicted    -0.1691122E-03 ( -21.47%)
   displ. norm   :     0.2442025 α      lambda       -0.2386517E-03
   maximum displ.:     0.1428047 α      in ANC's #8, #14, #11, ...

........................................................................
.............................. CYCLE   27 ..............................
........................................................................
   1   -275.3413115 -0.275341E+03  0.727E-03    0.01       0.0  T
   2   -275.3407126  0.598932E-03  0.490E-02    0.01       1.0  T
   3   -275.3284887  0.122239E-01  0.193E-01    0.02       1.0  T
   4   -275.3412214 -0.127327E-01  0.173E-02    0.01       1.0  T
   5   -275.3413169 -0.954213E-04  0.346E-03    0.01       2.5  T
   6   -275.3413209 -0.400439E-05  0.110E-03    0.01       7.8  T
   7   -275.3413173  0.360566E-05  0.339E-03    0.01       2.5  T
   8   -275.3413210 -0.370344E-05  0.795E-04    0.01      10.9  T
   9   -275.3413212 -0.211801E-06  0.160E-04    0.01      53.9  T
  10   -275.3413212  0.228674E-07  0.302E-04    0.01      28.6  T
  11   -275.3413212 -0.305142E-07  0.620E-05    0.01     139.4  T
     SCC iter.                  ...        0 min,  1.077 sec
     gradient                   ...        0 min,  0.640 sec
 * total energy  :  -271.6770378 Eh     change       -0.1895522E-03 Eh
   gradient norm :     0.0091486 Eh/α   predicted    -0.1264562E-03 ( -33.29%)
   displ. norm   :     0.3731305 α      lambda       -0.3267354E-03
   maximum displ.:     0.2267448 α      in ANC's #8, #14, #11, ...

........................................................................
.............................. CYCLE   28 ..............................
........................................................................
   1   -275.3425814 -0.275343E+03  0.917E-03    0.01       0.0  T
   2   -275.3021821  0.403993E-01  0.344E-01    0.03       1.0  T
   3   -275.3412144 -0.390323E-01  0.677E-02    0.01       1.0  T
   4   -275.3424221 -0.120767E-02  0.235E-02    0.01       1.0  T
   5   -275.3425871 -0.165026E-03  0.607E-03    0.01       1.4  T
   6   -275.3425997 -0.125863E-04  0.155E-03    0.01       5.6  T
   7   -275.3425922  0.749835E-05  0.489E-03    0.01       1.8  T
   8   -275.3425978 -0.565374E-05  0.270E-03    0.01       3.2  T
   9   -275.3426003 -0.249351E-05  0.453E-04    0.01      19.1  T
  10   -275.3426004 -0.267613E-07  0.357E-04    0.01      24.2  T
  11   -275.3426004 -0.325050E-07  0.182E-04    0.01      47.5  T
  12   -275.3426004 -0.100626E-07  0.678E-05    0.01     127.4  T
     SCC iter.                  ...        0 min,  1.185 sec
     gradient                   ...        0 min,  0.640 sec
 * total energy  :  -271.6772990 Eh     change       -0.2611696E-03 Eh
   gradient norm :     0.0078089 Eh/α   predicted    -0.1861131E-03 ( -28.74%)
   displ. norm   :     0.4520013 α      lambda       -0.3519946E-03
   maximum displ.:     0.2835048 α      in ANC's #8, #14, #11, ...

........................................................................
.............................. CYCLE   29 ..............................
........................................................................
   1   -275.3438628 -0.275344E+03  0.643E-03    0.01       0.0  T
   2   -275.3203459  0.235169E-01  0.262E-01    0.03       1.0  T
   3   -275.3437721 -0.234262E-01  0.195E-02    0.01       1.0  T
   4   -275.3437763 -0.416601E-05  0.190E-02    0.01       1.0  T
   5   -275.3438699 -0.935836E-04  0.261E-03    0.01       3.3  T
   6   -275.3438722 -0.231392E-05  0.696E-04    0.01      12.4  T
   7   -275.3438708  0.135659E-05  0.206E-03    0.01       4.2  T
   8   -275.3438716 -0.757720E-06  0.142E-03    0.01       6.1  T
   9   -275.3438722 -0.675645E-06  0.292E-04    0.01      29.5  T
  10   -275.3438722 -0.440048E-08  0.270E-04    0.01      32.0  T
  11   -275.3438723 -0.182386E-07  0.142E-04    0.01      60.8  T
  12   -275.3438723 -0.679262E-08  0.279E-05    0.01     309.6  T
     SCC iter.                  ...        0 min,  1.162 sec
     gradient                   ...        0 min,  0.635 sec
 * total energy  :  -271.6775810 Eh     change       -0.2820804E-03 Eh
   gradient norm :     0.0076633 Eh/α   predicted    -0.2119547E-03 ( -24.86%)
   displ. norm   :     0.5062100 α      lambda       -0.3453399E-03
   maximum displ.:     0.3240398 α      in ANC's #8, #14, #11, ...

........................................................................
.............................. CYCLE   30 ..............................
........................................................................
   1   -275.3434636 -0.275343E+03  0.657E-03    0.01       0.0  T
   2   -275.3416480  0.181562E-02  0.744E-02    0.01       1.0  T
   3   -275.3390997  0.254831E-02  0.113E-01    0.01       1.0  T
   4   -275.3434406 -0.434094E-02  0.120E-02    0.01       1.0  T
   5   -275.3434708 -0.301414E-04  0.209E-03    0.01       4.1  T
   6   -275.3434715 -0.735797E-06  0.143E-03    0.01       6.0  T
   7   -275.3434718 -0.273374E-06  0.803E-04    0.01      10.8  T
   8   -275.3434719 -0.150869E-06  0.200E-04    0.01      43.3  T
   9   -275.3434720 -0.143669E-07  0.122E-04    0.01      70.9  T
     SCC iter.                  ...        0 min,  0.894 sec
     gradient                   ...        0 min,  0.650 sec
 * total energy  :  -271.6778599 Eh     change       -0.2788176E-03 Eh
   gradient norm :     0.0078098 Eh/α   predicted    -0.2169234E-03 ( -22.20%)
   displ. norm   :     0.4961918 α      lambda       -0.3804157E-03
   maximum displ.:     0.3160256 α      in ANC's #8, #14, #11, ...

........................................................................
.............................. CYCLE   31 ..............................
........................................................................
   1   -275.3457387 -0.275346E+03  0.137E-02    0.00       0.0  T
   2   -275.3432910  0.244775E-02  0.106E-01    0.01       1.0  T
   3   -275.3393478  0.394316E-02  0.137E-01    0.01       1.0  T
   4   -275.3449211 -0.557325E-02  0.504E-02    0.01       1.0  T
   5   -275.3457547 -0.833615E-03  0.726E-03    0.00       1.2  T
   6   -275.3457634 -0.873801E-05  0.468E-03    0.00       1.8  T
   7   -275.3457650 -0.158367E-05  0.386E-03    0.01       2.2  T
   8   -275.3457687 -0.369017E-05  0.182E-03    0.01       4.7  T
   9   -275.3457698 -0.115831E-05  0.152E-04    0.01      56.7  T
  10   -275.3457698  0.794823E-07  0.500E-04    0.01      17.3  T
  11   -275.3457698 -0.783741E-07  0.144E-04    0.01      60.1  T
  12   -275.3457698 -0.660566E-08  0.370E-05    0.01     233.2  T
     SCC iter.                  ...        0 min,  1.212 sec
     gradient                   ...        0 min,  0.535 sec
 * total energy  :  -271.6780799 Eh     change       -0.2200629E-03 Eh
   gradient norm :     0.0085338 Eh/α   predicted    -0.2370428E-03 (   7.72%)
   displ. norm   :     0.6840458 α      lambda       -0.4735118E-03
   maximum displ.:     0.4438386 α      in ANC's #8, #14, #11, ...

........................................................................
.............................. CYCLE   32 ..............................
........................................................................
   1   -275.3364738 -0.275336E+03  0.167E-02    0.00       0.0  T
   2   -275.3303563  0.611751E-02  0.146E-01    0.01       1.0  T
   3   -275.2842136  0.461427E-01  0.391E-01    0.04       1.0  T
   4   -275.3364063 -0.521927E-01  0.223E-02    0.00       1.0  T
   5   -275.3365095 -0.103147E-03  0.573E-03    0.00       1.5  T
   6   -275.3365110 -0.150751E-05  0.472E-03    0.00       1.8  T
   7   -275.3365153 -0.427950E-05  0.221E-03    0.00       3.9  T
   8   -275.3365161 -0.845708E-06  0.135E-03    0.00       6.4  T
   9   -275.3365167 -0.544413E-06  0.580E-04    0.00      14.9  T
  10   -275.3365168 -0.110506E-06  0.127E-04    0.00      68.0  T
  11   -275.3365168 -0.138238E-08  0.104E-04    0.00      83.0  T
     SCC iter.                  ...        0 min,  0.821 sec
     gradient                   ...        0 min,  0.500 sec
 * total energy  :  -271.6781882 Eh     change       -0.1082585E-03 Eh
   gradient norm :     0.0186286 Eh/α   predicted    -0.3475391E-03 ( 221.03%)
   displ. norm   :     0.1184671 α      lambda       -0.3357115E-03
   maximum displ.:     0.0541488 α      in ANC's #8, #14, #11, ...

........................................................................
.............................. CYCLE   33 ..............................
........................................................................
   1   -275.3410688 -0.275341E+03  0.664E-03    0.00       0.0  T
   2   -275.3399237  0.114505E-02  0.583E-02    0.01       1.0  T
   3   -275.3399700 -0.462815E-04  0.570E-02    0.01       1.0  T
   4   -275.3410031 -0.103311E-02  0.176E-02    0.00       1.0  T
   5   -275.3410709 -0.678254E-04  0.181E-03    0.00       4.8  T
   6   -275.3410711 -0.136035E-06  0.140E-03    0.00       6.2  T
   7   -275.3410717 -0.633287E-06  0.304E-04    0.00      28.4  T
   8   -275.3410717 -0.171498E-07  0.122E-04    0.00      70.6  T
   9   -275.3410717 -0.786014E-08  0.242E-05    0.00     356.3  T
     SCC iter.                  ...        0 min,  0.943 sec
     gradient                   ...        0 min,  0.657 sec
 * total energy  :  -271.6783874 Eh     change       -0.1991751E-03 Eh
   gradient norm :     0.0056316 Eh/α   predicted    -0.1702146E-03 ( -14.54%)
   displ. norm   :     0.2992292 α      lambda       -0.1718007E-03
   maximum displ.:     0.1968718 α      in ANC's #8, #14, #11, ...

........................................................................
.............................. CYCLE   34 ..............................
........................................................................
   1   -275.3405975 -0.275341E+03  0.727E-03    0.00       0.0  T
   2   -275.3374918  0.310573E-02  0.998E-02    0.01       1.0  T
   3   -275.3291661  0.832563E-02  0.183E-01    0.02       1.0  T
   4   -275.3405719 -0.114057E-01  0.112E-02    0.00       1.0  T
   5   -275.3406068 -0.349874E-04  0.149E-03    0.00       5.8  T
   6   -275.3406066  0.231560E-06  0.162E-03    0.00       5.3  T
   7   -275.3406071 -0.488070E-06  0.793E-04    0.00      10.9  T
   8   -275.3406072 -0.132166E-06  0.160E-04    0.00      54.2  T
   9   -275.3406072 -0.712510E-08  0.779E-05    0.00     110.9  T
     SCC iter.                  ...        0 min,  0.845 sec
     gradient                   ...        0 min,  0.616 sec
 * total energy  :  -271.6785291 Eh     change       -0.1417167E-03 Eh
   gradient norm :     0.0038067 Eh/α   predicted    -0.9359235E-04 ( -33.96%)
   displ. norm   :     0.5572748 α      lambda       -0.2509607E-03
   maximum displ.:     0.3716119 α      in ANC's #8, #14, #11, ...

........................................................................
.............................. CYCLE   35 ..............................
........................................................................
   1   -275.3377010 -0.275338E+03  0.106E-02    0.00       0.0  T
   2   -275.3350986  0.260236E-02  0.974E-02    0.01       1.0  T
   3   -275.3093845  0.257141E-01  0.288E-01    0.03       1.0  T
   4   -275.3376552 -0.282706E-01  0.161E-02    0.00       1.0  T
   5   -275.3377226 -0.674542E-04  0.225E-03    0.00       3.8  T
   6   -275.3377224  0.202694E-06  0.241E-03    0.00       3.6  T
   7   -275.3377234 -0.920975E-06  0.137E-03    0.00       6.3  T
   8   -275.3377237 -0.347031E-06  0.394E-04    0.00      21.9  T
   9   -275.3377238 -0.465277E-07  0.154E-04    0.00      56.2  T
  10   -275.3377238 -0.715221E-08  0.439E-05    0.00     196.8  T
     SCC iter.                  ...        0 min,  0.984 sec
     gradient                   ...        0 min,  0.505 sec
 * total energy  :  -271.6787187 Eh     change       -0.1896717E-03 Eh
   gradient norm :     0.0045996 Eh/α   predicted    -0.1644531E-03 ( -13.30%)
   displ. norm   :     0.5321609 α      lambda       -0.1671332E-03
   maximum displ.:     0.3598732 α      in ANC's #8, #14, #11, ...

........................................................................
.............................. CYCLE   36 ..............................
........................................................................
   1   -275.3339632 -0.275334E+03  0.838E-03    0.00       0.0  T
   2   -275.3003746  0.335886E-01  0.314E-01    0.03       1.0  T
   3   -275.3330285 -0.326539E-01  0.562E-02    0.01       1.0  T
   4   -275.3339223 -0.893819E-03  0.156E-02    0.00       1.0  T
   5   -275.3339794 -0.570373E-04  0.158E-03    0.00       5.5  T
   6   -275.3339795 -0.880391E-07  0.155E-03    0.00       5.6  T
   7   -275.3339800 -0.500191E-06  0.577E-04    0.00      15.0  T
   8   -275.3339800 -0.251379E-07  0.336E-04    0.00      25.7  T
   9   -275.3339800 -0.351050E-07  0.537E-05    0.00     160.9  T
  10   -275.3339800 -0.121281E-08  0.130E-05    0.00     666.1  T
     SCC iter.                  ...        0 min,  0.997 sec
     gradient                   ...        0 min,  0.562 sec
 * total energy  :  -271.6788180 Eh     change       -0.9922124E-04 Eh
   gradient norm :     0.0084852 Eh/α   predicted    -0.1072323E-03 (   8.07%)
   displ. norm   :     0.3239419 α      lambda       -0.1365845E-03
   maximum displ.:     0.2203897 α      in ANC's #8, #14, #11, ...

........................................................................
.............................. CYCLE   37 ..............................
........................................................................
   1   -275.3345272 -0.275335E+03  0.613E-03    0.00       0.0  T
   2   -275.3081412  0.263860E-01  0.278E-01    0.03       1.0  T
   3   -275.3344309 -0.262897E-01  0.194E-02    0.00       1.0  T
   4   -275.3344833 -0.523751E-04  0.154E-02    0.00       1.0  T
   5   -275.3345351 -0.517504E-04  0.115E-03    0.00       7.5  T
   6   -275.3345349  0.104992E-06  0.108E-03    0.00       8.0  T
   7   -275.3345353 -0.302294E-06  0.325E-04    0.00      26.6  T
   8   -275.3345353 -0.201434E-07  0.162E-04    0.00      53.3  T
   9   -275.3345353 -0.679353E-08  0.228E-05    0.00     379.1  T
     SCC iter.                  ...        0 min,  0.866 sec
     gradient                   ...        0 min,  0.619 sec
 * total energy  :  -271.6789019 Eh     change       -0.8393934E-04 Eh
   gradient norm :     0.0060216 Eh/α   predicted    -0.7545881E-04 ( -10.10%)
   displ. norm   :     0.2538683 α      lambda       -0.1058512E-03
   maximum displ.:     0.1751601 α      in ANC's #8, #14, #11, ...

........................................................................
.............................. CYCLE   38 ..............................
........................................................................
   1   -275.3369667 -0.275337E+03  0.404E-03    0.00       0.0  T
   2   -275.3257433  0.112234E-01  0.181E-01    0.02       1.0  T
   3   -275.3369602 -0.112169E-01  0.640E-03    0.00       1.3  T
   4   -275.3369363  0.239499E-04  0.124E-02    0.00       1.0  T
   5   -275.3369699 -0.336108E-04  0.105E-03    0.00       8.2  T
   6   -275.3369699 -0.780577E-07  0.709E-04    0.00      12.2  T
   7   -275.3369699 -0.798263E-08  0.653E-04    0.00      13.2  T
   8   -275.3369701 -0.142964E-06  0.871E-05    0.00      99.2  T
   9   -275.3369701 -0.174145E-08  0.611E-05    0.00     141.4  T
     SCC iter.                  ...        0 min,  0.805 sec
     gradient                   ...        0 min,  0.617 sec
 * total energy  :  -271.6789705 Eh     change       -0.6856935E-04 Eh
   gradient norm :     0.0034820 Eh/α   predicted    -0.5633760E-04 ( -17.84%)
   displ. norm   :     0.5084701 α      lambda       -0.1135260E-03
   maximum displ.:     0.3544277 α      in ANC's #8, #14, #11, ...

........................................................................
.............................. CYCLE   39 ..............................
........................................................................
   1   -275.3335832 -0.275334E+03  0.553E-03    0.00       0.0  T
   2   -275.3332234  0.359834E-03  0.363E-02    0.01       1.0  T
   3   -275.3278149  0.540847E-02  0.130E-01    0.01       1.0  T
   4   -275.3335783 -0.576338E-02  0.687E-03    0.00       1.3  T
   5   -275.3335885 -0.102622E-04  0.131E-03    0.00       6.6  T
   6   -275.3335885  0.702369E-08  0.125E-03    0.00       6.9  T
   7   -275.3335886 -0.628028E-07  0.107E-03    0.00       8.1  T
   8   -275.3335889 -0.331423E-06  0.357E-04    0.00      24.2  T
   9   -275.3335890 -0.430223E-07  0.955E-05    0.00      90.5  T
  10   -275.3335890 -0.169433E-08  0.665E-05    0.00     129.8  T
     SCC iter.                  ...        0 min,  0.956 sec
     gradient                   ...        0 min,  0.421 sec
 * total energy  :  -271.6790370 Eh     change       -0.6649630E-04 Eh
   gradient norm :     0.0056366 Eh/α   predicted    -0.7144073E-04 (   7.44%)
   displ. norm   :     0.1969362 α      lambda       -0.8088851E-04
   maximum displ.:     0.1288038 α      in ANC's #8, #14, #20, ...

........................................................................
.............................. CYCLE   40 ..............................
........................................................................
   1   -275.3369024 -0.275337E+03  0.245E-03    0.01       0.0  T
   2   -275.3360744  0.827967E-03  0.491E-02    0.01       1.0  T
   3   -275.3368649 -0.790451E-03  0.106E-02    0.01       1.0  T
   4   -275.3369017 -0.368234E-04  0.267E-03    0.01       3.2  T
   5   -275.3369026 -0.841664E-06  0.198E-03    0.01       4.4  T
   6   -275.3369031 -0.564862E-06  0.839E-04    0.01      10.3  T
   7   -275.3369033 -0.139519E-06  0.520E-04    0.01      16.6  T
   8   -275.3369033 -0.775945E-07  0.190E-04    0.01      45.5  T
   9   -275.3369034 -0.126066E-07  0.311E-05    0.01     278.0  T
     SCC iter.                  ...        0 min,  0.879 sec
     gradient                   ...        0 min,  0.595 sec
 * total energy  :  -271.6790861 Eh     change       -0.4912482E-04 Eh
   gradient norm :     0.0038000 Eh/α   predicted    -0.4201377E-04 ( -14.48%)
   displ. norm   :     0.2496590 α      lambda       -0.5228793E-04
   maximum displ.:     0.1716920 α      in ANC's #8, #14, #5, ...

........................................................................
.............................. CYCLE   41 ..............................
........................................................................
   1   -275.3371802 -0.275337E+03  0.241E-03    0.01       0.0  T
   2   -275.3350536  0.212664E-02  0.787E-02    0.01       1.0  T
   3   -275.3371548 -0.210122E-02  0.964E-03    0.01       1.0  T
   4   -275.3371724 -0.176149E-04  0.589E-03    0.01       1.5  T
   5   -275.3371814 -0.900918E-05  0.848E-04    0.01      10.2  T
   6   -275.3371814 -0.259121E-08  0.728E-04    0.01      11.9  T
   7   -275.3371815 -0.863150E-07  0.447E-04    0.01      19.3  T
   8   -275.3371815 -0.420748E-07  0.264E-04    0.01      32.8  T
   9   -275.3371816 -0.231266E-07  0.598E-05    0.01     144.4  T
  10   -275.3371816 -0.113920E-08  0.190E-05    0.01     455.3  T
     SCC iter.                  ...        0 min,  0.994 sec
     gradient                   ...        0 min,  0.597 sec
 * total energy  :  -271.6791261 Eh     change       -0.3997957E-04 Eh
   gradient norm :     0.0032551 Eh/α   predicted    -0.2777414E-04 ( -30.53%)
   displ. norm   :     0.3055740 α      lambda       -0.5862828E-04
   maximum displ.:     0.2062386 α      in ANC's #8, #14, #5, ...

........................................................................
.............................. CYCLE   42 ..............................
........................................................................
   1   -275.3366756 -0.275337E+03  0.381E-03    0.01       0.0  T
   2   -275.3350675  0.160813E-02  0.691E-02    0.01       1.0  T
   3   -275.3360662 -0.998718E-03  0.430E-02    0.01       1.0  T
   4   -275.3366296 -0.563371E-03  0.124E-02    0.01       1.0  T
   5   -275.3366786 -0.490518E-04  0.118E-03    0.01       7.3  T
   6   -275.3366773  0.133215E-05  0.222E-03    0.01       3.9  T
   7   -275.3366782 -0.930962E-06  0.138E-03    0.01       6.2  T
   8   -275.3366788 -0.580093E-06  0.455E-04    0.01      19.0  T
   9   -275.3366789 -0.720165E-07  0.709E-05    0.01     121.9  T
  10   -275.3366789  0.260815E-08  0.110E-04    0.01      78.7  T
     SCC iter.                  ...        0 min,  1.000 sec
     gradient                   ...        0 min,  0.598 sec
 * total energy  :  -271.6791669 Eh     change       -0.4077908E-04 Eh
   gradient norm :     0.0021781 Eh/α   predicted    -0.3205346E-04 ( -21.40%)
   displ. norm   :     0.2302873 α      lambda       -0.2963436E-04
   maximum displ.:     0.1533912 α      in ANC's #8, #14, #16, ...
 * RMSD in coord.:     0.5828385 α      energy gain  -0.3571073E-02 Eh

generating ANC from model Hessian ...
Using Lindh-Hessian (1995)
 Shifting diagonal of input Hessian by    1.0019249597580337E-002
 Lowest  eigenvalues of input Hessian
    0.010000    0.010006    0.010010    0.000000    0.000000    0.000000
    0.000000    0.000000    0.000000    0.010027    0.010062    0.010087
    0.010115    0.010175    0.010239    0.010361    0.010368    0.010388
 Highest eigenvalues
    2.840848    2.987416    3.581799    3.581834    3.598754    3.600139


........................................................................
.............................. CYCLE   43 ..............................
........................................................................
   1   -275.3372363 -0.275337E+03  0.370E-03    0.01       0.0  T
   2   -275.3366232  0.613123E-03  0.440E-02    0.01       1.0  T
   3   -275.3347176  0.190555E-02  0.859E-02    0.01       1.0  T
   4   -275.3372078 -0.249022E-02  0.992E-03    0.01       1.0  T
   5   -275.3372389 -0.310284E-04  0.110E-03    0.01       7.8  T
   6   -275.3372380  0.869453E-06  0.190E-03    0.01       4.5  T
   7   -275.3372388 -0.786509E-06  0.103E-03    0.01       8.4  T
   8   -275.3372391 -0.287317E-06  0.371E-04    0.01      23.3  T
   9   -275.3372391 -0.480866E-07  0.518E-05    0.01     166.8  T
  10   -275.3372391  0.228965E-08  0.939E-05    0.01      92.0  T
     SCC iter.                  ...        0 min,  0.992 sec
     gradient                   ...        0 min,  0.596 sec
 * total energy  :  -271.6791881 Eh     change       -0.2122275E-04 Eh
   gradient norm :     0.0020098 Eh/α   predicted     0.0000000E+00 (-100.00%)
   displ. norm   :     0.0216267 α      lambda       -0.7157429E-05
   maximum displ.:     0.0123269 α      in ANC's #17, #10, #29, ...

........................................................................
.............................. CYCLE   44 ..............................
........................................................................
   1   -275.3377569 -0.275338E+03  0.907E-04    0.01       0.0  T
   2   -275.3371923  0.564608E-03  0.405E-02    0.01       1.0  T
   3   -275.3377546 -0.562312E-03  0.292E-03    0.01       3.0  T
   4   -275.3377560 -0.139836E-05  0.222E-03    0.01       3.9  T
   5   -275.3377571 -0.107999E-05  0.172E-04    0.01      50.3  T
   6   -275.3377571  0.156081E-08  0.163E-04    0.01      53.0  T
   7   -275.3377571 -0.347325E-08  0.106E-04    0.01      81.4  T
     SCC iter.                  ...        0 min,  0.687 sec
     gradient                   ...        0 min,  0.592 sec
 * total energy  :  -271.6791959 Eh     change       -0.7861436E-05 Eh
   gradient norm :     0.0012043 Eh/α   predicted    -0.5944099E-05 ( -24.39%)
   displ. norm   :     0.1279819 α      lambda       -0.4021892E-04
   maximum displ.:     0.0592934 α      in ANC's #10, #18, #29, ...

........................................................................
.............................. CYCLE   45 ..............................
........................................................................
   1   -275.3403662 -0.275340E+03  0.569E-03    0.00       0.0  T
   2   -275.3159127  0.244535E-01  0.267E-01    0.03       1.0  T
   3   -275.3402852 -0.243725E-01  0.176E-02    0.00       1.0  T
   4   -275.3403155 -0.302760E-04  0.163E-02    0.00       1.0  T
   5   -275.3403738 -0.582661E-04  0.107E-03    0.00       8.0  T
   6   -275.3403737  0.727742E-07  0.110E-03    0.00       7.9  T
   7   -275.3403740 -0.265663E-06  0.464E-04    0.00      18.6  T
   8   -275.3403740 -0.424373E-07  0.116E-04    0.00      74.4  T
   9   -275.3403740 -0.483436E-08  0.553E-05    0.00     156.2  T
     SCC iter.                  ...        0 min,  0.886 sec
     gradient                   ...        0 min,  0.580 sec
 * total energy  :  -271.6791596 Eh     change        0.3628878E-04 Eh
   gradient norm :     0.0058933 Eh/α   predicted    -0.2025571E-04 (-155.82%)
   displ. norm   :     0.0334349 α      lambda       -0.6877754E-04
   maximum displ.:     0.0112218 α      in ANC's #29, #68, #18, ...

........................................................................
.............................. CYCLE   46 ..............................
........................................................................
   1   -275.3391467 -0.275339E+03  0.189E-03    0.00       0.0  T
   2   -275.3357454  0.340125E-02  0.995E-02    0.01       1.0  T
   3   -275.3391438 -0.339839E-02  0.390E-03    0.00       2.2  T
   4   -275.3391436  0.202627E-06  0.424E-03    0.00       2.0  T
   5   -275.3391476 -0.395353E-05  0.365E-04    0.00      23.7  T
   6   -275.3391476  0.181548E-07  0.364E-04    0.00      23.8  T
   7   -275.3391476 -0.275979E-07  0.223E-04    0.00      38.8  T
   8   -275.3391476 -0.145311E-07  0.475E-05    0.00     182.0  T
   9   -275.3391476 -0.547459E-09  0.261E-05    0.00     331.5  T
     SCC iter.                  ...        0 min,  0.875 sec
     gradient                   ...        0 min,  0.579 sec
 * total energy  :  -271.6792067 Eh     change       -0.4700105E-04 Eh
   gradient norm :     0.0027091 Eh/α   predicted    -0.3442965E-04 ( -26.75%)
   displ. norm   :     0.0203741 α      lambda       -0.1993928E-04
   maximum displ.:     0.0068048 α      in ANC's #68, #29, #17, ...

........................................................................
.............................. CYCLE   47 ..............................
........................................................................
   1   -275.3381182 -0.275338E+03  0.150E-03    0.00       0.0  T
   2   -275.3363121  0.180610E-02  0.725E-02    0.01       1.0  T
   3   -275.3381063 -0.179418E-02  0.678E-03    0.01       1.3  T
   4   -275.3381177 -0.114534E-04  0.203E-03    0.00       4.3  T
   5   -275.3381187 -0.101600E-05  0.302E-04    0.00      28.6  T
   6   -275.3381187  0.989422E-08  0.292E-04    0.00      29.6  T
   7   -275.3381187 -0.204664E-07  0.163E-04    0.00      53.0  T
   8   -275.3381188 -0.756194E-08  0.347E-05    0.00     249.2  T
     SCC iter.                  ...        0 min,  0.778 sec
     gradient                   ...        0 min,  0.583 sec
 * total energy  :  -271.6792174 Eh     change       -0.1077570E-04 Eh
   gradient norm :     0.0007764 Eh/α   predicted    -0.9974230E-05 (  -7.44%)
   displ. norm   :     0.0426914 α      lambda       -0.9143736E-05
   maximum displ.:     0.0204573 α      in ANC's #10, #14, #18, ...

[...]
    30   6 C    3.932 --    28 C    1.329    41 C    1.317    31 C    1.033
    31   6 C    3.986 --    32 C    1.390    40 C    1.389    30 C    1.033
    32   6 C    3.986 --    33 C    1.449    31 C    1.390    58 H    0.971
                            39 C    0.106
    33   6 C    3.989 --    32 C    1.449    34 C    1.408    59 H    0.966
                            40 C    0.106
    34   6 C    3.931 --    33 C    1.408    39 C    1.407    35 S    0.753
    35  16 S    5.269 --    38 O    1.730    36 O    1.713    37 O    1.016
                            34 C    0.753
    36   8 O    2.072 --    35 S    1.713    38 O    0.138
    37   8 O    2.089 --    35 S    1.016    60 H    0.828
    38   8 O    2.087 --    35 S    1.730    36 O    0.138
    39   6 C    3.989 --    40 C    1.451    34 C    1.407    61 H    0.967
                            32 C    0.106
    40   6 C    3.986 --    39 C    1.451    31 C    1.389    62 H    0.971
                            33 C    0.106
    41   6 C    3.921 --    30 C    1.317    45 N    1.213    42 C    1.175
    42   6 C    3.963 --    43 C    1.650    41 C    1.175    63 H    0.973
    43   6 C    3.960 --    42 C    1.650    44 C    1.174    64 H    0.975
    44   6 C    3.922 --     2 C    1.365    45 N    1.199    43 C    1.174
    45   7 N    3.347 --    41 C    1.213    44 C    1.199     1 Co   0.639
    46   1 H    0.999 --     2 C    0.969
    47   1 H    0.997 --     4 C    0.975
    48   1 H    1.003 --     5 C    0.973
    49   1 H    1.003 --    10 C    0.971
    50   1 H    0.999 --    11 C    0.967
    51   1 H    0.854 --    15 O    0.827
    52   1 H    0.999 --    17 C    0.967
    53   1 H    1.003 --    18 C    0.971
    54   1 H    1.002 --    20 C    0.973
    55   1 H    1.001 --    21 C    0.973
    56   1 H    1.001 --    26 C    0.973
    57   1 H    1.003 --    27 C    0.973
    58   1 H    1.003 --    32 C    0.971
    59   1 H    0.999 --    33 C    0.966
    60   1 H    0.854 --    37 O    0.828
    61   1 H    0.999 --    39 C    0.967
    62   1 H    1.003 --    40 C    0.971
    63   1 H    1.003 --    42 C    0.973
    64   1 H    0.997 --    43 C    0.975
    65  27 Co   3.051 --    71 N    0.642   109 N    0.639    93 N    0.636
                            86 N    0.633
    66   6 C    3.931 --    67 C    1.366   108 C    1.365   110 H    0.969
    67   6 C    3.922 --    66 C    1.366    71 N    1.199    68 C    1.173
    68   6 C    3.960 --    69 C    1.651    67 C    1.173   111 H    0.975
    69   6 C    3.963 --    68 C    1.651    70 C    1.175   112 H    0.973
    70   6 C    3.921 --    72 C    1.319    71 N    1.212    69 C    1.175
    71   7 N    3.346 --    70 C    1.212    67 C    1.199    65 Co   0.642
    72   6 C    3.932 --    83 C    1.329    70 C    1.319    73 C    1.031
    73   6 C    3.986 --    82 C    1.390    74 C    1.390    72 C    1.031
    74   6 C    3.986 --    75 C    1.450    73 C    1.390   113 H    0.971
                            81 C    0.106
    75   6 C    3.989 --    74 C    1.450    76 C    1.407   114 H    0.967
                            82 C    0.106
    76   6 C    3.930 --    81 C    1.408    75 C    1.407    77 S    0.754
    77  16 S    5.265 --    78 O    1.720    80 O    1.719    79 O    1.013
                            76 C    0.754
    78   8 O    2.079 --    77 S    1.720    80 O    0.139
    79   8 O    2.087 --    77 S    1.013   115 H    0.827
    80   8 O    2.078 --    77 S    1.719    78 O    0.139
    81   6 C    3.989 --    82 C    1.450    76 C    1.408   116 H    0.967
                            74 C    0.106
    82   6 C    3.986 --    81 C    1.450    73 C    1.390   117 H    0.971
                            75 C    0.106
    83   6 C    3.917 --    72 C    1.329    86 N    1.195    84 C    1.181
    84   6 C    3.958 --    85 C    1.637    83 C    1.181   118 H    0.973
    85   6 C    3.961 --    84 C    1.637    87 C    1.190   119 H    0.973
    86   7 N    3.349 --    87 C    1.228    83 C    1.195    65 Co   0.633
    87   6 C    3.901 --    88 C    1.259    86 N    1.228    85 C    1.190
    88   6 C    3.936 --    89 C    1.260    87 C    1.259   134 C    1.192
    89   6 C    3.901 --    88 C    1.260    93 N    1.228    90 C    1.190
    90   6 C    3.961 --    91 C    1.637    89 C    1.190   120 H    0.973
    91   6 C    3.958 --    90 C    1.637    92 C    1.181   121 H    0.973
    92   6 C    3.917 --    94 C    1.329    93 N    1.194    91 C    1.181
    93   7 N    3.348 --    89 C    1.228    92 C    1.194    65 Co   0.636
    94   6 C    3.932 --    92 C    1.329   105 C    1.317    95 C    1.033
    95   6 C    3.986 --    96 C    1.390   104 C    1.389    94 C    1.033
    96   6 C    3.986 --    97 C    1.449    95 C    1.390   122 H    0.971
                           103 C    0.106
    97   6 C    3.989 --    96 C    1.449    98 C    1.408   123 H    0.966
                           104 C    0.106
    98   6 C    3.931 --    97 C    1.408   103 C    1.407    99 S    0.753
    99  16 S    5.269 --   102 O    1.730   100 O    1.713   101 O    1.016
                            98 C    0.753
   100   8 O    2.072 --    99 S    1.713   102 O    0.138
   101   8 O    2.090 --    99 S    1.016   124 H    0.828
   102   8 O    2.088 --    99 S    1.730   100 O    0.138
   103   6 C    3.989 --   104 C    1.451    98 C    1.407   125 H    0.967
                            96 C    0.106
   104   6 C    3.986 --   103 C    1.451    95 C    1.389   126 H    0.971
                            97 C    0.106
   105   6 C    3.921 --    94 C    1.317   109 N    1.213   106 C    1.175
   106   6 C    3.963 --   107 C    1.650   105 C    1.175   127 H    0.973
   107   6 C    3.960 --   106 C    1.650   108 C    1.174   128 H    0.975
   108   6 C    3.922 --    66 C    1.365   109 N    1.199   107 C    1.174
   109   7 N    3.347 --   105 C    1.213   108 C    1.199    65 Co   0.639
   110   1 H    0.999 --    66 C    0.969
   111   1 H    0.997 --    68 C    0.975
   112   1 H    1.003 --    69 C    0.973
   113   1 H    1.003 --    74 C    0.971
   114   1 H    0.999 --    75 C    0.967
   115   1 H    0.854 --    79 O    0.827
   116   1 H    0.999 --    81 C    0.967
   117   1 H    1.003 --    82 C    0.971
   118   1 H    1.002 --    84 C    0.973
   119   1 H    1.001 --    85 C    0.973
   120   1 H    1.001 --    90 C    0.973
   121   1 H    1.003 --    91 C    0.973
   122   1 H    1.003 --    96 C    0.971
   123   1 H    0.999 --    97 C    0.966
   124   1 H    0.855 --   101 O    0.828
   125   1 H    0.999 --   103 C    0.967
   126   1 H    1.003 --   104 C    0.971
   127   1 H    1.003 --   106 C    0.973
   128   1 H    0.997 --   107 C    0.975
   129   6 C    3.920 --   130 C    2.360   133 C    1.339   132 C    0.189
   130   6 C    3.920 --   129 C    2.360   131 C    1.339   134 C    0.189
   131   6 C    3.931 --   132 C    2.443   130 C    1.339
   132   6 C    3.885 --   131 C    2.443    24 C    1.192   129 C    0.189
   133   6 C    3.931 --   134 C    2.443   129 C    1.339
   134   6 C    3.885 --   133 C    2.443    88 C    1.192   130 C    0.189
 ---------------------------------------------------------------------------

Topologies differ in total number of bonds
Writing topology from bond orders to xtbtopo.mol

 dipole moment from electron density (au)
     X       Y       Z   
  -0.0045  -1.6770  -0.3250  total (Debye):    4.342

           -------------------------------------------------
          |                Geometry Summary                 |
           -------------------------------------------------

      molecular mass/u    :     1429.2252844
   center of mass at/Å    :       23.7366870       0.0230010       0.0045458
  moments of inertia/u·Å² :        0.4654910E+05   0.9139172E+05   0.1367829E+06
rotational constants/cm⁻¹ :        0.3621473E-03   0.1844547E-03   0.1232437E-03

 * 137 selected distances

     #   Z          #   Z                                           value/Å
     2   6 C        3   6 C                                       1.3782650
     3   6 C        4   6 C                                       1.4314972
     4   6 C        5   6 C                                       1.3536397
     5   6 C        6   6 C                                       1.4340505
     3   6 C        7   7 N                                       1.3727599
     6   6 C        7   7 N                                       1.3711899
     6   6 C        8   6 C                                       1.3884886
     9   6 C       10   6 C                                       1.3971871
    10   6 C       11   6 C                                       1.3850128
    11   6 C       12   6 C                                       1.3854597
    12   6 C       13  16 S                                       1.7532126
    13  16 S       14   8 O                                       1.4330912
    13  16 S       15   8 O                                       1.6241557
    13  16 S       16   8 O                                       1.4333558
    12   6 C       17   6 C                                       1.3853797
     9   6 C       18   6 C                                       1.3970788
    17   6 C       18   6 C                                       1.3851392
     8   6 C       19   6 C                                       1.3871510
    19   6 C       20   6 C                                       1.4319751
    20   6 C       21   6 C                                       1.3549932
    19   6 C       22   7 N                                       1.3755674
    21   6 C       23   6 C                                       1.4284747
    22   7 N       23   6 C                                       1.3668484
    23   6 C       24   6 C                                       1.3973103
    24   6 C       25   6 C                                       1.3972012
    25   6 C       26   6 C                                       1.4285078
    26   6 C       27   6 C                                       1.3549228
    27   6 C       28   6 C                                       1.4321326
    25   6 C       29   7 N                                       1.3669174
    28   6 C       29   7 N                                       1.3759577
    28   6 C       30   6 C                                       1.3872906
    31   6 C       32   6 C                                       1.3971852
    32   6 C       33   6 C                                       1.3851488
    33   6 C       34   6 C                                       1.3852818
    34   6 C       35  16 S                                       1.7540457
    35  16 S       36   8 O                                       1.4340476
    35  16 S       37   8 O                                       1.6237589
    35  16 S       38   8 O                                       1.4316992
    34   6 C       39   6 C                                       1.3855369
    31   6 C       40   6 C                                       1.3974158
    39   6 C       40   6 C                                       1.3849254
    30   6 C       41   6 C                                       1.3889695
    41   6 C       42   6 C                                       1.4340277
    42   6 C       43   6 C                                       1.3537649
     2   6 C       44   6 C                                       1.3785029
    43   6 C       44   6 C                                       1.4313045
    41   6 C       45   7 N                                       1.3710243
    44   6 C       45   7 N                                       1.3724770
     2   6 C       46   1 H                                       1.0834693
     4   6 C       47   1 H                                       1.0782722
     5   6 C       48   1 H                                       1.0779407
    10   6 C       49   1 H                                       1.0837134
    11   6 C       50   1 H                                       1.0827456
    15   8 O       51   1 H                                       0.9649193
    17   6 C       52   1 H                                       1.0827520
    18   6 C       53   1 H                                       1.0837413
    20   6 C       54   1 H                                       1.0777952
    21   6 C       55   1 H                                       1.0780021
    26   6 C       56   1 H                                       1.0780123
    27   6 C       57   1 H                                       1.0777747
    32   6 C       58   1 H                                       1.0837179
    33   6 C       59   1 H                                       1.0827108
    37   8 O       60   1 H                                       0.9649643
    39   6 C       61   1 H                                       1.0827771
    40   6 C       62   1 H                                       1.0837383
    42   6 C       63   1 H                                       1.0778863
    43   6 C       64   1 H                                       1.0782476
    66   6 C       67   6 C                                       1.3782623
    67   6 C       68   6 C                                       1.4314964
    68   6 C       69   6 C                                       1.3536389
    69   6 C       70   6 C                                       1.4340477
    67   6 C       71   7 N                                       1.3727583
    70   6 C       71   7 N                                       1.3711952
    70   6 C       72   6 C                                       1.3884855
    73   6 C       74   6 C                                       1.3971890
    74   6 C       75   6 C                                       1.3850116
    75   6 C       76   6 C                                       1.3854665
    76   6 C       77  16 S                                       1.7532157
    77  16 S       78   8 O                                       1.4330909
    77  16 S       79   8 O                                       1.6241435
    77  16 S       80   8 O                                       1.4333557
    76   6 C       81   6 C                                       1.3853767
    73   6 C       82   6 C                                       1.3970798
    81   6 C       82   6 C                                       1.3851353
    72   6 C       83   6 C                                       1.3871415
    83   6 C       84   6 C                                       1.4319695
    84   6 C       85   6 C                                       1.3549960
    83   6 C       86   7 N                                       1.3755719
    85   6 C       87   6 C                                       1.4284737
    86   7 N       87   6 C                                       1.3668246
    87   6 C       88   6 C                                       1.3973144
    88   6 C       89   6 C                                       1.3971881
    89   6 C       90   6 C                                       1.4285092
    90   6 C       91   6 C                                       1.3549336
    91   6 C       92   6 C                                       1.4321344
    89   6 C       93   7 N                                       1.3669414
    92   6 C       93   7 N                                       1.3759675
    92   6 C       94   6 C                                       1.3872965
    95   6 C       96   6 C                                       1.3971794
    96   6 C       97   6 C                                       1.3851655
    97   6 C       98   6 C                                       1.3852697
    98   6 C       99  16 S                                       1.7540551 (max)
    99  16 S      100   8 O                                       1.4340792
    99  16 S      101   8 O                                       1.6237856
    99  16 S      102   8 O                                       1.4316336
    98   6 C      103   6 C                                       1.3855449
    95   6 C      104   6 C                                       1.3974133
   103   6 C      104   6 C                                       1.3849162
    94   6 C      105   6 C                                       1.3889649
   105   6 C      106   6 C                                       1.4340301
   106   6 C      107   6 C                                       1.3537586
    66   6 C      108   6 C                                       1.3784986
   107   6 C      108   6 C                                       1.4313024
   105   6 C      109   7 N                                       1.3710155
   108   6 C      109   7 N                                       1.3724788
    66   6 C      110   1 H                                       1.0834680
    68   6 C      111   1 H                                       1.0782735
    69   6 C      112   1 H                                       1.0779410
    74   6 C      113   1 H                                       1.0837143
    75   6 C      114   1 H                                       1.0827473
    79   8 O      115   1 H                                       0.9649179 (min)
    81   6 C      116   1 H                                       1.0827539
    82   6 C      117   1 H                                       1.0837412
    84   6 C      118   1 H                                       1.0777960
    85   6 C      119   1 H                                       1.0780028
    90   6 C      120   1 H                                       1.0780090
    91   6 C      121   1 H                                       1.0777892
    96   6 C      122   1 H                                       1.0837186
    97   6 C      123   1 H                                       1.0827110
   101   8 O      124   1 H                                       0.9649391
   103   6 C      125   1 H                                       1.0827739
   104   6 C      126   1 H                                       1.0837380
   106   6 C      127   1 H                                       1.0778843
   107   6 C      128   1 H                                       1.0782437
   129   6 C      130   6 C                                       1.2287926
   131   6 C      132   6 C                                       1.2241995
   133   6 C      134   6 C                                       1.2241852

 * 6 distinct bonds (by element types)

   Z      Z             #   av. dist./Å        max./Å        min./Å
   1 H    6 C          34     1.0807824     1.0837413     1.0777747
   6 C    6 C          67     1.3875162     1.4340505     1.2241852
   6 C    7 N          16     1.3715935     1.3759675     1.3668246
   1 H    8 O           4     0.9649351     0.9649643     0.9649179
   6 C   16 S           4     1.7536323     1.7540551     1.7532126
   8 O   16 S          12     1.4966831     1.6241557     1.4316336


optimized geometry written to: xtbopt.xyz


           -------------------------------------------------
          | TOTAL ENERGY             -271.679298696565 Eh   |
          | GRADIENT NORM               0.000522980927 Eh/α |
          | HOMO-LUMO GAP               0.005720575921 eV   |
           -------------------------------------------------

------------------------------------------------------------------------
 * finished run on 2022/07/30 at 07:14:00.851     
------------------------------------------------------------------------
 total:
 * wall-time:     0 d,  0 h,  1 min, 52.541 sec
 *  cpu-time:     0 d,  0 h,  1 min, 51.915 sec
 * ratio c/w:     0.994 speedup
 SCF:
 * wall-time:     0 d,  0 h,  0 min,  3.600 sec
 *  cpu-time:     0 d,  0 h,  0 min,  3.578 sec
 * ratio c/w:     0.994 speedup
 ANC optimizer:
 * wall-time:     0 d,  0 h,  1 min, 48.698 sec
 *  cpu-time:     0 d,  0 h,  1 min, 48.102 sec
 * ratio c/w:     0.995 speedup

