276
 energy: -441.954617051114 gnorm: 2.928017643102 xtb: 6.5.1 (b24c23e)
Cu          50.60734300000000       -0.02846500000000       -0.02987400000000
C           47.24865500000000        0.17479600000000       -0.26518500000000
C           47.91297400000000        1.27563200000000        0.09629100000000
C           47.26332499999999        2.51912100000000        0.49373600000000
C           48.20603899999999        3.39496000000000        0.78388900000000
C           49.51176100000000        2.75419300000000        0.57657700000000
N           49.33259499999999        1.40563600000000        0.14350400000000
C           50.70693300000000        3.34970100000000        0.76285000000000
C           52.00224999999999        2.65824000000000        0.53502900000000
C           53.29902000000000        3.34488200000000        0.53592600000000
C           54.23220300000000        2.44191400000000        0.31885800000000
N           52.13511999999999        1.38399100000000        0.32308300000000
C           53.53857700000000        1.16691100000000        0.17556600000000
C           54.13016600000000       -0.02320100000000       -0.02342200000000
C           53.37159800000000       -1.28967500000000       -0.16453000000000
C           53.92878600000000       -2.49420000000000       -0.14821500000000
C           52.88154999999999       -3.45978300000000       -0.40819100000000
C           51.74738200000000       -2.78545200000000       -0.56299300000000
C           50.44542900000000       -3.41000100000000       -0.92162600000000
C           50.42036300000000       -4.85179500000000       -1.25619200000000
C           50.35388600000000       -5.26484700000000       -2.59445200000000
C           50.34924400000000       -6.63075700000000       -2.91395600000000
C           50.24346300000000       -7.07062700000000       -4.34428200000000
C           50.37704999999999       -7.58279400000000       -1.88300100000000
C           50.43411400000000       -7.17770200000000       -0.54116000000000
C           50.50085899999999       -8.20828900000000        0.54737000000000
C           50.46565200000000       -5.80930600000000       -0.23269000000000
C           49.29228500000000       -2.71560100000000       -0.93548400000000
C           47.97161400000000       -3.25604300000000       -1.25400700000000
C           47.11635999999999       -2.27153800000000       -1.06456900000000
C           47.88004299999999       -1.10359900000000       -0.62896400000000
N           49.15026200000000       -1.35059100000000       -0.54979600000000
N           51.96760099999999       -1.38023700000000       -0.41601100000000
C           50.75646600000000        4.75996600000000        1.20755000000000
C           50.44098200000000        5.79545700000000        0.31577000000000
C           50.48396800000000        7.13173200000000        0.73905800000000
C           50.16382299999999        8.24074800000000       -0.21948400000000
C           50.88460400000000        7.42984300000000        2.05008500000000
C           51.22563200000000        6.40128600000000        2.94113100000000
C           51.60796400000000        6.72205600000000        4.35579200000000
C           51.14451699999999        5.06639900000000        2.51911300000000
H           46.16570400000000        0.21177500000000       -0.28346400000000
H           46.19871100000000        2.70567400000000        0.55311300000000
H           48.02010600000000        4.40764500000000        1.11651800000000
H           53.47894500000000        4.40179100000000        0.68238900000000
H           55.29444100000000        2.63942800000000        0.26411700000000
H           54.97442599999999       -2.72566300000000        0.00196900000000
H           53.01711300000000       -4.52946900000000       -0.49463500000000
H           50.30980200000000       -4.52343900000000       -3.38425800000000
H           50.74596100000000       -8.05039000000000       -4.49183900000000
H           49.17314199999999       -7.16708200000000       -4.62180800000000
H           50.72798600000000       -6.33197200000000       -5.01841400000000
H           50.35591400000000       -8.63925900000000       -2.12449600000000
H           50.33229499999999       -7.75306900000000        1.54768700000000
H           49.72208900000000       -8.98322500000000        0.38389400000000
H           51.50003699999999       -8.69232900000000        0.53819500000000
H           50.52241899999999       -5.48559000000000        0.80073200000000
H           47.71776400000000       -4.25939700000000       -1.56910500000000
H           46.04476100000000       -2.33305000000000       -1.20173800000000
H           50.15695600000000        5.55995300000000       -0.70326300000000
H           49.67492099999999        9.08460100000000        0.31254900000000
H           49.47263200000000        7.88886000000000       -1.01442700000000
H           51.10110399999999        8.60441400000000       -0.68942000000000
H           50.93041999999999        8.46265900000000        2.37616300000000
H           50.69850200000000        6.72928700000000        4.99080500000000
H           52.09809200000000        7.71694400000000        4.41434200000000
H           52.31928600000000        5.96485000000000        4.75060500000000
H           51.38657900000000        4.26545500000000        3.20802700000000
Cu          82.61352200000000       -0.01553700000000       -0.02016100000000
C           85.97221100000000        0.15389200000000       -0.28089000000000
C           85.30789099999998       -0.49972900000000       -1.23759500000000
C           85.95754100000001       -1.22760700000000       -2.32130200000000
C           85.01482600000000       -1.75009300000000       -3.08175700000000
C           83.70910499999999       -1.37260900000000       -2.52402400000000
N           83.88827000000001       -0.58126400000000       -1.34931900000000
C           82.51393200000000       -1.71728700000000       -3.04414300000000
C           81.21861600000000       -1.30599300000000       -2.44342800000000
C           79.92184500000000       -1.49799000000000       -3.10268200000000
C           78.98866199999999       -1.03814900000000       -2.29582700000000
N           81.08574499999999       -0.74772000000000       -1.27854100000000
C           79.68228800000000       -0.54560700000000       -1.11110400000000
C           79.09069900000000       -0.02320100000000       -0.02342200000000
C           79.84926800000000        0.46487100000000        1.15371700000000
C           79.29207899999999        0.78449600000000        2.31517600000000
C           80.33931500000000        1.30297900000000        3.17022800000000
C           81.47348399999998        1.26395400000000        2.47945700000000
C           82.77543700000000        1.78226400000000        2.97949200000000
C           82.80050300000001        2.50494800000000        4.27116900000000
C           82.86697900000000        3.90529300000000        4.29537300000000
C           82.87162100000000        4.59238800000000        5.51835800000000
C           82.97740299999998        6.08862600000000        5.54269300000000
C           82.84381500000001        3.86719300000000        6.71974700000000
C           82.78675200000001        2.46562500000000        6.70418500000000
C           82.72000700000000        1.70699400000000        7.99704600000000
C           82.75521399999998        1.78843500000000        5.47574100000000
C           83.92858099999999        1.60227900000000        2.30868000000000
C           85.24925100000000        2.05865100000000        2.73909600000000
C           86.10450500000000        1.60265100000000        1.84623500000000
C           85.34082200000000        0.85915100000000        0.84571400000000
N           84.07060400000000        0.85186600000000        1.10498200000000
N           81.25326400000000        0.73162100000000        1.17069700000000
C           82.46440000000000       -2.53697700000000       -4.27488000000000
C           82.77988300000000       -1.96868600000000       -5.51768300000000
C           82.73689800000000       -2.74721300000000       -6.68331600000000
C           83.05704200000000       -2.13526600000000       -8.01532200000000
C           82.33626099999999       -4.08940700000000       -6.60470200000000
C           81.99523300000000       -4.65892200000000       -5.36876300000000
C           81.61290200000001       -6.10696100000000       -5.28306700000000
C           82.07634899999999       -3.88200100000000       -4.20411200000000
H           87.05516200000000        0.16115500000000       -0.32149600000000
H           87.02215500000000       -1.33656600000000       -2.48395400000000
H           85.20075900000001       -2.35147000000000       -3.96182500000000
H           79.74192100000000       -1.93286900000000       -4.07704800000000
H           77.92642399999998       -1.04055200000000       -2.50077200000000
H           78.24644000000001        0.70467900000000        2.57929600000000
H           80.20375300000001        1.68376700000000        4.17357200000000
H           82.91106400000000        4.45750200000000        3.36341600000000
H           82.47490400000000        6.50308100000000        6.44265700000000
H           84.04772400000000        6.38203200000000        5.55808300000000
H           82.49287900000000        6.53049900000000        4.64558000000000
H           82.86495100000000        4.39322400000000        7.66723300000000
H           82.88857000000000        0.61949800000000        7.83827000000000
H           83.49877699999999        2.07972400000000        8.69584700000000
H           81.72082800000000        1.85054600000000        8.45940000000000
H           82.69844700000000        0.70574800000000        5.45248600000000
H           85.50310200000000        2.64059200000000        3.61508200000000
H           87.17610500000001        1.75152100000000        1.86713300000000
H           83.06390900000000       -0.92437300000000       -5.57514900000000
H           83.54594500000000       -2.88116800000000       -8.67772400000000
H           83.74823400000000       -1.27379000000000       -7.89862400000000
H           82.11976099999998       -1.78513600000000       -8.49542700000000
H           82.29044500000001       -4.69009400000000       -7.50592900000000
H           82.52236300000000       -6.71888800000000       -5.11324700000000
H           81.12277399999999       -6.44013700000000       -6.22233400000000
H           80.90157900000000       -6.27539000000000       -4.44588700000000
H           81.83428599999999       -4.32073300000000       -3.24305600000000
C           55.84211000000000       -0.02320100000000       -0.02342200000000
C           57.06402799999999       -0.02320100000000       -0.02342200000000
C           65.99947400000001       -0.02320100000000       -0.02342200000000
C           67.22139199999999       -0.02320100000000       -0.02342200000000
C           76.15683799999999       -0.02320100000000       -0.02342200000000
C           77.37875500000000       -0.02320100000000       -0.02342200000000
Cu          61.42463900000000       -0.06932000000000       -0.03036900000000
C           58.05527700000000        0.02458600000000        0.02482000000000
C           58.71154500000000        1.19550600000000       -0.07384500000000
C           58.07157999999999        2.51255000000000       -0.08874600000000
C           59.00774300000000        3.42613700000000       -0.25032500000000
C           60.30418400000000        2.74770700000000       -0.35039800000000
N           60.12600300000000        1.33446200000000       -0.22929100000000
C           61.48823300000000        3.36762400000000       -0.54078400000000
C           62.78555500000000        2.64500300000000       -0.57597000000000
C           64.05453100000000        3.26219300000000       -0.98316500000000
C           65.00726800000000        2.36569900000000       -0.82836800000000
N           62.95352099999999        1.41739500000000       -0.19418000000000
C           64.35215599999999        1.16425500000000       -0.32743600000000
C           64.96708700000001        0.02458600000000        0.02482000000000
C           64.21590700000000       -1.15936700000000        0.49264200000000
C           64.75040700000000       -2.17178100000000        1.16346900000000
C           63.71799200000000       -3.17954800000000        1.31342100000000
C           62.62436400000000       -2.71494000000000        0.71982200000000
C           61.37138700000000       -3.48753500000000        0.54337200000000
C           61.43472100000000       -4.96710300000000        0.62937300000000
C           60.73704699999999       -5.65174900000000        1.63650800000000
C           60.81272600000000       -7.04885100000000        1.72890900000000
C           60.10264699999999       -7.76825400000000        2.83693800000000
C           61.61810799999999       -7.75932300000000        0.82615500000000
C           62.31331700000000       -7.08532000000000       -0.18874400000000
C           63.19786499999999       -7.84977500000000       -1.12858100000000
C           62.23044400000000       -5.68779800000000       -0.27328000000000
C           60.19948200000000       -2.87515000000000        0.28701400000000
C           58.92467099999999       -3.53501300000000        0.02473100000000
C           58.03640799999999       -2.57250100000000       -0.11816900000000
C           58.73297700000000       -1.29206600000000        0.04557400000000
N           59.99726800000000       -1.46205100000000        0.27942700000000
N           62.84839500000000       -1.41574600000000        0.17569900000000
C           61.52263000000000        4.83854300000000       -0.71378100000000
C           62.11000400000000        5.64732600000000        0.26987600000000
C           62.15845700000000        7.03954400000000        0.10808400000000
C           62.83021500000000        7.89465700000000        1.14165000000000
C           61.63971400000000        7.61860700000000       -1.06009100000000
C           61.03917899999999        6.81898400000000       -2.04421600000000
C           60.51732800000000        7.44163900000000       -3.30458400000000
C           60.99711400000000        5.42751000000000       -1.87379200000000
H           57.01758199999999        2.73217900000000        0.01599000000000
H           58.82244800000000        4.49186900000000       -0.28948400000000
H           64.20384199999999        4.27081000000000       -1.34573000000000
H           66.05687100000000        2.52088400000000       -1.04002700000000
H           65.77429600000001       -2.25493400000000        1.50303000000000
H           63.83447300000000       -4.14751800000000        1.78302800000000
H           60.14315500000000       -5.09517900000000        2.35222700000000
H           59.86378800000000       -8.81231400000000        2.54017000000000
H           60.75065400000000       -7.78738600000000        3.73792100000000
H           59.14975599999999       -7.25556800000000        3.08730400000000
H           61.70548100000000       -8.83617800000000        0.91369400000000
H           63.34670999999999       -7.29019400000000       -2.07727500000000
H           62.74090800000000       -8.83156100000000       -1.37749200000000
H           64.18588600000000       -8.01876000000000       -0.65035200000000
H           62.78362800000000       -5.15893100000000       -1.04060100000000
H           58.72204100000000       -4.59505900000000       -0.05215000000000
H           56.98698699999999       -2.72597600000000       -0.33021900000000
H           62.53082799999999        5.19099200000000        1.15854000000000
H           62.39681899999999        8.91746700000000        1.14792500000000
H           63.91492299999999        7.96264000000000        0.91595100000000
H           62.69687800000000        7.46003200000000        2.15506600000000
H           61.70310400000000        8.69084400000000       -1.20378000000000
H           60.09108600000000        8.44550700000000       -3.09418800000000
H           59.71614800000000        6.81515400000000       -3.75255700000000
H           61.34627799999999        7.54522100000000       -4.03584900000000
H           60.56142899999999        4.80049600000000       -2.64333000000000
Cu          71.58200299999999       -0.06932000000000       -0.03036900000000
C           68.21263999999999        0.02458600000000        0.02482000000000
C           68.86890900000000        1.19550600000000       -0.07384500000000
C           68.22894400000000        2.51255000000000       -0.08874600000000
C           69.16510700000001        3.42613700000000       -0.25032500000000
C           70.46154700000000        2.74770700000000       -0.35039800000000
N           70.28336700000000        1.33446200000000       -0.22929100000000
C           71.64559700000000        3.36762400000000       -0.54078400000000
C           72.94291900000000        2.64500300000000       -0.57597000000000
C           74.21189500000000        3.26219300000000       -0.98316500000000
C           75.16463199999998        2.36569900000000       -0.82836800000000
N           73.11088500000000        1.41739500000000       -0.19418000000000
C           74.50951899999998        1.16425500000000       -0.32743600000000
C           75.12445099999999        0.02458600000000        0.02482000000000
C           74.37327099999999       -1.15936700000000        0.49264200000000
C           74.90777100000000       -2.17178100000000        1.16346900000000
C           73.87535600000000       -3.17954800000000        1.31342100000000
C           72.78172699999999       -2.71494000000000        0.71982200000000
C           71.52875100000000       -3.48753500000000        0.54337200000000
C           71.59208500000000       -4.96710300000000        0.62937300000000
C           70.89441100000001       -5.65174900000000        1.63650800000000
C           70.97008999999998       -7.04885100000000        1.72890900000000
C           70.26001100000001       -7.76825400000000        2.83693800000000
C           71.77547100000000       -7.75932300000000        0.82615500000000
C           72.47068100000000       -7.08532000000000       -0.18874400000000
C           73.35522899999999       -7.84977500000000       -1.12858100000000
C           72.38780800000001       -5.68779800000000       -0.27328000000000
C           70.35684499999999       -2.87515000000000        0.28701400000000
C           69.08203500000000       -3.53501300000000        0.02473100000000
C           68.19377200000000       -2.57250100000000       -0.11816900000000
C           68.89034100000001       -1.29206600000000        0.04557400000000
N           70.15463200000001       -1.46205100000000        0.27942700000000
N           73.00575899999998       -1.41574600000000        0.17569900000000
C           71.67999399999999        4.83854300000000       -0.71378100000000
C           72.26736799999999        5.64732600000000        0.26987600000000
C           72.31582099999999        7.03954400000000        0.10808400000000
C           72.98757900000000        7.89465700000000        1.14165000000000
C           71.79707800000000        7.61860700000000       -1.06009100000000
C           71.19654300000001        6.81898400000000       -2.04421600000000
C           70.67469199999999        7.44163900000000       -3.30458400000000
C           71.15447800000000        5.42751000000000       -1.87379200000000
H           67.17494600000001        2.73217900000000        0.01599000000000
H           68.97981199999998        4.49186900000000       -0.28948400000000
H           74.36120600000000        4.27081000000000       -1.34573000000000
H           76.21423500000000        2.52088400000000       -1.04002700000000
H           75.93165999999999       -2.25493400000000        1.50303000000000
H           73.99183700000000       -4.14751800000000        1.78302800000000
H           70.30051899999999       -5.09517900000000        2.35222700000000
H           70.02115200000000       -8.81231400000000        2.54017000000000
H           70.90801800000000       -7.78738600000000        3.73792100000000
H           69.30712000000000       -7.25556800000000        3.08730400000000
H           71.86284499999998       -8.83617800000000        0.91369400000000
H           73.50407300000001       -7.29019400000000       -2.07727500000000
H           72.89827199999999       -8.83156100000000       -1.37749200000000
H           74.34325000000000       -8.01876000000000       -0.65035200000000
H           72.94099199999999       -5.15893100000000       -1.04060100000000
H           68.87940500000001       -4.59505900000000       -0.05215000000000
H           67.14435100000000       -2.72597600000000       -0.33021900000000
H           72.68819200000000        5.19099200000000        1.15854000000000
H           72.55418299999999        8.91746700000000        1.14792500000000
H           74.07228700000000        7.96264000000000        0.91595100000000
H           72.85424200000000        7.46003200000000        2.15506600000000
H           71.86046800000000        8.69084400000000       -1.20378000000000
H           70.24845000000001        8.44550700000000       -3.09418800000000
H           69.87351099999999        6.81515400000000       -3.75255700000000
H           71.50364200000000        7.54522100000000       -4.03584900000000
H           70.71879300000001        4.80049600000000       -2.64333000000000
276
 energy: -442.871235891803 gnorm: 0.739760972526 xtb: 6.5.1 (b24c23e)
Cu          50.60953257593533       -0.02735815584884       -0.03157682105228
C           47.24922482304815        0.16556052513284       -0.26809773523862
C           47.91793431050350        1.27762972504570        0.09715974870340
C           47.26207598082006        2.51571073318623        0.49254955990706
C           48.21087804938480        3.39663990980109        0.78444813986160
C           49.50966453272181        2.75005809673120        0.57558866939862
N           49.32323977841966        1.41409880681518        0.14631613106697
C           50.71510438302123        3.34776130873926        0.76202024059803
C           51.99760341028036        2.66753156325097        0.53751459068833
C           53.29197335884250        3.34988350369254        0.53760711018369
C           54.23238480579260        2.43717546867603        0.31806105084061
N           52.14164110056148        1.38098225682785        0.32169360961436
C           53.53984791031586        1.16838041528936        0.17552205547277
C           54.14153764626182       -0.03143697837601       -0.02364440969342
C           53.36888466143738       -1.27929983945957       -0.16569304676348
C           53.92906382032542       -2.50673673291661       -0.14965918070406
C           52.89346227663592       -3.46134920348741       -0.40673552804653
C           51.73825167887376       -2.77855808723121       -0.56470711579495
C           50.45276816351453       -3.40614867091771       -0.91964061777599
C           50.42194818419826       -4.85297881733007       -1.25630604754484
C           50.35399328681906       -5.26635169189000       -2.59290159686873
C           50.34842760131869       -6.63029014545105       -2.91192675625892
C           50.24425977928409       -7.07103575158830       -4.34582181231078
C           50.37720340848831       -7.58016496830708       -1.88251956999949
C           50.43445220697791       -7.17609172766037       -0.54234703198727
C           50.50035402358059       -8.20917730607471        0.54870851999908
C           50.46579971246192       -5.81023775798677       -0.23460060724999
C           49.29094477586623       -2.71432825888425       -0.93541681451487
C           47.97639932642639       -3.25735708006732       -1.25382657605162
C           47.11211588551329       -2.26554851330497       -1.06330438281830
C           47.86997079718047       -1.09782298029013       -0.62766811735168
N           49.15173679541474       -1.35639493112997       -0.55099403489424
N           51.97232691523292       -1.38423691570074       -0.41479564056167
C           50.75789266469261        4.76176472517382        1.20763993393188
C           50.44097892279306        5.79627413599504        0.31791385484631
C           50.48498771997018        7.13037895860372        0.74006859392424
C           50.16271751767581        8.24184010960406       -0.22024529157472
C           50.88447989422539        7.42739927043634        2.04934447775878
C           51.22428650894393        6.40092684975508        2.93958063889738
C           51.60927020840324        6.72239755050592        4.35701805978584
C           51.14456716449646        5.06825868069452        2.51785733299332
H           46.16589585525443        0.21065087564756       -0.28399303037398
H           46.19869572144617        2.70364752843876        0.55242101839281
H           48.02262102286442        4.40787743219987        1.11658633203945
H           53.47683699318110        4.40264402111186        0.68272895346781
H           55.29333311773050        2.63698646392179        0.26382375809720
H           54.97419463206726       -2.72670518376714        0.00205264691753
H           53.01808376531663       -4.52956169362713       -0.49419667105399
H           50.31002243851951       -4.52375684833215       -3.38382586939496
H           50.74415430768281       -8.04798494953597       -4.49162238626558
H           49.17608973511219       -7.16700784259576       -4.62170378644945
H           50.72620395156301       -6.33389559010487       -5.01687822380006
H           50.35599973321185       -8.63874789093647       -2.12440708035451
H           50.33303867986688       -7.75438070720021        1.54487815712468
H           49.72451379612096       -8.98169811798027        0.38451295332740
H           51.49720853600900       -8.69152363801102        0.53860125760147
H           50.52231781806016       -5.48578658978358        0.80019629896126
H           47.72020567302791       -4.25940670024296       -1.56894206686774
H           46.04413917162002       -2.33125869829114       -1.20135338200254
H           50.15701318232036        5.55995879737012       -0.70277849991636
H           49.67658886750540        9.08274662261131        0.31091963519029
H           49.47480748700593        7.88991188962779       -1.01266341679791
H           51.09837152162068        8.60393692529076       -0.68855490954591
H           50.93043331196099        8.46216942812552        2.37602319724963
H           50.70114624507261        6.72940031323646        4.98973865478624
H           52.09645295817203        7.71449454092146        4.41453293884906
H           52.31703778017677        5.96679423571605        4.74995532226720
H           51.38656815962494        4.26576322570882        3.20766222541194
Cu          82.61148973763549       -0.01427272724965       -0.02162070243175
C           85.97158123831524        0.15922832950565       -0.27290464998805
C           85.30292821109525       -0.50106285954577       -1.23930399527689
C           85.95880693177391       -1.22559963353157       -2.31843802350890
C           85.01012438877680       -1.75105590152424       -3.08327675447893
C           83.71124102989738       -1.37035011112277       -2.52018791902783
N           83.89781203611236       -0.58672394345034       -1.35689015840308
C           82.50571334053900       -1.71595400928964       -3.04245383252056
C           81.22332907368012       -1.31075402044552       -2.45126614300443
C           79.92835485155187       -1.50080560909007       -3.10694866582686
C           78.98783279097287       -1.03626597202599       -2.29188309755071
N           81.07937838481678       -0.74577468559972       -1.27642171053536
C           79.68063742532108       -0.54575179959360       -1.11179884663298
C           79.08128472860315       -0.02051515619409       -0.01569238373669
C           79.85189113717044        0.46321911047379        1.14322193739152
C           79.29142111551361        0.78953224083811        2.32709092530205
C           80.32712742419277        1.30189669034398        3.17209738899763
C           81.48256111078405        1.26360164466425        2.47210007700173
C           82.76809902137816        1.77928002190008        2.97629637221916
C           82.79890500006680        2.50538705954312        4.27227401575994
C           82.86687302544840        3.90422513597109        4.29724458190742
C           82.87243853367282        4.59030990659678        5.51847803891648
C           82.97660633943661        6.09021890201130        5.54265600010318
C           82.84366278057247        3.86599858918270        6.71735252351010
C           82.78641490573909        2.46631389107274        6.70231887226625
C           82.72051236247242        1.70595575462718        7.99826780119662
C           82.75506440527201        1.79052566193617        5.47610046770618
C           83.92997102259034        1.60181467390785        2.30745272959356
C           85.24455714517616        2.05884629409386        2.74044774880803
C           86.10878847443452        1.59981738926077        1.84090926665360
C           85.35082388837355        0.85632599799742        0.84062717145219
N           84.06938935920428        0.85496167945016        1.11031696434606
N           81.24843423776352        0.73171968868588        1.17509066075816
C           82.46295360620856       -2.53757305702206       -4.27659136330520
C           82.77988526119061       -1.97097058928302       -5.51787128670860
C           82.73588201199973       -2.74780569545987       -6.68174519103785
C           83.05814832615040       -2.13483847404544       -8.01658213179217
C           82.33638530542591       -4.08801467100593       -6.60255963034996