      -----------------------------------------------------------      
     |                   =====================                   |     
     |                           x T B                           |     
     |                   =====================                   |     
     |                         S. Grimme                         |     
     |          Mulliken Center for Theoretical Chemistry        |     
     |                    University of Bonn                     |     
      -----------------------------------------------------------      

   * xtb version 6.5.1 (b24c23e) compiled by 'conda@728c89f4b128' on 2022-07-12

   xtb is free software: you can redistribute it and/or modify it under
   the terms of the GNU Lesser General Public License as published by
   the Free Software Foundation, either version 3 of the License, or
   (at your option) any later version.
   
   xtb is distributed in the hope that it will be useful,
   but WITHOUT ANY WARRANTY; without even the implied warranty of
   MERCHANTABILITY or FITNESS FOR A PARTICULAR PURPOSE.  See the
   GNU Lesser General Public License for more details.
   
   Cite this work as:
   * C. Bannwarth, E. Caldeweyher, S. Ehlert, A. Hansen, P. Pracht,
     J. Seibert, S. Spicher, S. Grimme, WIREs Comput. Mol. Sci., 2020, 11,
     e01493. DOI: 10.1002/wcms.1493
   
   for GFN2-xTB:
   * C. Bannwarth, S. Ehlert and S. Grimme., J. Chem. Theory Comput., 2019,
     15, 1652-1671. DOI: 10.1021/acs.jctc.8b01176
   for GFN1-xTB:
   * S. Grimme, C. Bannwarth, P. Shushkov, J. Chem. Theory Comput., 2017,
     13, 1989-2009. DOI: 10.1021/acs.jctc.7b00118
   for GFN0-xTB:
   * P. Pracht, E. Caldeweyher, S. Ehlert, S. Grimme, ChemRxiv, 2019, preprint.
     DOI: 10.26434/chemrxiv.8326202.v1
   for GFN-FF:
   * S. Spicher and S. Grimme, Angew. Chem. Int. Ed., 2020, 59, 15665-15673.
     DOI: 10.1002/anie.202004239
   
   for ALPB and GBSA implicit solvation:
   * S. Ehlert, M. Stahn, S. Spicher, S. Grimme, J. Chem. Theory Comput.,
     2021, 17, 4250-4261. DOI: 10.1021/acs.jctc.1c00471
   
   for DFT-D4:
   * E. Caldeweyher, C. Bannwarth and S. Grimme, J. Chem. Phys., 2017,
     147, 034112. DOI: 10.1063/1.4993215
   * E. Caldeweyher, S. Ehlert, A. Hansen, H. Neugebauer, S. Spicher,
     C. Bannwarth and S. Grimme, J. Chem. Phys., 2019, 150, 154122.
     DOI: 10.1063/1.5090222
   * E. Caldeweyher, J.-M. Mewes, S. Ehlert and S. Grimme, Phys. Chem. Chem. Phys.
     2020, 22, 8499-8512. DOI: 10.1039/D0CP00502A
   
   for sTDA-xTB:
   * S. Grimme and C. Bannwarth, J. Chem. Phys., 2016, 145, 054103.
     DOI: 10.1063/1.4959605
   
   in the mass-spec context:
   * V. Asgeirsson, C. Bauer and S. Grimme, Chem. Sci., 2017, 8, 4879.
     DOI: 10.1039/c7sc00601b
   * J. Koopman and S. Grimme, ACS Omega 2019, 4, 12, 15120-15133.
     DOI: 10.1021/acsomega.9b02011
   
   for metadynamics refer to:
   * S. Grimme, J. Chem. Theory Comput., 2019, 155, 2847-2862
     DOI: 10.1021/acs.jctc.9b00143
   
   for SPH calculations refer to:
   * S. Spicher and S. Grimme, J. Chem. Theory Comput., 2021, 17, 1701-1714
     DOI: 10.1021/acs.jctc.0c01306
   
   with help from (in alphabetical order)
   P. Atkinson, C. Bannwarth, F. Bohle, G. Brandenburg, E. Caldeweyher
   M. Checinski, S. Dohm, S. Ehlert, S. Ehrlich, I. Gerasimov, C. Hölzer
   A. Katbashev, J. Koopman, C. Lavigne, S. Lehtola, F. März, M. Müller,
   F. Musil, H. Neugebauer, J. Pisarek, C. Plett, P. Pracht, F. Pultar,
   J. Seibert, P. Shushkov, S. Spicher, M. Stahn, M. Steiner, T. Strunk,
   J. Stückrath, T. Rose, and J. Unsleber
   
 * started run on 2022/07/29 at 15:59:41.311     

           -------------------------------------------------
          |                Calculation Setup                |
           -------------------------------------------------

          program call               : xtb Fe_PhCHO_C2_2.xyz --gfn 1 --opt -T 48
          hostname                   : cx3-15-15.cx3.hpc.ic.ac.uk
          coordinate file            : Fe_PhCHO_C2_2.xyz
          omp threads                :                     1

   ID    Z sym.   atoms
    1   26 Fe     1, 61
    2    6 C      2-6, 8-13, 15-19, 21-26, 28-33, 35-40, 62-66, 68-73, 75-79,
                  81-86, 88-93, 95-100, 121, 122
    3    7 N      7, 20, 27, 41, 67, 80, 87, 101
    4    8 O      14, 34, 74, 94
    5    1 H      42-60, 102-120
########################################################################
[WARNING] Please study the warnings concerning your input carefully
-1- prog_main_parseArguments: Unknown option '-T' provided
########################################################################

           -------------------------------------------------
          |                 G F N 1 - x T B                 |
           -------------------------------------------------

        Reference                      10.1021/acs.jctc.7b00118
      * Hamiltonian:
        H0-scaling (s, p, d)           1.850000    2.250000    2.000000
        zeta-weighting                 0.000000
      * Dispersion:
        s8                             2.400000
        a1                             0.630000
        a2                             5.000000
        s9                             0.000000
      * Repulsion:
        kExp                           1.500000
        rExp                           1.000000
      * Coulomb:
        alpha                          2.000000
        third order                    atomic
        anisotropic                    false
      * Halogen bond correction:
        rad-scale                      1.300000
        damping                        0.440000


          ...................................................
          :                      SETUP                      :
          :.................................................:
          :  # basis functions                 424          :
          :  # atomic orbitals                 422          :
          :  # shells                          246          :
          :  # electrons                       398          :
          :  # halogen bonds                     0          :
          :  max. iterations                   250          :
          :  Hamiltonian                  GFN1-xTB          :
          :  restarted?                      false          :
          :  GBSA solvation                  false          :
          :  PC potential                    false          :
          :  electronic temp.          300.0000000     K    :
          :  accuracy                    1.0000000          :
          :  -> integral cutoff          0.2500000E+02      :
          :  -> integral neglect         0.1000000E-07      :
          :  -> SCF convergence          0.1000000E-05 Eh   :
          :  -> wf. convergence          0.2000000E-04 e    :
          :  Broyden damping             0.4000000          :
          ...................................................

 iter      E             dE          RMSdq      gap      omega  full diag
   1   -200.7907838 -0.200791E+03  0.121E+01    0.12       0.0  T
   2   -128.0188022  0.727720E+02  0.127E+01    0.10       1.0  T
   3   -201.9097798 -0.738910E+02  0.821E+00    0.01       1.0  T
   4   -163.1460444  0.387637E+02  0.913E+00    0.33       1.0  T
   5   -176.0776187 -0.129316E+02  0.867E+00    0.00       1.0  T
   6   -208.5913143 -0.325137E+02  0.562E+00    0.18       1.0  T
   7   -218.1222720 -0.953096E+01  0.358E+00    0.25       1.0  T
   8   -217.6520330  0.470239E+00  0.355E+00    0.07       1.0  T
   9   -218.1822682 -0.530235E+00  0.334E+00    0.17       1.0  T
  10   -220.7803489 -0.259808E+01  0.131E+00    0.05       1.0  T
  11   -195.5570094  0.252233E+02  0.601E+00    0.14       1.0  T
  12   -220.5110684 -0.249541E+02  0.169E+00    0.19       1.0  T
  13   -221.4126753 -0.901607E+00  0.862E-01    0.01       1.0  T
  14   -219.5025863  0.191009E+01  0.195E+00    0.06       1.0  T
  15   -221.3658784 -0.186329E+01  0.871E-01    0.03       1.0  T
  16   -219.8864146  0.147946E+01  0.175E+00    0.09       1.0  T
  17   -221.6133347 -0.172692E+01  0.635E-01    0.01       1.0  T
  18   -221.6234924 -0.101577E-01  0.573E-01    0.02       1.0  T
  19   -221.6367480 -0.132557E-01  0.559E-01    0.02       1.0  T
  20   -221.3578492  0.278899E+00  0.844E-01    0.04       1.0  T
  21   -221.7714103 -0.413561E+00  0.234E-01    0.01       1.0  T
  22   -221.7642308  0.717949E-02  0.258E-01    0.01       1.0  T
  23   -221.7452347  0.189961E-01  0.309E-01    0.01       1.0  T
  24   -221.8018491 -0.566144E-01  0.762E-02    0.01       1.0  T
  25   -221.7706826  0.311664E-01  0.234E-01    0.01       1.0  T
  26   -221.7934186 -0.227359E-01  0.138E-01    0.01       1.0  T
  27   -221.8054334 -0.120148E-01  0.191E-02    0.01       1.0  T
  28   -221.8023392  0.309416E-02  0.721E-02    0.01       1.0  T
  29   -221.8047114 -0.237217E-02  0.386E-02    0.01       1.0  T
  30   -221.8040514  0.659990E-03  0.503E-02    0.01       1.0  T
  31   -221.8048668 -0.815452E-03  0.352E-02    0.01       1.0  T
  32   -221.8052237 -0.356898E-03  0.260E-02    0.01       1.0  T
  33   -221.8055874 -0.363681E-03  0.987E-03    0.01       1.0  T
  34   -221.8056190 -0.315931E-04  0.681E-03    0.01       1.3  T
  35   -221.8056440 -0.249832E-04  0.251E-03    0.01       3.6  T
  36   -221.8056472 -0.319517E-05  0.112E-03    0.01       8.1  T
  37   -221.8056474 -0.261989E-06  0.904E-04    0.01      10.0  T
  38   -221.8056479 -0.404196E-06  0.389E-04    0.01      23.3  T
  39   -221.8056477  0.132593E-06  0.602E-04    0.01      15.0  T
  40   -221.8056479 -0.221575E-06  0.123E-04    0.01      73.5  T
  41   -221.8056479 -0.577904E-08  0.774E-05    0.01     116.9  T

   *** convergence criteria satisfied after 41 iterations ***

         #    Occupation            Energy/Eh            Energy/eV
      -------------------------------------------------------------
         1        2.0000           -0.7845223             -21.3479
       ...           ...                  ...                  ...
       193        2.0000           -0.4004965             -10.8981
       194        1.9993           -0.3934180             -10.7054
       195        1.9990           -0.3930756             -10.6961
       196        1.9972           -0.3920762             -10.6689
       197        1.9971           -0.3920337             -10.6678
       198        1.4485           -0.3867456             -10.5239
       199        1.3226           -0.3864639             -10.5162 (HOMO)
       200        1.0740           -0.3859691             -10.5028 (LUMO)
       201        0.1623           -0.3835227             -10.4362
       202                         -0.3624004              -9.8614
       203                         -0.3457840              -9.4093
       204                         -0.3450653              -9.3897
       ...                                ...                  ...
       422                          1.8198183              49.5198
      -------------------------------------------------------------
                  HL-Gap            0.0004947 Eh            0.0135 eV
             Fermi-level           -0.3858283 Eh          -10.4989 eV

 SCC (total)                   0 d,  0 h,  0 min,  1.994 sec
 SCC setup                      ...        0 min,  0.004 sec (  0.215%)
 Dispersion                     ...        0 min,  0.003 sec (  0.156%)
 classical contributions        ...        0 min,  0.001 sec (  0.064%)
 integral evaluation            ...        0 min,  0.112 sec (  5.593%)
 iterations                     ...        0 min,  1.584 sec ( 79.462%)
 molecular gradient             ...        0 min,  0.281 sec ( 14.073%)
 printout                       ...        0 min,  0.009 sec (  0.436%)

         :::::::::::::::::::::::::::::::::::::::::::::::::::::
         ::                     SUMMARY                     ::
         :::::::::::::::::::::::::::::::::::::::::::::::::::::
         :: total energy            -218.436756414689 Eh    ::
         :: gradient norm              0.640047127684 Eh/a0 ::
         :: HOMO-LUMO gap              0.013462794198 eV    ::
         ::.................................................::
         :: SCC energy              -221.805647948635 Eh    ::
         :: -> electrostatic           0.315274390334 Eh    ::
         :: repulsion energy           3.480573012066 Eh    ::
         :: dispersion energy         -0.111681478119 Eh    ::
         :: halogen bond corr.         0.000000000000 Eh    ::
         :: add. restraining           0.000000000000 Eh    ::
         :: total charge               0.000000000001 e     ::
         :::::::::::::::::::::::::::::::::::::::::::::::::::::

      ----------------------------------------------------------- 
     |                   =====================                   |
     |                        A N C O P T                        |
     |                   =====================                   |
     |               Approximate Normal Coordinate               |
     |                Rational Function Optimizer                |
      ----------------------------------------------------------- 

          ...................................................
          :                      SETUP                      :
          :.................................................:
          :   optimization level            normal          :
          :   max. optcycles                   366          :
          :   ANC micro-cycles                  20          :
          :   degrees of freedom               360          :
          :.................................................:
          :   RF solver                   davidson          :
          :   write xtbopt.log                true          :
          :   linear?                        false          :
          :   energy convergence         0.5000000E-05 Eh   :
          :   grad. convergence          0.1000000E-02 Eh/α :
          :   maximium RF displ.         1.0000000          :
          :   Hlow (freq-cutoff)         0.1000000E-01      :
          :   Hmax (freq-cutoff)         5.0000000          :
          :   S6 in model hess.         20.0000000          :
          ...................................................

generating ANC from model Hessian ...
Using Lindh-Hessian (1995)
 Shifting diagonal of input Hessian by    9.9987839045529003E-003
 Lowest  eigenvalues of input Hessian
    0.000000    0.000000    0.000000    0.000000    0.000000    0.000000
    0.010000    0.010046    0.010055    0.010095    0.010119    0.010239
    0.010307    0.010333    0.010440    0.010475    0.010522    0.010679
 Highest eigenvalues
    2.103100    2.103185    2.219773    2.394707    2.423461    3.323204


........................................................................
.............................. CYCLE    1 ..............................
........................................................................
   1   -221.8056480 -0.221806E+03  0.363E-06    0.01       0.0  T
   2   -221.8056478  0.163602E-06  0.507E-04    0.01      17.9  T
   3   -221.8056480 -0.162799E-06  0.365E-05    0.01     247.8  T
   4   -221.8056480 -0.662652E-09  0.160E-05    0.01     566.2  T
     SCC iter.                  ...        0 min,  0.158 sec
     gradient                   ...        0 min,  0.279 sec
 * total energy  :  -218.4367564 Eh     change       -0.3587928E-08 Eh
   gradient norm :     0.6400469 Eh/α   predicted     0.0000000E+00 (-100.00%)
   displ. norm   :     0.4311153 α      lambda       -0.2006221E+00
   maximum displ.:     0.1560256 α      in ANC's #120, #360, #119, ...

........................................................................
.............................. CYCLE    2 ..............................
........................................................................
   1   -221.8333620 -0.221833E+03  0.237E-01    0.01       0.0  T
   2   -218.1830851  0.365028E+01  0.271E+00    0.03       1.0  T
   3   -221.8597068 -0.367662E+01  0.777E-02    0.00       1.0  T
   4   -221.8375352  0.221716E-01  0.197E-01    0.01       1.0  T
   5   -219.6695195  0.216802E+01  0.185E+00    0.12       1.0  T
   6   -221.8582961 -0.218878E+01  0.779E-02    0.00       1.0  T
   7   -221.8617032 -0.340714E-02  0.203E-02    0.00       1.0  T
   8   -221.8601004  0.160285E-02  0.527E-02    0.00       1.0  T
   9   -221.8589460  0.115434E-02  0.674E-02    0.00       1.0  T
  10   -221.8607627 -0.181664E-02  0.414E-02    0.00       1.0  T
  11   -221.8613226 -0.559991E-03  0.290E-02    0.00       1.0  T
  12   -221.8615954 -0.272769E-03  0.205E-02    0.00       1.0  T
  13   -221.8618567 -0.261323E-03  0.378E-03    0.00       2.4  T
  14   -221.8618660 -0.920858E-05  0.237E-04    0.00      38.3  T
  15   -221.8618637  0.225528E-05  0.189E-03    0.00       4.8  T
  16   -221.8618659 -0.215576E-05  0.453E-04    0.00      20.0  T
  17   -221.8618659 -0.972477E-07  0.215E-04    0.00      42.0  T
  18   -221.8618660 -0.215130E-07  0.105E-04    0.00      86.0  T
  19   -221.8618660 -0.727738E-09  0.979E-05    0.00      92.5  T
     SCC iter.                  ...        0 min,  0.739 sec
     gradient                   ...        0 min,  0.277 sec
 * total energy  :  -218.5779624 Eh     change       -0.1412060E+00 Eh
   gradient norm :     0.2636995 Eh/α   predicted    -0.1189763E+00 ( -15.74%)
   displ. norm   :     0.4441485 α      lambda       -0.8200370E-01
   maximum displ.:     0.1651679 α      in ANC's #120, #119, #117, ...

........................................................................
.............................. CYCLE    3 ..............................
........................................................................
   1   -221.8857929 -0.221886E+03  0.237E-01    0.05       0.0  T
   2   -217.9217940  0.396400E+01  0.279E+00    0.01       1.0  T
   3   -221.8580808 -0.393629E+01  0.360E-01    0.00       1.0  T
   4   -221.4753686  0.382712E+00  0.864E-01    0.05       1.0  T
   5   -221.6137637 -0.138395E+00  0.725E-01    0.04       1.0  T
   6   -221.9048215 -0.291058E+00  0.135E-01    0.01       1.0  T
   7   -221.9105145 -0.569306E-02  0.118E-01    0.03       1.0  T
   8   -221.9116766 -0.116204E-02  0.916E-02    0.03       1.0  T
   9   -221.9133628 -0.168620E-02  0.546E-02    0.02       1.0  T
  10   -221.9144456 -0.108279E-02  0.293E-02    0.02       1.0  T
  11   -221.9145757 -0.130190E-03  0.238E-02    0.02       1.0  T
  12   -221.9128881  0.168768E-02  0.566E-02    0.02       1.0  T
  13   -221.9117588  0.112929E-02  0.703E-02    0.02       1.0  T
  14   -221.9121347 -0.375943E-03  0.660E-02    0.02       1.0  T
  15   -221.9147868 -0.265204E-02  0.145E-02    0.02       1.0  T
  16   -221.9141567  0.630034E-03  0.347E-02    0.02       1.0  T
  17   -221.9148069 -0.650167E-03  0.135E-02    0.02       1.0  T
  18   -221.9148386 -0.317476E-04  0.115E-02    0.02       1.0  T
  19   -221.9149228 -0.841626E-04  0.815E-04    0.02      11.1  T
  20   -221.9149227  0.479545E-07  0.880E-04    0.02      10.3  T
  21   -221.9149232 -0.450282E-06  0.242E-04    0.02      37.4  T
  22   -221.9149232 -0.269525E-07  0.126E-04    0.02      71.9  T
  23   -221.9149232  0.736941E-08  0.165E-04    0.02      54.8  T
     SCC iter.                  ...        0 min,  0.891 sec
     gradient                   ...        0 min,  0.279 sec
 * total energy  :  -218.6335345 Eh     change       -0.5557205E-01 Eh
   gradient norm :     0.1025653 Eh/α   predicted    -0.4909022E-01 ( -11.66%)
   displ. norm   :     0.4557137 α      lambda       -0.2569615E-01
   maximum displ.:     0.1442637 α      in ANC's #120, #119, #73, ...

........................................................................
.............................. CYCLE    4 ..............................
........................................................................
   1   -221.9363872 -0.221936E+03  0.155E-01    0.08       0.0  T
   2   -218.5764883  0.335990E+01  0.258E+00    0.01       1.0  T
   3   -221.8803526 -0.330386E+01  0.391E-01    0.01       1.0  T
   4   -221.6781481  0.202204E+00  0.707E-01    0.02       1.0  T
   5   -221.8054628 -0.127315E+00  0.544E-01    0.00       1.0  T
   6   -221.7933776  0.120851E-01  0.569E-01    0.00       1.0  T
   7   -221.9455650 -0.152187E+00  0.103E-01    0.05       1.0  T
   8   -221.9437864  0.177858E-02  0.117E-01    0.07       1.0  T
   9   -221.9454591 -0.167269E-02  0.832E-02    0.06       1.0  T
  10   -221.9480946 -0.263554E-02  0.337E-02    0.06       1.0  T
  11   -221.9484999 -0.405311E-03  0.199E-02    0.06       1.0  T
  12   -221.9453469  0.315300E-02  0.728E-02    0.05       1.0  T
  13   -221.9409650  0.438189E-02  0.110E-01    0.05       1.0  T
  14   -221.9411637 -0.198632E-03  0.109E-01    0.05       1.0  T
  15   -221.9410763  0.874185E-04  0.109E-01    0.05       1.0  T
  16   -221.9486529 -0.757665E-02  0.104E-02    0.06       1.0  T
  17   -221.9487031 -0.502407E-04  0.620E-03    0.06       1.5  T
  18   -221.9486957  0.740253E-05  0.665E-03    0.06       1.4  T
  19   -221.9487216 -0.258193E-04  0.140E-03    0.06       6.4  T
  20   -221.9487223 -0.729370E-06  0.746E-04    0.06      12.1  T
  21   -221.9487226 -0.315670E-06  0.263E-04    0.06      34.4  T
  22   -221.9487226 -0.170558E-07  0.156E-04    0.06      57.9  T
  23   -221.9487226 -0.125061E-07  0.423E-05    0.06     214.2  T
     SCC iter.                  ...        0 min,  0.889 sec
     gradient                   ...        0 min,  0.280 sec
 * total energy  :  -218.6509246 Eh     change       -0.1739015E-01 Eh
   gradient norm :     0.0418111 Eh/α   predicted    -0.1551631E-01 ( -10.78%)
   displ. norm   :     0.4866356 α      lambda       -0.9748489E-02
   maximum displ.:     0.1508746 α      in ANC's #30, #32, #20, ...

........................................................................
.............................. CYCLE    5 ..............................
........................................................................
   1   -221.9524871 -0.221952E+03  0.129E-01    0.09       0.0  T
   2   -218.7668454  0.318564E+01  0.251E+00    0.00       1.0  T
   3   -221.9604579 -0.319361E+01  0.314E-02    0.07       1.0  T
   4   -221.7829854  0.177472E+00  0.531E-01    0.03       1.0  T
   5   -221.9547848 -0.171799E+00  0.112E-01    0.05       1.0  T
   6   -221.9541744  0.610488E-03  0.117E-01    0.05       1.0  T
   7   -221.9557126 -0.153829E-02  0.956E-02    0.06       1.0  T
   8   -221.9606276 -0.491497E-02  0.271E-02    0.07       1.0  T
   9   -221.9607268 -0.992368E-04  0.132E-02    0.07       1.0  T
  10   -221.9605924  0.134477E-03  0.186E-02    0.07       1.0  T
  11   -221.9607303 -0.137937E-03  0.103E-02    0.07       1.0  T
  12   -221.9607744 -0.440673E-04  0.626E-03    0.07       1.4  T
  13   -221.9607963 -0.218903E-04  0.189E-03    0.07       4.8  T
  14   -221.9607957  0.525983E-06  0.197E-03    0.07       4.6  T
  15   -221.9607980 -0.227971E-05  0.559E-04    0.07      16.2  T
  16   -221.9607982 -0.149805E-06  0.248E-04    0.07      36.6  T
  17   -221.9607982 -0.994976E-08  0.193E-04    0.07      46.8  T
  18   -221.9607982 -0.209852E-07  0.707E-05    0.07     128.0  T
     SCC iter.                  ...        0 min,  0.699 sec
     gradient                   ...        0 min,  0.279 sec
 * total energy  :  -218.6580587 Eh     change       -0.7134090E-02 Eh
   gradient norm :     0.0284929 Eh/α   predicted    -0.6028541E-02 ( -15.50%)
   displ. norm   :     0.5172263 α      lambda       -0.5571091E-02
   maximum displ.:     0.2013487 α      in ANC's #30, #20, #32, ...

........................................................................
.............................. CYCLE    6 ..............................
........................................................................
   1   -221.9548173 -0.221955E+03  0.132E-01    0.10       0.0  T
   2   -218.7439489  0.321087E+01  0.251E+00    0.00       1.0  T
   3   -221.9529453 -0.320900E+01  0.139E-01    0.10       1.0  T
   4   -221.9208697  0.320756E-01  0.257E-01    0.07       1.0  T
   5   -221.9551069 -0.342372E-01  0.114E-01    0.08       1.0  T
   6   -221.9632005 -0.809356E-02  0.178E-02    0.08       1.0  T
   7   -221.9631821  0.183731E-04  0.184E-02    0.08       1.0  T
   8   -221.9632428 -0.607641E-04  0.576E-03    0.08       1.6  T
   9   -221.9632111  0.317446E-04  0.109E-02    0.08       1.0  T
  10   -221.9632490 -0.378485E-04  0.396E-03    0.08       2.3  T
  11   -221.9632538 -0.483807E-05  0.293E-03    0.08       3.1  T
  12   -221.9632579 -0.415822E-05  0.127E-03    0.08       7.1  T
  13   -221.9632581 -0.107732E-06  0.987E-04    0.08       9.2  T
  14   -221.9632583 -0.266661E-06  0.718E-04    0.08      12.6  T
  15   -221.9632586 -0.275761E-06  0.307E-04    0.08      29.5  T
  16   -221.9632587 -0.557422E-07  0.876E-05    0.08     103.3  T
  17   -221.9632587 -0.366128E-08  0.451E-05    0.08     200.7  T
     SCC iter.                  ...        0 min,  0.662 sec
     gradient                   ...        0 min,  0.279 sec
 * total energy  :  -218.6619603 Eh     change       -0.3901593E-02 Eh
   gradient norm :     0.0234757 Eh/α   predicted    -0.3530746E-02 (  -9.51%)
   displ. norm   :     0.5013906 α      lambda       -0.3401971E-02
   maximum displ.:     0.2459285 α      in ANC's #20, #32, #30, ...

........................................................................
.............................. CYCLE    7 ..............................
........................................................................
   1   -221.9603317 -0.221960E+03  0.898E-02    0.10       0.0  T
   2   -219.0949248  0.286541E+01  0.238E+00    0.00       1.0  T
   3   -221.9559656 -0.286104E+01  0.125E-01    0.10       1.0  T
   4   -221.8790770  0.768886E-01  0.365E-01    0.07       1.0  T
   5   -221.9580496 -0.789726E-01  0.103E-01    0.09       1.0  T
   6   -221.9631923 -0.514272E-02  0.421E-02    0.09       1.0  T
   7   -221.9636060 -0.413718E-03  0.322E-02    0.08       1.0  T
   8   -221.9639615 -0.355443E-03  0.199E-02    0.08       1.0  T
   9   -221.9639644 -0.293411E-05  0.196E-02    0.08       1.0  T
  10   -221.9641591 -0.194749E-03  0.404E-03    0.08       2.2  T
  11   -221.9641101  0.490300E-04  0.990E-03    0.08       1.0  T
  12   -221.9641665 -0.563577E-04  0.190E-03    0.08       4.8  T
  13   -221.9641682 -0.175319E-05  0.513E-04    0.08      17.7  T
  14   -221.9641683 -0.113990E-06  0.265E-04    0.08      34.1  T
  15   -221.9641683  0.331520E-07  0.355E-04    0.08      25.5  T
  16   -221.9641684 -0.750597E-07  0.942E-05    0.08      96.1  T
  17   -221.9641684 -0.140159E-08  0.800E-05    0.08     113.2  T
     SCC iter.                  ...        0 min,  0.658 sec
     gradient                   ...        0 min,  0.277 sec
 * total energy  :  -218.6636563 Eh     change       -0.1696048E-02 Eh
   gradient norm :     0.0223267 Eh/α   predicted    -0.2128612E-02 (  25.50%)
   displ. norm   :     0.3867137 α      lambda       -0.2330554E-02
   maximum displ.:     0.2201044 α      in ANC's #20, #30, #32, ...

........................................................................
.............................. CYCLE    8 ..............................
........................................................................
   1   -221.9669954 -0.221967E+03  0.179E-02    0.09       0.0  T
   2   -221.7892922  0.177703E+00  0.602E-01    0.02       1.0  T
   3   -221.9668713 -0.177579E+00  0.218E-02    0.09       1.0  T
   4   -221.4156138  0.551258E+00  0.931E-01    0.04       1.0  T
   5   -221.9667364 -0.551123E+00  0.267E-02    0.09       1.0  T
   6   -221.9669752 -0.238866E-03  0.163E-02    0.09       1.0  T
   7   -221.9670711 -0.959124E-04  0.892E-03    0.09       1.0  T
   8   -221.9670944 -0.232141E-04  0.519E-03    0.09       1.7  T
   9   -221.9671056 -0.112792E-04  0.290E-03    0.09       3.1  T
  10   -221.9671101 -0.443466E-05  0.120E-03    0.09       7.6  T
  11   -221.9671089  0.120856E-05  0.177E-03    0.09       5.1  T
  12   -221.9671108 -0.191324E-05  0.246E-04    0.09      36.9  T
  13   -221.9671108 -0.112128E-07  0.251E-04    0.09      36.1  T
  14   -221.9671108  0.256547E-07  0.308E-04    0.09      29.4  T
  15   -221.9671108 -0.419590E-07  0.152E-04    0.09      59.7  T
  16   -221.9671108 -0.545293E-08  0.107E-04    0.09      84.6  T
     SCC iter.                  ...        0 min,  0.621 sec
     gradient                   ...        0 min,  0.278 sec
 * total energy  :  -218.6650419 Eh     change       -0.1385563E-02 Eh
   gradient norm :     0.0137687 Eh/α   predicted    -0.1339543E-02 (  -3.32%)
   displ. norm   :     0.2946295 α      lambda       -0.9315529E-03
   maximum displ.:     0.2007575 α      in ANC's #20, #32, #30, ...

........................................................................
.............................. CYCLE    9 ..............................
........................................................................
   1   -221.9694538 -0.221969E+03  0.578E-02    0.09       0.0  T
   2   -221.8264846  0.142969E+00  0.509E-01    0.17       1.0  T
   3   -221.9688790 -0.142394E+00  0.583E-02    0.09       1.0  T
   4   -221.8673882  0.101491E+00  0.403E-01    0.08       1.0  T
   5   -221.9704220 -0.103034E+00  0.354E-02    0.10       1.0  T
   6   -221.9709972 -0.575115E-03  0.647E-03    0.10       1.4  T
   7   -221.9709863  0.108755E-04  0.818E-03    0.10       1.1  T
   8   -221.9710140 -0.277180E-04  0.350E-03    0.10       2.6  T
   9   -221.9710167 -0.273432E-05  0.207E-03    0.10       4.4  T
  10   -221.9710180 -0.126373E-05  0.178E-03    0.10       5.1  T
  11   -221.9710189 -0.881510E-06  0.104E-03    0.10       8.7  T
  12   -221.9710194 -0.536206E-06  0.289E-04    0.10      31.4  T
  13   -221.9710194 -0.325869E-07  0.109E-04    0.10      82.9  T
  14   -221.9710195 -0.660091E-08  0.362E-05    0.10     249.9  T
     SCC iter.                  ...        0 min,  0.544 sec
     gradient                   ...        0 min,  0.280 sec
 * total energy  :  -218.6657782 Eh     change       -0.7362778E-03 Eh
   gradient norm :     0.0087225 Eh/α   predicted    -0.5062127E-03 ( -31.25%)
   displ. norm   :     0.3709023 α      lambda       -0.8472155E-03
   maximum displ.:     0.2506264 α      in ANC's #20, #32, #30, ...

........................................................................
.............................. CYCLE   10 ..............................
........................................................................
   1   -221.9697355 -0.221970E+03  0.824E-02    0.10       0.0  T
   2   -221.7342778  0.235458E+00  0.647E-01    0.18       1.0  T
   3   -221.9726543 -0.238377E+00  0.219E-02    0.11       1.0  T
   4   -221.9705186  0.213571E-02  0.628E-02    0.11       1.0  T
   5   -221.9715432 -0.102466E-02  0.482E-02    0.11       1.0  T
   6   -221.9728210 -0.127776E-02  0.131E-02    0.11       1.0  T
   7   -221.9728810 -0.599433E-04  0.747E-03    0.11       1.2  T
   8   -221.9729050 -0.240030E-04  0.200E-03    0.11       4.5  T
   9   -221.9729054 -0.454190E-06  0.175E-03    0.11       5.2  T
  10   -221.9729062 -0.752380E-06  0.117E-03    0.11       7.7  T
  11   -221.9729068 -0.652894E-06  0.606E-05    0.11     149.3  T
  12   -221.9729068 -0.899803E-09  0.446E-05    0.11     203.0  T
     SCC iter.                  ...        0 min,  0.467 sec
     gradient                   ...        0 min,  0.279 sec
 * total energy  :  -218.6663392 Eh     change       -0.5610039E-03 Eh
   gradient norm :     0.0073432 Eh/α   predicted    -0.4818832E-03 ( -14.10%)
   displ. norm   :     0.2465453 α      lambda       -0.2964757E-03
   maximum displ.:     0.1635924 α      in ANC's #20, #32, #15, ...

........................................................................
.............................. CYCLE   11 ..............................
........................................................................
   1   -221.9718928 -0.221972E+03  0.353E-03    0.11       0.0  T
   2   -221.9690777  0.281512E-02  0.748E-02    0.12       1.0  T
   3   -221.9718280 -0.275023E-02  0.107E-02    0.11       1.0  T
   4   -221.9693801  0.244785E-02  0.630E-02    0.11       1.0  T
   5   -221.9718942 -0.251415E-02  0.275E-03    0.11       3.3  T
   6   -221.9718969 -0.265345E-05  0.136E-03    0.11       6.6  T
   7   -221.9718978 -0.868470E-06  0.346E-04    0.11      26.1  T
   8   -221.9718978 -0.378757E-07  0.140E-04    0.11      64.5  T
   9   -221.9718978 -0.796462E-09  0.136E-04    0.11      66.8  T
     SCC iter.                  ...        0 min,  0.351 sec
     gradient                   ...        0 min,  0.278 sec
 * total energy  :  -218.6665685 Eh     change       -0.2293071E-03 Eh
   gradient norm :     0.0066472 Eh/α   predicted    -0.1572527E-03 ( -31.42%)
   displ. norm   :     0.2869913 α      lambda       -0.2825344E-03
   maximum displ.:     0.1744461 α      in ANC's #20, #15, #6, ...

........................................................................
.............................. CYCLE   12 ..............................
........................................................................
   1   -221.9697773 -0.221970E+03  0.170E-02    0.11       0.0  T
   2   -221.7879363  0.181841E+00  0.608E-01    0.04       1.0  T
   3   -221.9693260 -0.181390E+00  0.343E-02    0.11       1.0  T
   4   -221.8704377  0.988883E-01  0.396E-01    0.09       1.0  T
   5   -221.9696587 -0.992209E-01  0.222E-02    0.11       1.0  T
   6   -221.9697723 -0.113623E-03  0.162E-02    0.11       1.0  T
   7   -221.9698400 -0.676706E-04  0.113E-02    0.10       1.0  T
   8   -221.9698886 -0.486253E-04  0.521E-03    0.10       1.7  T
   9   -221.9699007 -0.121489E-04  0.148E-03    0.10       6.1  T
  10   -221.9699016 -0.821554E-06  0.683E-04    0.10      13.3  T
  11   -221.9699018 -0.201732E-06  0.238E-04    0.10      38.1  T
  12   -221.9699018 -0.279899E-07  0.169E-05    0.10     536.2  T
  13   -221.9699018  0.186731E-10  0.182E-05    0.10     497.9  T
     SCC iter.                  ...        0 min,  0.503 sec
     gradient                   ...        0 min,  0.279 sec
 * total energy  :  -218.6667704 Eh     change       -0.2019427E-03 Eh
   gradient norm :     0.0048750 Eh/α   predicted    -0.1529053E-03 ( -24.28%)
   displ. norm   :     0.2969466 α      lambda       -0.2190613E-03
   maximum displ.:     0.1645529 α      in ANC's #20, #15, #6, ...

........................................................................
.............................. CYCLE   13 ..............................
........................................................................
   1   -221.9674043 -0.221967E+03  0.210E-02    0.10       0.0  T
   2   -221.6695372  0.297867E+00  0.779E-01    0.02       1.0  T
   3   -221.9670210 -0.297484E+00  0.345E-02    0.10       1.0  T
   4   -221.9241837  0.428373E-01  0.261E-01    0.09       1.0  T
   5   -221.9673418 -0.431581E-01  0.230E-02    0.10       1.0  T
   6   -221.9674661 -0.124273E-03  0.167E-02    0.10       1.0  T
   7   -221.9675461 -0.800638E-04  0.109E-02    0.10       1.0  T
   8   -221.9675916 -0.454730E-04  0.502E-03    0.10       1.8  T
   9   -221.9676038 -0.122299E-04  0.589E-04    0.10      15.4  T
  10   -221.9676040 -0.142278E-06  0.219E-04    0.10      41.4  T
  11   -221.9676040 -0.195342E-07  0.806E-05    0.10     112.3  T
  12   -221.9676040  0.112030E-08  0.935E-05    0.10      96.8  T
     SCC iter.                  ...        0 min,  0.466 sec
     gradient                   ...        0 min,  0.280 sec
 * total energy  :  -218.6668771 Eh     change       -0.1066192E-03 Eh
   gradient norm :     0.0059013 Eh/α   predicted    -0.1191900E-03 (  11.79%)
   displ. norm   :     0.2057945 α      lambda       -0.1674316E-03
   maximum displ.:     0.1037653 α      in ANC's #15, #20, #6, ...

........................................................................
.............................. CYCLE   14 ..............................
........................................................................
   1   -221.9669269 -0.221967E+03  0.130E-02    0.10       0.0  T
   2   -221.8367470  0.130180E+00  0.514E-01    0.04       1.0  T
   3   -221.9668988 -0.130152E+00  0.149E-02    0.10       1.0  T
   4   -221.9632030  0.369578E-02  0.773E-02    0.09       1.0  T
   5   -221.9669491 -0.374606E-02  0.107E-02    0.10       1.0  T
   6   -221.9669779 -0.288299E-04  0.765E-03    0.10       1.2  T
   7   -221.9669941 -0.161593E-04  0.505E-03    0.10       1.8  T
   8   -221.9670035 -0.948932E-05  0.243E-03    0.09       3.7  T
   9   -221.9670064 -0.282394E-05  0.308E-04    0.09      29.3  T
  10   -221.9670064 -0.422954E-07  0.826E-05    0.09     109.6  T
  11   -221.9670064 -0.334060E-08  0.116E-05    0.09     781.1  T
     SCC iter.                  ...        0 min,  0.428 sec
     gradient                   ...        0 min,  0.279 sec
 * total energy  :  -218.6669792 Eh     change       -0.1021353E-03 Eh
   gradient norm :     0.0050943 Eh/α   predicted    -0.8726198E-04 ( -14.56%)
   displ. norm   :     0.1387347 α      lambda       -0.1004524E-03
   maximum displ.:     0.0763221 α      in ANC's #15, #6, #10, ...

........................................................................
.............................. CYCLE   15 ..............................
........................................................................
   1   -221.9675106 -0.221968E+03  0.220E-03    0.09       0.0  T
   2   -221.9651990  0.231167E-02  0.682E-02    0.08       1.0  T
   3   -221.9675057 -0.230672E-02  0.365E-03    0.09       2.5  T
   4   -221.9641324  0.337329E-02  0.728E-02    0.09       1.0  T
   5   -221.9675117 -0.337933E-02  0.142E-03    0.09       6.4  T
   6   -221.9675127 -0.978762E-06  0.574E-04    0.09      15.8  T
   7   -221.9675127  0.226686E-07  0.598E-04    0.09      15.1  T
   8   -221.9675128 -0.161032E-06  0.138E-04    0.09      65.7  T
   9   -221.9675128 -0.819108E-08  0.386E-05    0.09     234.3  T
     SCC iter.                  ...        0 min,  0.350 sec
     gradient                   ...        0 min,  0.277 sec
 * total energy  :  -218.6670667 Eh     change       -0.8747758E-04 Eh
   gradient norm :     0.0042044 Eh/α   predicted    -0.5119916E-04 ( -41.47%)
   displ. norm   :     0.3024124 α      lambda       -0.2188545E-03
   maximum displ.:     0.1633514 α      in ANC's #15, #6, #10, ...

........................................................................
.............................. CYCLE   16 ..............................
........................................................................
   1   -221.9679391 -0.221968E+03  0.108E-02    0.10       0.0  T
   2   -221.9461336  0.218056E-01  0.206E-01    0.14       1.0  T
   3   -221.9675895 -0.214559E-01  0.285E-02    0.09       1.0  T
   4   -221.9667169  0.872534E-03  0.448E-02    0.10       1.0  T
   5   -221.9679079 -0.119097E-02  0.119E-02    0.10       1.0  T
   6   -221.9679829 -0.749385E-04  0.266E-03    0.10       3.4  T
   7   -221.9679861 -0.328289E-05  0.554E-04    0.10      16.3  T
   8   -221.9679862 -0.698535E-07  0.334E-04    0.10      27.1  T
   9   -221.9679863 -0.540286E-07  0.400E-05    0.10     226.5  T
  10   -221.9679863  0.354026E-08  0.925E-05    0.10      97.8  T
     SCC iter.                  ...        0 min,  0.389 sec
     gradient                   ...        0 min,  0.279 sec
 * total energy  :  -218.6672255 Eh     change       -0.1588151E-03 Eh
   gradient norm :     0.0035135 Eh/α   predicted    -0.1194366E-03 ( -24.80%)
   displ. norm   :     0.3091720 α      lambda       -0.1273825E-03
   maximum displ.:     0.1737237 α      in ANC's #15, #6, #10, ...

........................................................................
.............................. CYCLE   17 ..............................
........................................................................
   1   -221.9669058 -0.221967E+03  0.153E-02    0.10       0.0  T
   2   -221.9326950  0.342108E-01  0.257E-01    0.14       1.0  T
   3   -221.9666216 -0.339266E-01  0.273E-02    0.10       1.0  T
   4   -221.9499032  0.167184E-01  0.164E-01    0.09       1.0  T
   5   -221.9670040 -0.171008E-01  0.337E-03    0.10       2.7  T
   6   -221.9670098 -0.580667E-05  0.719E-04    0.10      12.6  T
   7   -221.9670099 -0.795669E-07  0.560E-04    0.10      16.2  T
   8   -221.9670100 -0.153916E-06  0.186E-04    0.10      48.7  T
   9   -221.9670099  0.907323E-07  0.452E-04    0.10      20.0  T
  10   -221.9670100 -0.947918E-07  0.120E-04    0.10      75.4  T
     SCC iter.                  ...        0 min,  0.390 sec
     gradient                   ...        0 min,  0.279 sec
 * total energy  :  -218.6673240 Eh     change       -0.9853440E-04 Eh
   gradient norm :     0.0042178 Eh/α   predicted    -0.6978130E-04 ( -29.18%)
   displ. norm   :     0.3132621 α      lambda       -0.1119092E-03
   maximum displ.:     0.1759479 α      in ANC's #15, #6, #10, ...

........................................................................
.............................. CYCLE   18 ..............................
........................................................................
   1   -221.9666730 -0.221967E+03  0.111E-02    0.10       0.0  T
   2   -221.9436994  0.229736E-01  0.211E-01    0.14       1.0  T
   3   -221.9664888 -0.227893E-01  0.208E-02    0.10       1.0  T
   4   -221.9599416  0.654718E-02  0.104E-01    0.10       1.0  T
   5   -221.9667235 -0.678190E-02  0.305E-03    0.10       3.0  T
   6   -221.9667275 -0.405848E-05  0.111E-03    0.10       8.1  T
   7   -221.9667281 -0.521240E-06  0.408E-04    0.10      22.2  T
   8   -221.9667281 -0.714053E-07  0.122E-04    0.10      74.0  T
   9   -221.9667281 -0.156621E-08  0.108E-04    0.10      83.7  T
     SCC iter.                  ...        0 min,  0.352 sec
     gradient                   ...        0 min,  0.280 sec
 * total energy  :  -218.6674142 Eh     change       -0.9022196E-04 Eh
   gradient norm :     0.0035812 Eh/α   predicted    -0.6144773E-04 ( -31.89%)
   displ. norm   :     0.3449099 α      lambda       -0.1132920E-03
   maximum displ.:     0.1917207 α      in ANC's #15, #6, #10, ...

........................................................................
.............................. CYCLE   19 ..............................
........................................................................
   1   -221.9668098 -0.221967E+03  0.786E-03    0.10       0.0  T
   2   -221.9526422  0.141676E-01  0.167E-01    0.13       1.0  T
   3   -221.9660703 -0.134281E-01  0.349E-02    0.10       1.0  T
   4   -221.9659982  0.721436E-04  0.365E-02    0.10       1.0  T
   5   -221.9668369 -0.838716E-03  0.124E-03    0.10       7.3  T
   6   -221.9668370 -0.151399E-06  0.109E-03    0.10       8.3  T
   7   -221.9668375 -0.415528E-06  0.574E-04    0.10      15.8  T
   8   -221.9668376 -0.145780E-06  0.137E-04    0.10      66.2  T
   9   -221.9668376  0.803774E-08  0.188E-04    0.10      48.1  T
     SCC iter.                  ...        0 min,  0.351 sec
     gradient                   ...        0 min,  0.279 sec
 * total energy  :  -218.6674972 Eh     change       -0.8295736E-04 Eh
   gradient norm :     0.0021940 Eh/α   predicted    -0.6338862E-04 ( -23.59%)
   displ. norm   :     0.2488802 α      lambda       -0.5711183E-04
   maximum displ.:     0.1358463 α      in ANC's #15, #6, #10, ...

........................................................................
.............................. CYCLE   20 ..............................
........................................................................
   1   -221.9675135 -0.221968E+03  0.240E-03    0.10       0.0  T
   2   -221.9658102  0.170333E-02  0.575E-02    0.09       1.0  T
   3   -221.9654590  0.351190E-03  0.568E-02    0.10       1.0  T
   4   -221.9674554 -0.199639E-02  0.102E-02    0.10       1.0  T
   5   -221.9675108 -0.553710E-04  0.307E-03    0.10       3.0  T
   6   -221.9675136 -0.288379E-05  0.191E-03    0.10       4.8  T
   7   -221.9675151 -0.148174E-05  0.749E-04    0.10      12.1  T
   8   -221.9675153 -0.224927E-06  0.259E-04    0.10      35.0  T
   9   -221.9675154 -0.401537E-07  0.330E-05    0.10     274.7  T
  10   -221.9675154  0.134694E-07  0.148E-04    0.10      61.3  T
     SCC iter.                  ...        0 min,  0.389 sec
     gradient                   ...        0 min,  0.279 sec
 * total energy  :  -218.6675355 Eh     change       -0.3825282E-04 Eh
   gradient norm :     0.0016950 Eh/α   predicted    -0.3032893E-04 ( -20.71%)
   displ. norm   :     0.1849931 α      lambda       -0.2216154E-04
   maximum displ.:     0.1017237 α      in ANC's #6, #15, #10, ...
 * RMSD in coord.:     0.4091212 α      energy gain  -0.2307790E+00 Eh

generating ANC from model Hessian ...
Using Lindh-Hessian (1995)
 Shifting diagonal of input Hessian by    1.0008686178364474E-002
 Lowest  eigenvalues of input Hessian
    0.010000    0.010004    0.000000    0.000000    0.000000    0.000000
    0.000000    0.000000    0.010017    0.010103    0.010128    0.010262
    0.010301    0.010374    0.010447    0.010507    0.010519    0.010713
 Highest eigenvalues
    2.149816    2.244481    2.244484    2.244683    2.245174    2.643488


........................................................................
.............................. CYCLE   21 ..............................
........................................................................
   1   -221.9683744 -0.221968E+03  0.271E-03    0.10       0.0  T
   2   -221.9574484  0.109261E-01  0.135E-01    0.09       1.0  T
   3   -221.9610390 -0.359062E-02  0.108E-01    0.09       1.0  T
   4   -221.9683270 -0.728802E-02  0.982E-03    0.10       1.0  T
   5   -221.9683668 -0.398172E-04  0.459E-03    0.10       2.0  T
   6   -221.9683740 -0.715345E-05  0.263E-03    0.10       3.4  T
   7   -221.9683769 -0.295900E-05  0.901E-04    0.10      10.0  T
   8   -221.9683772 -0.314885E-06  0.417E-04    0.10      21.7  T
   9   -221.9683773 -0.633621E-07  0.271E-04    0.10      33.4  T
  10   -221.9683773  0.262891E-07  0.332E-04    0.10      27.2  T
  11   -221.9683773 -0.642154E-07  0.857E-05    0.10     105.6  T
  12   -221.9683774 -0.435796E-08  0.133E-05    0.10     678.7  T
     SCC iter.                  ...        0 min,  0.467 sec
     gradient                   ...        0 min,  0.279 sec
 * total energy  :  -218.6675543 Eh     change       -0.1886821E-04 Eh
   gradient norm :     0.0019848 Eh/α   predicted     0.0000000E+00 (-100.00%)
   displ. norm   :     0.0413027 α      lambda       -0.2079826E-04
   maximum displ.:     0.0153948 α      in ANC's #6, #19, #15, ...

........................................................................
.............................. CYCLE   22 ..............................
........................................................................
   1   -221.9678566 -0.221968E+03  0.347E-03    0.10       0.0  T
   2   -221.9137027  0.541539E-01  0.295E-01    0.08       1.0  T
   3   -221.9614359 -0.477332E-01  0.104E-01    0.09       1.0  T
   4   -221.9677662 -0.633026E-02  0.131E-02    0.10       1.0  T
   5   -221.9678606 -0.944460E-04  0.207E-03    0.10       4.4  T
   6   -221.9678606  0.404853E-07  0.198E-03    0.10       4.6  T
   7   -221.9678623 -0.172456E-05  0.106E-03    0.10       8.5  T
   8   -221.9678629 -0.556679E-06  0.498E-04    0.10      18.2  T
   9   -221.9678629 -0.511044E-07  0.366E-04    0.10      24.8  T
  10   -221.9678630 -0.721301E-07  0.148E-04    0.10      61.0  T
  11   -221.9678630 -0.836246E-08  0.954E-05    0.10      94.9  T
     SCC iter.                  ...        0 min,  0.429 sec
     gradient                   ...        0 min,  0.280 sec
 * total energy  :  -218.6675562 Eh     change       -0.1844131E-05 Eh
   gradient norm :     0.0026277 Eh/α   predicted    -0.1057235E-04 ( 473.30%)
   displ. norm   :     0.0340041 α      lambda       -0.2827281E-04
   maximum displ.:     0.0145849 α      in ANC's #6, #19, #15, ...

........................................................................
.............................. CYCLE   23 ..............................
........................................................................
   1   -221.9676216 -0.221968E+03  0.209E-03    0.10       0.0  T
   2   -221.9555172  0.121044E-01  0.140E-01    0.09       1.0  T
   3   -221.9639080 -0.839085E-02  0.780E-02    0.09       1.0  T
   4   -221.9676003 -0.369226E-02  0.630E-03    0.10       1.4  T
   5   -221.9676222 -0.219800E-04  0.158E-03    0.10       5.7  T
   6   -221.9676228 -0.585800E-06  0.124E-03    0.10       7.3  T
   7   -221.9676237 -0.898481E-06  0.351E-04    0.10      25.8  T
   8   -221.9676238 -0.641539E-07  0.164E-04    0.10      55.1  T
   9   -221.9676238  0.132275E-07  0.206E-04    0.10      44.0  T
  10   -221.9676238 -0.246534E-07  0.603E-05    0.10     150.0  T
     SCC iter.                  ...        0 min,  0.389 sec
     gradient                   ...        0 min,  0.279 sec
 * total energy  :  -218.6675767 Eh     change       -0.2052055E-04 Eh
   gradient norm :     0.0014349 Eh/α   predicted    -0.1415540E-04 ( -31.02%)
   displ. norm   :     0.0945337 α      lambda       -0.2425493E-04
   maximum displ.:     0.0441008 α      in ANC's #6, #19, #21, ...

........................................................................
.............................. CYCLE   24 ..............................
........................................................................
   1   -221.9676953 -0.221968E+03  0.290E-03    0.10       0.0  T
   2   -221.9489508  0.187445E-01  0.176E-01    0.08       1.0  T
   3   -221.9591555 -0.102047E-01  0.118E-01    0.09       1.0  T
   4   -221.9676627 -0.850722E-02  0.787E-03    0.10       1.2  T
   5   -221.9676982 -0.354660E-04  0.148E-03    0.10       6.1  T
   6   -221.9676985 -0.360882E-06  0.123E-03    0.10       7.4  T
   7   -221.9676993 -0.816612E-06  0.449E-04    0.10      20.2  T
   8   -221.9676994 -0.863683E-07  0.286E-04    0.10      31.7  T
   9   -221.9676994  0.710077E-08  0.279E-04    0.10      32.5  T
  10   -221.9676995 -0.428734E-07  0.921E-05    0.10      98.3  T
  11   -221.9676995 -0.520703E-08  0.114E-05    0.10     791.3  T
     SCC iter.                  ...        0 min,  0.428 sec
     gradient                   ...        0 min,  0.279 sec
 * total energy  :  -218.6675947 Eh     change       -0.1803557E-04 Eh
   gradient norm :     0.0016980 Eh/α   predicted    -0.1217627E-04 ( -32.49%)
   displ. norm   :     0.0608890 α      lambda       -0.9586441E-05
   maximum displ.:     0.0298857 α      in ANC's #6, #19, #21, ...

........................................................................
.............................. CYCLE   25 ..............................
........................................................................
   1   -221.9677893 -0.221968E+03  0.222E-03    0.10       0.0  T
   2   -221.9649504  0.283888E-02  0.738E-02    0.09       1.0  T
   3   -221.9640688  0.881599E-03  0.765E-02    0.10       1.0  T
   4   -221.9677799 -0.371107E-02  0.446E-03    0.10       2.0  T
   5   -221.9677907 -0.108686E-04  0.123E-03    0.10       7.4  T
   6   -221.9677911 -0.408092E-06  0.843E-04    0.10      10.7  T
   7   -221.9677912 -0.383470E-07  0.763E-04    0.10      11.9  T
   8   -221.9677915 -0.319269E-06  0.297E-04    0.10      30.5  T
   9   -221.9677916 -0.564261E-07  0.216E-05    0.10     420.1  T
  10   -221.9677916  0.154921E-08  0.541E-05    0.10     167.5  T
     SCC iter.                  ...        0 min,  0.390 sec
     gradient                   ...        0 min,  0.279 sec
 * total energy  :  -218.6676070 Eh     change       -0.1229744E-04 Eh
   gradient norm :     0.0012401 Eh/α   predicted    -0.4804742E-05 ( -60.93%)
   displ. norm   :     0.1702197 α      lambda       -0.2122496E-04
   maximum displ.:     0.0834705 α      in ANC's #6, #19, #14, ...

........................................................................
.............................. CYCLE   26 ..............................
........................................................................
   1   -221.9677530 -0.221968E+03  0.386E-03    0.10       0.0  T
   2   -221.9529903  0.147627E-01  0.162E-01    0.08       1.0  T
   3   -221.9449295  0.806086E-02  0.190E-01    0.09       1.0  T
   4   -221.9677038 -0.227744E-01  0.994E-03    0.10       1.0  T
   5   -221.9677516 -0.477560E-04  0.388E-03    0.10       2.3  T
   6   -221.9677572 -0.557590E-05  0.213E-03    0.10       4.2  T
   7   -221.9677592 -0.199373E-05  0.106E-03    0.10       8.5  T
   8   -221.9677592  0.747178E-09  0.108E-03    0.10       8.4  T
   9   -221.9677598 -0.606389E-06  0.458E-04    0.10      19.7  T
  10   -221.9677598 -0.539289E-07  0.349E-04    0.10      25.9  T
  11   -221.9677599 -0.738404E-07  0.811E-05    0.10     111.6  T
  12   -221.9677599 -0.207453E-08  0.564E-05    0.10     160.6  T
     SCC iter.                  ...        0 min,  0.467 sec
     gradient                   ...        0 min,  0.279 sec
 * total energy  :  -218.6676264 Eh     change       -0.1938646E-04 Eh
   gradient norm :     0.0008825 Eh/α   predicted    -0.1075232E-04 ( -44.54%)
   displ. norm   :     0.1073648 α      lambda       -0.8368403E-05
   maximum displ.:     0.0551077 α      in ANC's #6, #19, #14, ...

........................................................................
.............................. CYCLE   27 ..............................
........................................................................
   1   -221.9677935 -0.221968E+03  0.212E-03    0.10       0.0  T
   2   -221.9628238  0.496972E-02  0.930E-02    0.09       1.0  T
   3   -221.9609598  0.186397E-02  0.104E-01    0.09       1.0  T
   4   -221.9677773 -0.681748E-02  0.565E-03    0.10       1.6  T
   5   -221.9677935 -0.161725E-04  0.194E-03    0.10       4.7  T
   6   -221.9677947 -0.126829E-05  0.120E-03    0.10       7.5  T
   7   -221.9677953 -0.518655E-06  0.730E-04    0.10      12.4  T
   8   -221.9677956 -0.287300E-06  0.290E-04    0.10      31.2  T
   9   -221.9677956 -0.469735E-07  0.915E-05    0.10      98.9  T
  10   -221.9677956  0.286786E-08  0.109E-04    0.10      83.2  T
     SCC iter.                  ...        0 min,  0.391 sec
     gradient                   ...        0 min,  0.280 sec
 * total energy  :  -218.6676293 Eh     change       -0.2881880E-05 Eh
   gradient norm :     0.0015623 Eh/α   predicted    -0.4213827E-05 (  46.22%)
   displ. norm   :     0.0678455 α      lambda       -0.9756117E-05
   maximum displ.:     0.0363927 α      in ANC's #6, #14, #1, ...

........................................................................
.............................. CYCLE   28 ..............................
........................................................................
   1   -221.9679902 -0.221968E+03  0.120E-03    0.10       0.0  T
   2   -221.9645047  0.348549E-02  0.753E-02    0.09       1.0  T
   3   -221.9668691 -0.236441E-02  0.428E-02    0.10       1.0  T
   4   -221.9679818 -0.111271E-02  0.402E-03    0.10       2.3  T
   5   -221.9679902 -0.839160E-05  0.106E-03    0.10       8.6  T
   6   -221.9679906 -0.415529E-06  0.632E-04    0.10      14.3  T
   7   -221.9679906 -0.136743E-07  0.592E-04    0.10      15.3  T
   8   -221.9679908 -0.215469E-06  0.101E-04    0.10      89.5  T
   9   -221.9679908 -0.173509E-08  0.852E-05    0.10     106.3  T
     SCC iter.                  ...        0 min,  0.351 sec
     gradient                   ...        0 min,  0.278 sec
 * total energy  :  -218.6676370 Eh     change       -0.7695119E-05 Eh
   gradient norm :     0.0008074 Eh/α   predicted    -0.4888309E-05 ( -36.48%)
   displ. norm   :     0.0304609 α      lambda       -0.4537576E-05
   maximum displ.:     0.0156948 α      in ANC's #6, #1, #14, ...

........................................................................
.............................. CYCLE   29 ..............................
........................................................................
   1   -221.9681355 -0.221968E+03  0.531E-04    0.10       0.0  T
   2   -221.9680865  0.490323E-04  0.989E-03    0.10       1.0  T
   3   -221.9681348 -0.482655E-04  0.131E-03    0.10       6.9  T
   4   -221.9680713  0.634369E-04  0.100E-02    0.10       1.0  T
   5   -221.9681355 -0.641852E-04  0.423E-04    0.10      21.4  T
   6   -221.9681356 -0.861875E-07  0.186E-04    0.10      48.7  T
   7   -221.9681356 -0.134889E-07  0.848E-05    0.10     106.8  T
     SCC iter.                  ...        0 min,  0.274 sec
     gradient                   ...        0 min,  0.279 sec
 * total energy  :  -218.6676418 Eh     change       -0.4821941E-05 Eh
   gradient norm :     0.0005681 Eh/α   predicted    -0.2289737E-05 ( -52.51%)
   displ. norm   :     0.0500074 α      lambda       -0.4457189E-05
   maximum displ.:     0.0258518 α      in ANC's #6, #1, #14, ...

   *** GEOMETRY OPTIMIZATION CONVERGED AFTER 29 ITERATIONS ***

------------------------------------------------------------------------
 total energy gain   :        -0.2308854 Eh     -144.8828 kcal/mol
 total RMSD          :         0.4132259 a0        0.2187 Å
 total power (kW/mol):       -20.9030868 (step)  -23.3922 (real)
------------------------------------------------------------------------

 ANCopt (total)                0 d,  0 h,  0 min, 25.914 sec
 optimizer setup                ...        0 min,  0.000 sec (  0.001%)
 model hessian                  ...        0 min,  0.086 sec (  0.333%)
 ANC generation                 ...        0 min,  0.040 sec (  0.154%)
 coordinate transformation      ...        0 min,  0.003 sec (  0.013%)
 single point calculation       ...        0 min, 25.754 sec ( 99.383%)
 optimization log               ...        0 min,  0.015 sec (  0.056%)
 hessian update                 ...        0 min,  0.003 sec (  0.013%)
 rational function              ...        0 min,  0.009 sec (  0.034%)

================
 final structure:
================
122
 xtb: 6.5.1 (b24c23e)
Fe          17.14882613304633        0.05934614652430       -0.11312754135420
C           13.76312663476741        0.10854714711269       -0.18902529136474
C           14.42564847785509        1.31839013357296       -0.16090507689624
C           13.76019486352118        2.58633677085377       -0.16581613042813
C           14.71722989417002        3.52723901073084        0.01058368048404
C           15.96865869114334        2.83278277329411        0.10870350617229
N           15.77787443214349        1.48324446667163       -0.01200631667699
C           17.18159456550923        3.44891339189227        0.39778313359042
C           17.19976170858310        4.91536437020319        0.61105791934794
C           17.52919949185749        5.44226330980867        1.86288999626832
C           17.54818275152417        6.80983572576865        2.05936813381241
C           17.24467609118665        7.67995656764224        1.00725530224358
C           17.27560214957323        9.13586924584552        1.24186401336886
O           17.54137563783137        9.63605646329789        2.30426752252572
C           16.91842698333743        7.15350342903092       -0.24464296193883
C           16.89337696287806        5.78377819439369       -0.43950714290604
C           18.38078431899814        2.75548894581392        0.47972186907749
C           19.64734899699683        3.37942045667797        0.72289779891368
C           20.59054221884144        2.41987263058042        0.56894726560968
N           18.55217926204348        1.41820054713280        0.21051783239803
C           19.90067451007982        1.21523106310820        0.22918971859355
C           20.55475154820503        0.01822325399721       -0.08588940766382
C           19.87059959278048       -1.17126566838704       -0.36181817236848
C           20.52646000376130       -2.39512582924262       -0.69961574463666
C           19.56508588848735       -3.34762240337923       -0.76488693800088
C           18.32208187109665       -2.69887834050599       -0.47212292460719
N           18.52247412705690       -1.35646604083882       -0.26283638763558
C           17.10237300843151       -3.35867921739094       -0.39355746564418
C           17.09175187165075       -4.83343184756477       -0.52137243216164
C           16.40225477126157       -5.45021403896802       -1.56886282405638
C           16.40081356812141       -6.82846386544947       -1.69049416433175
C           17.08399313138781       -7.61766016166291       -0.76230429501945
C           17.09645852103310       -9.08861057515394       -0.86891005444310
O           17.66997497515669       -9.81018267458203       -0.09423399863782
C           17.77174163869838       -7.00060355136774        0.28781023458250
C           17.77902388537436       -5.62409805839347        0.40471102963681
C           15.89450465115169       -2.69162433682608       -0.22123377176391
C           14.61958842493776       -3.34396373723253       -0.13580384853192
C           13.68259033627102       -2.36753003874420       -0.10191910106546
C           14.38672282849361       -1.12147752663472       -0.14412662413275
N           15.74023050645265       -1.33213315459988       -0.17505148903009
H           12.67987529079644        0.12551414256502       -0.22959171231076
H           12.69549871227711        2.71814306593234       -0.27465985584141
H           14.59684127626454        4.59589406418995        0.08313513675065
H           17.75586806076418        4.76905814856644        2.68178582274719
H           17.79813884678587        7.22808156543421        3.02846944535409
H           17.02870350718583        9.74694629196945        0.34763671373138
H           16.68532024103193        7.82189796303873       -1.06710863785426
H           16.65156554731064        5.37716809322518       -1.41499270349357
H           19.78891507688631        4.42086447994346        0.96084672051278
H           21.65958062689226        2.50829938247192        0.67112085580252
H           21.58600675802439       -2.49893537937670       -0.86677519048885
H           19.67621519084458       -4.39285555620348       -1.00307781171610
H           15.88252850561539       -4.83963133880980       -2.29856070150427
H           15.86895255381557       -7.29922685327919       -2.51090582537020
H           16.52568946492534       -9.48775458254321       -1.73431125150433
H           18.29714506251857       -7.62167424073830        1.00530237159709
H           18.30500201075325       -5.14811534695827        1.22451197198119
H           14.47307895924882       -4.41141573156392       -0.10604160049550
H           12.60975186297866       -2.46254457641084       -0.04890215536896
Fe          27.98893144286662       -0.04263121304263       -0.12041494300090
C           31.37464288995777       -0.08052414579073       -0.20256797481823
C           30.71212156731685       -1.28204461167447       -0.34699073945145
C           31.37757604031923       -2.53637612044772       -0.53236329606266
C           30.42053336579062       -3.49280313609101       -0.49174992574307
C           29.16910533819382       -2.81939151211180       -0.29575693636443
N           29.35989569120463       -1.46641709952025       -0.22307312297976
C           27.95616183922122       -3.47041089942234       -0.09740756847105
C           27.93799814150617       -4.95228878072195       -0.09514629380883
C           27.60852165966709       -5.65208952577992        1.06887965041386
C           27.58950217191144       -7.03370293345311        1.06858741647773
C           27.89321494126609       -7.74512915997606       -0.09666141836405
C           27.86311637423461       -9.21964772661353       -0.07156493578724
O           27.59618753492423       -9.86598951117320        0.90846859826137
C           28.21941427684133       -7.04575566498291       -1.26084151486360
C           28.24440312403049       -5.66223731625596       -1.25867093538249
C           26.75696558182993       -2.79572893506871        0.08240969091168
C           25.49039817468815       -3.44793198602508        0.23424461361532
C           24.54721104556633       -2.47623371823183        0.21851267573582
N           26.58557544309947       -1.43373378440500        0.00639143441821
C           25.23708229368117       -1.23548682647580        0.05377399833584
C           24.58300874097544       -0.00580422674873       -0.08761562392563
C           25.26715721942568        1.21085964347425       -0.19133361898717
C           24.61129545639495        2.47035480440521       -0.35138652761028
C           25.57266990610978        3.42243803988894       -0.28034437362094
C           26.81567701849299        2.73861118706767       -0.08297825671060
N           26.61528287348014        1.38007615902027       -0.06699473314166
C           28.03539073594822        3.38049347398701        0.08873003537898
C           28.04600643812666        4.85841868975916        0.17225203247010
C           28.73545437150437        5.61809810891720       -0.77674699334090
C           28.73691187560355        6.99962107591924       -0.70083444234251
C           28.05375939132714        7.64857718897046        0.33031444607622
C           28.04135234057205        9.11971191039719        0.43431682053736
O           27.46756463793364        9.72361607168110        1.30365718018140
C           27.36603926665184        6.88825367149092        1.28185146338807
C           27.35877548944574        5.50913012461798        1.20153158633673
C           29.24325887716819        2.69569568635685        0.16430333966857
C           30.51817890785212        3.32923120959364        0.34169094512180
C           31.45517701287261        2.35792036158044        0.23620422111712
C           30.75104255250678        1.13057019622996        0.01703274028924
N           29.39753426500551        1.34347826295434        0.01645705592294
H           32.45789599786340       -0.09153876519275       -0.24512835526652
H           32.44227775800656       -2.65135015987201       -0.65881619165194
H           30.54091071417110       -4.56090164854183       -0.57209356254956
H           27.38184647363054       -5.10236469058803        1.97529874092138
H           27.33965463684204       -7.58569884123567        1.96827905242787
H           28.10820198644901       -9.69706816496353       -1.04417992499793
H           28.45259137720828       -7.59021182591849       -2.17009216450219
H           28.48619522924810       -5.12084996568558       -2.16631277707748
H           25.34882378105979       -4.51264709262229        0.32147288280379
H           23.47817361487245       -2.57830406005432        0.30706088820068
H           23.55174700402878        2.59691607064773       -0.50204604374584
H           25.46153784634911        4.49094081620466       -0.36723133734435
H           29.25512679533979        5.11766092925671       -1.58600021771704
H           29.26874225858892        7.58242563501577       -1.44585627082288
H           28.61211083939810        9.63803317736800       -0.36544503935260
H           26.84067051561597        7.40080632372971        2.08051043372778
H           26.83284291423250        4.92124630231674        1.94522034294372
H           30.66468577402338        4.38157451609629        0.52311066069711
H           32.52801871248650        2.44442193912998        0.30215293272738
C           21.95974026800514        0.00719667023607       -0.10173210560126
C           23.17802070648836        0.00736323393703       -0.10172015756520

 Bond Distances (Angstroems)
 ---------------------------
Fe1-N7=1.9792        Fe1-N20=1.9801       Fe1-N27=1.9783       Fe1-N41=1.9810       C2-C3=1.3797         C2-C40=1.3798        
C2-H42=1.0841        C3-C2=1.3797         C3-C4=1.4320         C3-N7=1.3704         C4-C3=1.4320         C4-C5=1.3536         
C4-H43=1.0783        C5-C4=1.3536         C5-C6=1.4346         C5-H44=1.0779        C6-C5=1.4346         C6-N7=1.3683         
C6-C8=1.3908         N7-Fe1=1.9792        N7-C3=1.3704         N7-C6=1.3683         C8-C6=1.3908         C8-C9=1.4820         
C8-C17=1.3877        C9-C8=1.4820         C9-C10=1.3976        C9-C16=1.3970        C10-C9=1.3976        C10-C11=1.3817       
C10-H45=1.0841       C11-C10=1.3817       C11-C12=1.3986       C11-H46=1.0847       C12-C11=1.3986       C12-C13=1.4750       
C12-C15=1.3967       C13-C12=1.4750       C13-O14=1.2040       C13-H47=1.1109       O14-C13=1.2040       C15-C12=1.3967       
C15-C16=1.3837       C15-H48=1.0851       C16-C9=1.3970        C16-C15=1.3837       C16-H49=1.0841       C17-C8=1.3877        
C17-C18=1.4327       C17-N20=1.3748       C18-C17=1.4327       C18-C19=1.3543       C18-H50=1.0776       C19-C18=1.3543       
C19-C21=1.4292       C19-H51=1.0775       N20-Fe1=1.9801       N20-C17=1.3748       N20-C21=1.3638       C21-C19=1.4292       
C21-N20=1.3638       C21-C22=1.4000       C22-C21=1.4000       C22-C23=1.3997       C22-C121=1.4051      C23-C22=1.3997       
C23-C24=1.4290       C23-N27=1.3644       C24-C23=1.4290       C24-C25=1.3549       C24-H52=1.0777       C25-C24=1.3549       
C25-C26=1.4324       C25-H53=1.0778       C26-C25=1.4324       C26-N27=1.3733       C26-C28=1.3890       N27-Fe1=1.9783       
N27-C23=1.3644       N27-C26=1.3733       C28-C26=1.3890       C28-C29=1.4803       C28-C37=1.3905       C29-C28=1.4803       
C29-C30=1.3975       C29-C36=1.3983       C30-C29=1.3975       C30-C31=1.3836       C30-H54=1.0842       C31-C30=1.3836       
C31-C32=1.3968       C31-H55=1.0852       C32-C31=1.3968       C32-C33=1.4749       C32-C35=1.3987       C33-C32=1.4749       
C33-O34=1.2040       C33-H56=1.1109       O34-C33=1.2040       C35-C32=1.3987       C35-C36=1.3815       C35-H57=1.0847       
C36-C29=1.3983       C36-C35=1.3815       C36-H58=1.0841       C37-C28=1.3905       C37-C38=1.4347       C37-N41=1.3690       
C38-C37=1.4347       C38-C39=1.3537       C38-H59=1.0779       C39-C38=1.3537       C39-C40=1.4319       C39-H60=1.0783       
C40-C2=1.3798        C40-C39=1.4319       C40-N41=1.3702       N41-Fe1=1.9810       N41-C37=1.3690       N41-C40=1.3702       
H42-C2=1.0841        H43-C4=1.0783        H44-C5=1.0779        H45-C10=1.0841       H46-C11=1.0847       H47-C13=1.1109       
H48-C15=1.0851       H49-C16=1.0841       H50-C18=1.0776       H51-C19=1.0775       H52-C24=1.0777       H53-C25=1.0778       
H54-C30=1.0842       H55-C31=1.0852       H56-C33=1.1109       H57-C35=1.0847       H58-C36=1.0841       H59-C38=1.0779       
H60-C39=1.0783       Fe61-N67=1.9792      Fe61-N80=1.9801      Fe61-N87=1.9783      Fe61-N101=1.9810     C62-C63=1.3797       
C62-C100=1.3798      C62-H102=1.0841      C63-C62=1.3797       C63-C64=1.4320       C63-N67=1.3704       C64-C63=1.4320       
C64-C65=1.3536       C64-H103=1.0783      C65-C64=1.3536       C65-C66=1.4346       C65-H104=1.0779      C66-C65=1.4346       
C66-N67=1.3683       C66-C68=1.3908       N67-Fe61=1.9792      N67-C63=1.3704       N67-C66=1.3683       C68-C66=1.3908       
C68-C69=1.4820       C68-C77=1.3877       C69-C68=1.4820       C69-C70=1.3976       C69-C76=1.3970       C70-C69=1.3976       
C70-C71=1.3817       C70-H105=1.0841      C71-C70=1.3817       C71-C72=1.3986       C71-H106=1.0847      C72-C71=1.3986       
C72-C73=1.4750       C72-C75=1.3967       C73-C72=1.4750       C73-O74=1.2039       C73-H107=1.1108      O74-C73=1.2039       
C75-C72=1.3967       C75-C76=1.3837       C75-H108=1.0851      C76-C69=1.3970       C76-C75=1.3837       C76-H109=1.0841      
C77-C68=1.3877       C77-C78=1.4327       C77-N80=1.3748       C78-C77=1.4327       C78-C79=1.3543       C78-H110=1.0776      
C79-C78=1.3543       C79-C81=1.4292       C79-H111=1.0775      N80-Fe61=1.9801      N80-C77=1.3748       N80-C81=1.3638       
C81-C79=1.4292       C81-N80=1.3638       C81-C82=1.4000       C82-C81=1.4000       C82-C83=1.3997       C82-C122=1.4051      
C83-C82=1.3997       C83-C84=1.4290       C83-N87=1.3644       C84-C83=1.4290       C84-C85=1.3549       C84-H112=1.0777      
C85-C84=1.3549       C85-C86=1.4324       C85-H113=1.0778      C86-C85=1.4324       C86-N87=1.3733       C86-C88=1.3890       
N87-Fe61=1.9783      N87-C83=1.3644       N87-C86=1.3733       C88-C86=1.3890       C88-C89=1.4803       C88-C97=1.3905       
C89-C88=1.4803       C89-C90=1.3975       C89-C96=1.3983       C90-C89=1.3975       C90-C91=1.3836       C90-H114=1.0842      
C91-C90=1.3836       C91-C92=1.3968       C91-H115=1.0852      C92-C91=1.3968       C92-C93=1.4749       C92-C95=1.3987       
C93-C92=1.4749       C93-O94=1.2040       C93-H116=1.1109      O94-C93=1.2040       C95-C92=1.3987       C95-C96=1.3815       
C95-H117=1.0847      C96-C89=1.3983       C96-C95=1.3815       C96-H118=1.0841      C97-C88=1.3905       C97-C98=1.4347       
C97-N101=1.3690      C98-C97=1.4347       C98-C99=1.3537       C98-H119=1.0779      C99-C98=1.3537       C99-C100=1.4319      
C99-H120=1.0783      C100-C62=1.3798      C100-C99=1.4319      C100-N101=1.3702     N101-Fe61=1.9810     N101-C97=1.3690      
N101-C100=1.3702     H102-C62=1.0841      H103-C64=1.0783      H104-C65=1.0779      H105-C70=1.0841      H106-C71=1.0847      
H107-C73=1.1108      H108-C75=1.0851      H109-C76=1.0841      H110-C78=1.0776      H111-C79=1.0775      H112-C84=1.0777      
H113-C85=1.0778      H114-C90=1.0842      H115-C91=1.0852      H116-C93=1.1109      H117-C95=1.0847      H118-C96=1.0841      
H119-C98=1.0779      H120-C99=1.0783      C121-C22=1.4051      C121-C122=1.2183     C122-C82=1.4051      C122-C121=1.2183     
 C  H  Rav=1.0845 sigma=0.0096  Rmin=1.0775  Rmax=1.1109    38
 C  C  Rav=1.4034 sigma=0.0399  Rmin=1.2183  Rmax=1.4820    75
 N  C  Rav=1.3693 sigma=0.0036  Rmin=1.3638  Rmax=1.3748    16
 O  C  Rav=1.2040 sigma=0.0000  Rmin=1.2039  Rmax=1.2040     4
 Fe N  Rav=1.9796 sigma=0.0010  Rmin=1.9783  Rmax=1.9810     8

 selected bond angles (degree)
 --------------------
N20-Fe1-N7= 89.36              N27-Fe1-N7=178.57              N27-Fe1-N20= 90.65             N41-Fe1-N7= 90.83              
N41-Fe1-N20=172.36             N41-Fe1-N27= 89.35             C40-C2-C3=124.34               H42-C2-C3=117.83               
H42-C2-C40=117.82              C4-C3-C2=123.59                N7-C3-C2=125.56                N7-C3-C4=110.64                
C5-C4-C3=106.65                H43-C4-C3=124.57               H43-C4-C5=128.77               C6-C5-C4=106.81                
H44-C5-C4=128.24               H44-C5-C6=124.94               N7-C6-C5=110.47                C8-C6-C5=124.09                
C8-C6-N7=125.23                C3-N7-Fe1=126.26               C6-N7-Fe1=128.13               C6-N7-C3=105.42                
C9-C8-C6=118.62                C17-C8-C6=122.99               C17-C8-C9=118.38               C10-C9-C8=120.32               
C16-C9-C8=120.28               C16-C9-C10=119.40              C11-C10-C9=120.25              H45-C10-C9=119.46              
H45-C10-C11=120.29             

 selected dihedral angles (degree)
 ---------------------------------
C4-C3-C2-C40=182.05           C4-C3-C2-H42=  0.80           N7-C3-C2-C40=356.22           N7-C3-C2-H42=174.97           
C5-C4-C3-C2=173.66            C5-C4-C3-N7=358.72            H43-C4-C3-C2=354.63           H43-C4-C3-N7=179.69           
C6-C5-C4-C3=  0.60            C6-C5-C4-H43=179.58           H44-C5-C4-C3=181.48           H44-C5-C4-H43=  0.45          
N7-C6-C5-C4=  0.24            N7-C6-C5-H44=179.41           C8-C6-C5-C4=185.19            C8-C6-C5-H44=  4.36           
C3-N7-Fe1-N20=179.46          C3-N7-Fe1-N27= 88.88          C3-N7-Fe1-N41=351.82          C6-N7-Fe1-N20=  5.25          
C6-N7-Fe1-N27=274.67          C6-N7-Fe1-N41=177.61          Fe1-N7-C3-C2= 11.31           Fe1-N7-C3-C4=186.13           
C6-N7-C3-C2=186.58            C6-N7-C3-C4=  1.40            Fe1-N7-C6-C5=174.14           Fe1-N7-C6-C8=349.13           
C3-N7-C6-C5=358.99            C3-N7-C6-C8=173.97            C9-C8-C6-C5=359.56            C9-C8-C6-N7=185.23            
C17-C8-C6-C5=180.38           C17-C8-C6-N7=  6.06           C10-C9-C8-C6=114.73           C10-C9-C8-C17=293.94          
C16-C9-C8-C6=294.44           C16-C9-C8-C17=113.66          C11-C10-C9-C8=179.87          C11-C10-C9-C16=  0.16         
H45-C10-C9-C8=359.01          H45-C10-C9-C16=179.29         
           -------------------------------------------------
          |                Final Singlepoint                |
           -------------------------------------------------

          ...................................................
          :                      SETUP                      :
          :.................................................:
          :  # basis functions                 424          :
          :  # atomic orbitals                 422          :
          :  # shells                          246          :
          :  # electrons                       398          :
          :  # halogen bonds                     0          :
          :  max. iterations                   250          :
          :  Hamiltonian                  GFN1-xTB          :
          :  restarted?                      false          :
          :  GBSA solvation                  false          :
          :  PC potential                    false          :
          :  electronic temp.          300.0000000     K    :
          :  accuracy                    1.0000000          :
          :  -> integral cutoff          0.2500000E+02      :
          :  -> integral neglect         0.1000000E-07      :
          :  -> SCF convergence          0.1000000E-05 Eh   :
          :  -> wf. convergence          0.2000000E-04 e    :
          :  Broyden damping             0.4000000          :
          ...................................................

 iter      E             dE          RMSdq      gap      omega  full diag
   1   -221.9681356 -0.221968E+03  0.349E-05    0.10       0.0  T
   2   -221.9681314  0.421370E-05  0.260E-03    0.10       3.5  T
   3   -221.9681350 -0.358871E-05  0.103E-03    0.10       8.8  T
   4   -221.9681356 -0.625019E-06  0.319E-05    0.10     283.7  T
   5   -221.9681356 -0.548340E-09  0.130E-05    0.10     698.0  T

   *** convergence criteria satisfied after 5 iterations ***

         #    Occupation            Energy/Eh            Energy/eV
      -------------------------------------------------------------
         1        2.0000           -0.7936135             -21.5953
       ...           ...                  ...                  ...
       193        1.9925           -0.4031168             -10.9694
       194        1.9918           -0.4030317             -10.9670
       195        1.9443           -0.4011914             -10.9170
       196        1.9424           -0.4011586             -10.9161
       197        1.9352           -0.4010427             -10.9129
       198        1.9351           -0.4010413             -10.9129
       199        1.7809           -0.3998062             -10.8793 (HOMO)
       200        0.2912           -0.3961342             -10.7794 (LUMO)
       201        0.1864           -0.3956541             -10.7663
       202                         -0.3524760              -9.5914
       203                         -0.3446451              -9.3783
       204                         -0.3446418              -9.3782
       ...                                ...                  ...
       422                          1.3213517              35.9558
      -------------------------------------------------------------
                  HL-Gap            0.0036720 Eh            0.0999 eV
             Fermi-level           -0.3978153 Eh          -10.8251 eV

 SCC (total)                   0 d,  0 h,  0 min,  0.604 sec
[...]
     #   Z sym  total        # sym  WBO       # sym  WBO       # sym  WBO
 ---------------------------------------------------------------------------
     1  26 Fe   3.187 --    41 N    0.675    20 N    0.669     7 N    0.668
                            27 N    0.662
     2   6 C    3.927 --     3 C    1.363    40 C    1.362    42 H    0.970
     3   6 C    3.923 --     2 C    1.363     7 N    1.209     4 C    1.172
     4   6 C    3.959 --     5 C    1.651     3 C    1.172    43 H    0.975
     5   6 C    3.961 --     4 C    1.651     6 C    1.174    44 H    0.973
     6   6 C    3.920 --     8 C    1.312     7 N    1.225     5 C    1.174
     7   7 N    3.381 --     6 C    1.225     3 C    1.209     1 Fe   0.668
     8   6 C    3.927 --    17 C    1.334     6 C    1.312     9 C    1.026
     9   6 C    3.986 --    16 C    1.385    10 C    1.383     8 C    1.026
    10   6 C    3.987 --    11 C    1.469     9 C    1.383    45 H    0.972
                            15 C    0.101
    11   6 C    3.988 --    10 C    1.469    12 C    1.371    46 H    0.967
                            16 C    0.101
    12   6 C    3.984 --    15 C    1.380    11 C    1.371    13 C    1.047
    13   6 C    3.864 --    14 O    1.811    12 C    1.047    47 H    0.942
    14   8 O    2.006 --    13 C    1.811
    15   6 C    3.993 --    16 C    1.464    12 C    1.380    48 H    0.971
                            10 C    0.101
    16   6 C    3.987 --    15 C    1.464     9 C    1.385    49 H    0.972
                            11 C    0.101
    17   6 C    3.916 --     8 C    1.334    20 N    1.200    18 C    1.179
    18   6 C    3.956 --    19 C    1.639    17 C    1.179    50 H    0.972
    19   6 C    3.961 --    18 C    1.639    21 C    1.188    51 H    0.969
    20   7 N    3.383 --    21 C    1.244    17 C    1.200     1 Fe   0.669
    21   6 C    3.908 --    22 C    1.255    20 N    1.244    19 C    1.188
    22   6 C    3.927 --    23 C    1.256    21 C    1.255   121 C    1.190
    23   6 C    3.909 --    22 C    1.256    27 N    1.241    24 C    1.189
    24   6 C    3.960 --    25 C    1.636    23 C    1.189    52 H    0.969
    25   6 C    3.957 --    24 C    1.636    26 C    1.181    53 H    0.973
    26   6 C    3.917 --    28 C    1.326    27 N    1.205    25 C    1.181
    27   7 N    3.381 --    23 C    1.241    26 C    1.205     1 Fe   0.662
    28   6 C    3.928 --    26 C    1.326    37 C    1.315    29 C    1.033
    29   6 C    3.986 --    30 C    1.383    36 C    1.380    28 C    1.033
    30   6 C    3.987 --    31 C    1.465    29 C    1.383    54 H    0.972
                            35 C    0.101
    31   6 C    3.993 --    30 C    1.465    32 C    1.379    55 H    0.971
                            36 C    0.100
    32   6 C    3.983 --    31 C    1.379    35 C    1.370    33 C    1.048
    33   6 C    3.864 --    34 O    1.810    32 C    1.048    56 H    0.942
    34   8 O    2.006 --    33 C    1.810
    35   6 C    3.988 --    36 C    1.471    32 C    1.370    57 H    0.967
                            30 C    0.101
    36   6 C    3.987 --    35 C    1.471    29 C    1.380    58 H    0.972
                            31 C    0.100
    37   6 C    3.921 --    28 C    1.315    41 N    1.223    38 C    1.174
    38   6 C    3.961 --    39 C    1.650    37 C    1.174    59 H    0.973
    39   6 C    3.959 --    38 C    1.650    40 C    1.173    60 H    0.975
    40   6 C    3.923 --     2 C    1.362    41 N    1.210    39 C    1.173
    41   7 N    3.384 --    37 C    1.223    40 C    1.210     1 Fe   0.675
    42   1 H    1.000 --     2 C    0.970
    43   1 H    0.997 --     4 C    0.975
    44   1 H    1.004 --     5 C    0.973
    45   1 H    1.003 --    10 C    0.972
    46   1 H    1.004 --    11 C    0.967
    47   1 H    1.010 --    13 C    0.942
    48   1 H    1.000 --    15 C    0.971
    49   1 H    1.003 --    16 C    0.972
    50   1 H    1.004 --    18 C    0.972
    51   1 H    1.005 --    19 C    0.969
    52   1 H    1.005 --    24 C    0.969
    53   1 H    1.003 --    25 C    0.973
    54   1 H    1.004 --    30 C    0.972
    55   1 H    1.000 --    31 C    0.971
    56   1 H    1.010 --    33 C    0.942
    57   1 H    1.004 --    35 C    0.967
    58   1 H    1.003 --    36 C    0.972
    59   1 H    1.004 --    38 C    0.973
    60   1 H    0.997 --    39 C    0.975
    61  26 Fe   3.187 --   101 N    0.675    80 N    0.669    67 N    0.668
                            87 N    0.662
    62   6 C    3.927 --    63 C    1.363   100 C    1.362   102 H    0.970
    63   6 C    3.923 --    62 C    1.363    67 N    1.209    64 C    1.172
    64   6 C    3.959 --    65 C    1.651    63 C    1.172   103 H    0.975
    65   6 C    3.961 --    64 C    1.651    66 C    1.174   104 H    0.973
    66   6 C    3.920 --    68 C    1.312    67 N    1.225    65 C    1.174
    67   7 N    3.381 --    66 C    1.225    63 C    1.209    61 Fe   0.668
    68   6 C    3.927 --    77 C    1.334    66 C    1.312    69 C    1.026
    69   6 C    3.986 --    76 C    1.385    70 C    1.383    68 C    1.026
    70   6 C    3.987 --    71 C    1.469    69 C    1.383   105 H    0.972
                            75 C    0.101
    71   6 C    3.988 --    70 C    1.469    72 C    1.371   106 H    0.967
                            76 C    0.101
    72   6 C    3.984 --    75 C    1.380    71 C    1.371    73 C    1.047
    73   6 C    3.864 --    74 O    1.811    72 C    1.047   107 H    0.942
    74   8 O    2.006 --    73 C    1.811
    75   6 C    3.993 --    76 C    1.464    72 C    1.380   108 H    0.971
                            70 C    0.101
    76   6 C    3.987 --    75 C    1.464    69 C    1.385   109 H    0.972
                            71 C    0.101
    77   6 C    3.916 --    68 C    1.334    80 N    1.200    78 C    1.179
    78   6 C    3.956 --    79 C    1.639    77 C    1.179   110 H    0.972
    79   6 C    3.961 --    78 C    1.639    81 C    1.188   111 H    0.969
    80   7 N    3.383 --    81 C    1.244    77 C    1.200    61 Fe   0.669
    81   6 C    3.908 --    82 C    1.255    80 N    1.244    79 C    1.188
    82   6 C    3.927 --    83 C    1.256    81 C    1.255   122 C    1.190
    83   6 C    3.909 --    82 C    1.256    87 N    1.241    84 C    1.189
    84   6 C    3.960 --    85 C    1.636    83 C    1.189   112 H    0.969
    85   6 C    3.957 --    84 C    1.636    86 C    1.181   113 H    0.973
    86   6 C    3.917 --    88 C    1.326    87 N    1.205    85 C    1.181
    87   7 N    3.381 --    83 C    1.241    86 C    1.205    61 Fe   0.662
    88   6 C    3.928 --    86 C    1.326    97 C    1.315    89 C    1.033
    89   6 C    3.986 --    90 C    1.383    96 C    1.380    88 C    1.033
    90   6 C    3.987 --    91 C    1.465    89 C    1.383   114 H    0.972
                            95 C    0.101
    91   6 C    3.993 --    90 C    1.465    92 C    1.379   115 H    0.971
                            96 C    0.100
    92   6 C    3.983 --    91 C    1.379    95 C    1.370    93 C    1.048
    93   6 C    3.864 --    94 O    1.810    92 C    1.048   116 H    0.942
    94   8 O    2.006 --    93 C    1.810
    95   6 C    3.988 --    96 C    1.471    92 C    1.370   117 H    0.967
                            90 C    0.101
    96   6 C    3.987 --    95 C    1.471    89 C    1.380   118 H    0.972
                            91 C    0.100
    97   6 C    3.921 --    88 C    1.315   101 N    1.223    98 C    1.174
    98   6 C    3.961 --    99 C    1.650    97 C    1.174   119 H    0.973
    99   6 C    3.959 --    98 C    1.650   100 C    1.173   120 H    0.975
   100   6 C    3.923 --    62 C    1.362   101 N    1.210    99 C    1.173
   101   7 N    3.384 --    97 C    1.223   100 C    1.210    61 Fe   0.675
   102   1 H    1.000 --    62 C    0.970
   103   1 H    0.997 --    64 C    0.975
   104   1 H    1.004 --    65 C    0.973
   105   1 H    1.003 --    70 C    0.972
   106   1 H    1.004 --    71 C    0.967
   107   1 H    1.010 --    73 C    0.942
   108   1 H    1.000 --    75 C    0.971
   109   1 H    1.003 --    76 C    0.972
   110   1 H    1.004 --    78 C    0.972
   111   1 H    1.005 --    79 C    0.969
   112   1 H    1.005 --    84 C    0.969
   113   1 H    1.003 --    85 C    0.973
   114   1 H    1.004 --    90 C    0.972
   115   1 H    1.000 --    91 C    0.971
   116   1 H    1.010 --    93 C    0.942
   117   1 H    1.004 --    95 C    0.967
   118   1 H    1.003 --    96 C    0.972
   119   1 H    1.004 --    98 C    0.973
   120   1 H    0.997 --    99 C    0.975
   121   6 C    3.925 --   122 C    2.554    22 C    1.190
   122   6 C    3.925 --   121 C    2.554    82 C    1.190
 ---------------------------------------------------------------------------

Topologies differ in total number of bonds
Writing topology from bond orders to xtbtopo.mol

 dipole moment from electron density (au)
     X       Y       Z   
   0.0011   0.3013  -4.2124  total (Debye):   10.734

           -------------------------------------------------
          |                Geometry Summary                 |
           -------------------------------------------------

      molecular mass/u    :     1166.7947957
   center of mass at/Å    :       22.5688872      -0.0025874       0.0361448
  moments of inertia/u·Å² :        0.2695167E+05   0.3751522E+05   0.6354769E+05
rotational constants/cm⁻¹ :        0.6254763E-03   0.4493545E-03   0.2652753E-03

 * 119 selected distances

     #   Z          #   Z                                           value/Å
     2   6 C        3   6 C                                       1.3796544
     3   6 C        4   6 C                                       1.4319713
     4   6 C        5   6 C                                       1.3536360
     5   6 C        6   6 C                                       1.4345631
     3   6 C        7   7 N                                       1.3703515
     6   6 C        7   7 N                                       1.3682922
     6   6 C        8   6 C                                       1.3908263
     9   6 C       10   6 C                                       1.3975821
    10   6 C       11   6 C                                       1.3817448
    11   6 C       12   6 C                                       1.3986309
    13   6 C       14   8 O                                       1.2039619
    12   6 C       15   6 C                                       1.3967251
     9   6 C       16   6 C                                       1.3970331
    15   6 C       16   6 C                                       1.3837439
     8   6 C       17   6 C                                       1.3876627
    17   6 C       18   6 C                                       1.4326938
    18   6 C       19   6 C                                       1.3542698
    17   6 C       20   7 N                                       1.3748410
    19   6 C       21   6 C                                       1.4291656
    20   7 N       21   6 C                                       1.3638127
    21   6 C       22   6 C                                       1.3999713
    22   6 C       23   6 C                                       1.3996731
    23   6 C       24   6 C                                       1.4290186
    24   6 C       25   6 C                                       1.3548987
    25   6 C       26   6 C                                       1.4323544
    23   6 C       27   7 N                                       1.3643823
    26   6 C       27   7 N                                       1.3733277
    26   6 C       28   6 C                                       1.3889564
    29   6 C       30   6 C                                       1.3975203
    30   6 C       31   6 C                                       1.3836073
    31   6 C       32   6 C                                       1.3968185
    33   6 C       34   8 O                                       1.2040393
    32   6 C       35   6 C                                       1.3987486
    29   6 C       36   6 C                                       1.3982585
    35   6 C       36   6 C                                       1.3814798
    28   6 C       37   6 C                                       1.3905409
    37   6 C       38   6 C                                       1.4346626 (max)
    38   6 C       39   6 C                                       1.3537122
     2   6 C       40   6 C                                       1.3798004
    39   6 C       40   6 C                                       1.4318629
    37   6 C       41   7 N                                       1.3689960
    40   6 C       41   7 N                                       1.3701516
     2   6 C       42   1 H                                       1.0841435
     4   6 C       43   1 H                                       1.0783311
     5   6 C       44   1 H                                       1.0778594
    10   6 C       45   1 H                                       1.0840546
    11   6 C       46   1 H                                       1.0846959
    15   6 C       48   1 H                                       1.0851452
    16   6 C       49   1 H                                       1.0841480
    18   6 C       50   1 H                                       1.0776208
    19   6 C       51   1 H                                       1.0775445
    24   6 C       52   1 H                                       1.0776633
    25   6 C       53   1 H                                       1.0777742
    30   6 C       54   1 H                                       1.0841521
    31   6 C       55   1 H                                       1.0851587
    35   6 C       57   1 H                                       1.0846994
    36   6 C       58   1 H                                       1.0841062
    38   6 C       59   1 H                                       1.0778705
    39   6 C       60   1 H                                       1.0783419
    62   6 C       63   6 C                                       1.3796537
    63   6 C       64   6 C                                       1.4319709
    64   6 C       65   6 C                                       1.3536370
    65   6 C       66   6 C                                       1.4345623
    63   6 C       67   7 N                                       1.3703518
    66   6 C       67   7 N                                       1.3682924
    66   6 C       68   6 C                                       1.3908275
    69   6 C       70   6 C                                       1.3975810
    70   6 C       71   6 C                                       1.3817445
    71   6 C       72   6 C                                       1.3986329
    73   6 C       74   8 O                                       1.2039413
    72   6 C       75   6 C                                       1.3967265
    69   6 C       76   6 C                                       1.3970329
    75   6 C       76   6 C                                       1.3837458
    68   6 C       77   6 C                                       1.3876606
    77   6 C       78   6 C                                       1.4326954
    78   6 C       79   6 C                                       1.3542700
    77   6 C       80   7 N                                       1.3748398
    79   6 C       81   6 C                                       1.4291656
    80   7 N       81   6 C                                       1.3638112
    81   6 C       82   6 C                                       1.3999725
    82   6 C       83   6 C                                       1.3996742
    83   6 C       84   6 C                                       1.4290207
    84   6 C       85   6 C                                       1.3548988
    85   6 C       86   6 C                                       1.4323546
    83   6 C       87   7 N                                       1.3643817
    86   6 C       87   7 N                                       1.3733285
    86   6 C       88   6 C                                       1.3889559
    89   6 C       90   6 C                                       1.3975159
    90   6 C       91   6 C                                       1.3836079
    91   6 C       92   6 C                                       1.3968213
    93   6 C       94   8 O                                       1.2040289
    92   6 C       95   6 C                                       1.3987401
    89   6 C       96   6 C                                       1.3982591
    95   6 C       96   6 C                                       1.3814797
    88   6 C       97   6 C                                       1.3905413
    97   6 C       98   6 C                                       1.4346620
    98   6 C       99   6 C                                       1.3537127
    62   6 C      100   6 C                                       1.3798013
    99   6 C      100   6 C                                       1.4318625
    97   6 C      101   7 N                                       1.3689966
   100   6 C      101   7 N                                       1.3701515
    62   6 C      102   1 H                                       1.0841449
    64   6 C      103   1 H                                       1.0783317
    65   6 C      104   1 H                                       1.0778592
    70   6 C      105   1 H                                       1.0840548
    71   6 C      106   1 H                                       1.0846974
    75   6 C      108   1 H                                       1.0851456
    76   6 C      109   1 H                                       1.0841483
    78   6 C      110   1 H                                       1.0776226
    79   6 C      111   1 H                                       1.0775437 (min)
    84   6 C      112   1 H                                       1.0776638
    85   6 C      113   1 H                                       1.0777746
    90   6 C      114   1 H                                       1.0841530
    91   6 C      115   1 H                                       1.0851555
    95   6 C      117   1 H                                       1.0847022
    96   6 C      118   1 H                                       1.0841059
    98   6 C      119   1 H                                       1.0778701
    99   6 C      120   1 H                                       1.0783419
   121   6 C      122   6 C                                       1.2182806

 * 4 distinct bonds (by element types)

   Z      Z             #   av. dist./Å        max./Å        min./Å
   1 H    6 C          34     1.0813713     1.0851587     1.0775437
   6 C    6 C          65     1.3941824     1.4346626     1.2182806
   6 C    7 N          16     1.3692693     1.3748410     1.3638112
   6 C    8 O           4     1.2039929     1.2040393     1.2039413


optimized geometry written to: xtbopt.xyz


           -------------------------------------------------
          | TOTAL ENERGY             -218.667641811153 Eh   |
          | GRADIENT NORM               0.000567403974 Eh/α |
          | HOMO-LUMO GAP               0.099920627200 eV   |
           -------------------------------------------------

------------------------------------------------------------------------
 * finished run on 2022/07/29 at 16:00:09.976     
------------------------------------------------------------------------
 total:
 * wall-time:     0 d,  0 h,  0 min, 28.664 sec
 *  cpu-time:     0 d,  0 h,  0 min, 28.519 sec
 * ratio c/w:     0.995 speedup
 SCF:
 * wall-time:     0 d,  0 h,  0 min,  1.995 sec
 *  cpu-time:     0 d,  0 h,  0 min,  1.987 sec
 * ratio c/w:     0.996 speedup
 ANC optimizer:
 * wall-time:     0 d,  0 h,  0 min, 26.524 sec
 *  cpu-time:     0 d,  0 h,  0 min, 26.411 sec
 * ratio c/w:     0.996 speedup

