      -----------------------------------------------------------      
     |                   =====================                   |     
     |                           x T B                           |     
     |                   =====================                   |     
     |                         S. Grimme                         |     
     |          Mulliken Center for Theoretical Chemistry        |     
     |                    University of Bonn                     |     
      -----------------------------------------------------------      

   * xtb version 6.5.1 (b24c23e) compiled by 'conda@728c89f4b128' on 2022-07-12

   xtb is free software: you can redistribute it and/or modify it under
   the terms of the GNU Lesser General Public License as published by
   the Free Software Foundation, either version 3 of the License, or
   (at your option) any later version.
   
   xtb is distributed in the hope that it will be useful,
   but WITHOUT ANY WARRANTY; without even the implied warranty of
   MERCHANTABILITY or FITNESS FOR A PARTICULAR PURPOSE.  See the
   GNU Lesser General Public License for more details.
   
   Cite this work as:
   * C. Bannwarth, E. Caldeweyher, S. Ehlert, A. Hansen, P. Pracht,
     J. Seibert, S. Spicher, S. Grimme, WIREs Comput. Mol. Sci., 2020, 11,
     e01493. DOI: 10.1002/wcms.1493
   
   for GFN2-xTB:
   * C. Bannwarth, S. Ehlert and S. Grimme., J. Chem. Theory Comput., 2019,
     15, 1652-1671. DOI: 10.1021/acs.jctc.8b01176
   for GFN1-xTB:
   * S. Grimme, C. Bannwarth, P. Shushkov, J. Chem. Theory Comput., 2017,
     13, 1989-2009. DOI: 10.1021/acs.jctc.7b00118
   for GFN0-xTB:
   * P. Pracht, E. Caldeweyher, S. Ehlert, S. Grimme, ChemRxiv, 2019, preprint.
     DOI: 10.26434/chemrxiv.8326202.v1
   for GFN-FF:
   * S. Spicher and S. Grimme, Angew. Chem. Int. Ed., 2020, 59, 15665-15673.
     DOI: 10.1002/anie.202004239
   
   for ALPB and GBSA implicit solvation:
   * S. Ehlert, M. Stahn, S. Spicher, S. Grimme, J. Chem. Theory Comput.,
     2021, 17, 4250-4261. DOI: 10.1021/acs.jctc.1c00471
   
   for DFT-D4:
   * E. Caldeweyher, C. Bannwarth and S. Grimme, J. Chem. Phys., 2017,
     147, 034112. DOI: 10.1063/1.4993215
   * E. Caldeweyher, S. Ehlert, A. Hansen, H. Neugebauer, S. Spicher,
     C. Bannwarth and S. Grimme, J. Chem. Phys., 2019, 150, 154122.
     DOI: 10.1063/1.5090222
   * E. Caldeweyher, J.-M. Mewes, S. Ehlert and S. Grimme, Phys. Chem. Chem. Phys.
     2020, 22, 8499-8512. DOI: 10.1039/D0CP00502A
   
   for sTDA-xTB:
   * S. Grimme and C. Bannwarth, J. Chem. Phys., 2016, 145, 054103.
     DOI: 10.1063/1.4959605
   
   in the mass-spec context:
   * V. Asgeirsson, C. Bauer and S. Grimme, Chem. Sci., 2017, 8, 4879.
     DOI: 10.1039/c7sc00601b
   * J. Koopman and S. Grimme, ACS Omega 2019, 4, 12, 15120-15133.
     DOI: 10.1021/acsomega.9b02011
   
   for metadynamics refer to:
   * S. Grimme, J. Chem. Theory Comput., 2019, 155, 2847-2862
     DOI: 10.1021/acs.jctc.9b00143
   
   for SPH calculations refer to:
   * S. Spicher and S. Grimme, J. Chem. Theory Comput., 2021, 17, 1701-1714
     DOI: 10.1021/acs.jctc.0c01306
   
   with help from (in alphabetical order)
   P. Atkinson, C. Bannwarth, F. Bohle, G. Brandenburg, E. Caldeweyher
   M. Checinski, S. Dohm, S. Ehlert, S. Ehrlich, I. Gerasimov, C. Hölzer
   A. Katbashev, J. Koopman, C. Lavigne, S. Lehtola, F. März, M. Müller,
   F. Musil, H. Neugebauer, J. Pisarek, C. Plett, P. Pracht, F. Pultar,
   J. Seibert, P. Shushkov, S. Spicher, M. Stahn, M. Steiner, T. Strunk,
   J. Stückrath, T. Rose, and J. Unsleber
   
 * started run on 2022/07/30 at 05:10:08.941     

           -------------------------------------------------
          |                Calculation Setup                |
           -------------------------------------------------

          program call               : xtb Ni_m-CP_C6_2.xyz --gfn 1 --opt -T 48
          hostname                   : cx3-15-15.cx3.hpc.ic.ac.uk
          coordinate file            : Ni_m-CP_C6_2.xyz
          omp threads                :                     1

   ID    Z sym.   atoms
    1   28 Ni     1, 63
    2    6 C      2-6, 8-12, 15-20, 22-27, 29-35, 38-42, 64-68, 70-74, 77-82,
                  84-89, 91-97, 100-104, 125-130
    3    7 N      7, 21, 28, 43, 69, 83, 90, 105
    4    8 O      13, 14, 36, 37, 75, 76, 98, 99
    5    1 H      44-62, 106-124
########################################################################
[WARNING] Please study the warnings concerning your input carefully
-1- prog_main_parseArguments: Unknown option '-T' provided
########################################################################

           -------------------------------------------------
          |                 G F N 1 - x T B                 |
           -------------------------------------------------

        Reference                      10.1021/acs.jctc.7b00118
      * Hamiltonian:
        H0-scaling (s, p, d)           1.850000    2.250000    2.000000
        zeta-weighting                 0.000000
      * Dispersion:
        s8                             2.400000
        a1                             0.630000
        a2                             5.000000
        s9                             0.000000
      * Repulsion:
        kExp                           1.500000
        rExp                           1.000000
      * Coulomb:
        alpha                          2.000000
        third order                    atomic
        anisotropic                    false
      * Halogen bond correction:
        rad-scale                      1.300000
        damping                        0.440000


          ...................................................
          :                      SETUP                      :
          :.................................................:
          :  # basis functions                 456          :
          :  # atomic orbitals                 454          :
          :  # shells                          262          :
          :  # electrons                       442          :
          :  # halogen bonds                     0          :
          :  max. iterations                   250          :
          :  Hamiltonian                  GFN1-xTB          :
          :  restarted?                      false          :
          :  GBSA solvation                  false          :
          :  PC potential                    false          :
          :  electronic temp.          300.0000000     K    :
          :  accuracy                    1.0000000          :
          :  -> integral cutoff          0.2500000E+02      :
          :  -> integral neglect         0.1000000E-07      :
          :  -> SCF convergence          0.1000000E-05 Eh   :
          :  -> wf. convergence          0.2000000E-04 e    :
          :  Broyden damping             0.4000000          :
          ...................................................

 iter      E             dE          RMSdq      gap      omega  full diag
   1   -250.6507850 -0.250651E+03  0.106E+01    0.39       0.0  T
   2   -238.3161242  0.123347E+02  0.855E+00    0.00       1.0  T
   3   -247.5564569 -0.924033E+01  0.644E+00    0.01       1.0  T
   4   -194.4750489  0.530814E+02  0.754E+00    0.04       1.0  T
   5   -139.8248881  0.546502E+02  0.918E+00    0.10       1.0  T
   6   -236.0331324 -0.962082E+02  0.502E+00    0.06       1.0  T
   7   -248.6542155 -0.126211E+02  0.389E+00    0.08       1.0  T
   8   -249.9234627 -0.126925E+01  0.348E+00    0.02       1.0  T
   9   -250.5440064 -0.620544E+00  0.328E+00    0.25       1.0  T
  10   -250.4953906  0.486158E-01  0.337E+00    0.29       1.0  T
  11   -250.6313359 -0.135945E+00  0.308E+00    0.26       1.0  T
  12   -251.2340166 -0.602681E+00  0.184E+00    0.20       1.0  T
  13   -251.3846460 -0.150629E+00  0.124E+00    0.46       1.0  T
  14   -251.5437872 -0.159141E+00  0.252E-01    1.08       1.0  T
  15   -251.5568685 -0.130813E-01  0.210E-01    0.88       1.0  T
  16   -251.5603833 -0.351485E-02  0.157E-01    0.82       1.0  T
  17   -251.5635039 -0.312054E-02  0.132E-01    0.91       1.0  T
  18   -251.5651204 -0.161652E-02  0.986E-02    0.93       1.0  T
  19   -251.5664975 -0.137708E-02  0.537E-02    0.97       1.0  T
  20   -251.5670938 -0.596310E-03  0.300E-02    0.99       1.0  T
  21   -251.5671474 -0.536628E-04  0.241E-02    0.99       1.0  T
  22   -251.5672478 -0.100323E-03  0.952E-03    1.01       1.0  T
  23   -251.5672697 -0.219819E-04  0.488E-03    1.01       1.8  T
  24   -251.5672746 -0.481556E-05  0.354E-03    1.02       2.5  T
  25   -251.5672762 -0.164794E-05  0.215E-03    1.02       4.1  T
  26   -251.5672768 -0.601124E-06  0.155E-03    1.02       5.6  T
  27   -251.5672774 -0.570534E-06  0.131E-03    1.02       6.7  T
  28   -251.5672777 -0.297079E-06  0.114E-03    1.02       7.7  T
  29   -251.5672781 -0.398554E-06  0.897E-04    1.02       9.8  T
  30   -251.5672784 -0.339971E-06  0.386E-04    1.02      22.7  T
  31   -251.5672785 -0.447106E-07  0.140E-04    1.02      62.5  T
  32   -251.5672785 -0.337201E-08  0.979E-05    1.02      89.6  T

   *** convergence criteria satisfied after 32 iterations ***

         #    Occupation            Energy/Eh            Energy/eV
      -------------------------------------------------------------
         1        2.0000           -0.8173421             -22.2410
       ...           ...                  ...                  ...
       215        2.0000           -0.4023666             -10.9490
       216        2.0000           -0.4023218             -10.9477
       217        2.0000           -0.4019473             -10.9375
       218        2.0000           -0.4015138             -10.9257
       219        2.0000           -0.3997139             -10.8768
       220        2.0000           -0.3920995             -10.6696
       221        2.0000           -0.3896321             -10.6024 (HOMO)
       222                         -0.3522010              -9.5839 (LUMO)
       223                         -0.3444653              -9.3734
       224                         -0.3443772              -9.3710
       225                         -0.3400488              -9.2532
       226                         -0.3366144              -9.1597
       ...                                ...                  ...
       454                          1.5996931              43.5299
      -------------------------------------------------------------
                  HL-Gap            0.0374311 Eh            1.0186 eV
             Fermi-level           -0.3708827 Eh          -10.0922 eV

 SCC (total)                   0 d,  0 h,  0 min,  2.040 sec
 SCC setup                      ...        0 min,  0.005 sec (  0.247%)
 Dispersion                     ...        0 min,  0.004 sec (  0.176%)
 classical contributions        ...        0 min,  0.001 sec (  0.069%)
 integral evaluation            ...        0 min,  0.123 sec (  6.038%)
 iterations                     ...        0 min,  1.591 sec ( 77.968%)
 molecular gradient             ...        0 min,  0.305 sec ( 14.933%)
 printout                       ...        0 min,  0.012 sec (  0.569%)

         :::::::::::::::::::::::::::::::::::::::::::::::::::::
         ::                     SUMMARY                     ::
         :::::::::::::::::::::::::::::::::::::::::::::::::::::
         :: total energy            -248.011331944796 Eh    ::
         :: gradient norm              0.559626150040 Eh/a0 ::
         :: HOMO-LUMO gap              1.018552190282 eV    ::
         ::.................................................::
         :: SCC energy              -251.567278466665 Eh    ::
         :: -> electrostatic           0.486718708358 Eh    ::
         :: repulsion energy           3.669965200760 Eh    ::
         :: dispersion energy         -0.114018678891 Eh    ::
         :: halogen bond corr.         0.000000000000 Eh    ::
         :: add. restraining           0.000000000000 Eh    ::
         :: total charge               0.000000000411 e     ::
         :::::::::::::::::::::::::::::::::::::::::::::::::::::

      ----------------------------------------------------------- 
     |                   =====================                   |
     |                        A N C O P T                        |
     |                   =====================                   |
     |               Approximate Normal Coordinate               |
     |                Rational Function Optimizer                |
      ----------------------------------------------------------- 

          ...................................................
          :                      SETUP                      :
          :.................................................:
          :   optimization level            normal          :
          :   max. optcycles                   390          :
          :   ANC micro-cycles                  20          :
          :   degrees of freedom               384          :
          :.................................................:
          :   RF solver                   davidson          :
          :   write xtbopt.log                true          :
          :   linear?                        false          :
          :   energy convergence         0.5000000E-05 Eh   :
          :   grad. convergence          0.1000000E-02 Eh/α :
          :   maximium RF displ.         1.0000000          :
          :   Hlow (freq-cutoff)         0.1000000E-01      :
          :   Hmax (freq-cutoff)         5.0000000          :
          :   S6 in model hess.         20.0000000          :
          ...................................................

generating ANC from model Hessian ...
Using Lindh-Hessian (1995)
 Shifting diagonal of input Hessian by    1.0020577670077675E-002
 Lowest  eigenvalues of input Hessian
    0.010000    0.010007    0.010016    0.000000    0.000000    0.000000
    0.000000    0.000000    0.000000    0.010030    0.010056    0.010125
    0.010134    0.010222    0.010272    0.010367    0.010393    0.010396
 Highest eigenvalues
    2.102800    2.175951    2.193895    2.446608    2.891667    3.004140


........................................................................
.............................. CYCLE    1 ..............................
........................................................................
   1   -251.5672785 -0.251567E+03  0.466E-05    1.02       0.0  T
   2   -251.5672785 -0.252214E-09  0.430E-05    1.02     204.1  T
   3   -251.5672785 -0.469100E-09  0.132E-05    1.02     664.5  T
     SCC iter.                  ...        0 min,  0.153 sec
     gradient                   ...        0 min,  0.302 sec
 * total energy  :  -248.0113319 Eh     change       -0.2934826E-08 Eh
   gradient norm :     0.5596253 Eh/α   predicted     0.0000000E+00 (-100.00%)
   displ. norm   :     0.4510738 α      lambda       -0.1929978E+00
   maximum displ.:     0.1013232 α      in ANC's #300, #141, #266, ...

........................................................................
.............................. CYCLE    2 ..............................
........................................................................
   1   -251.6586852 -0.251659E+03  0.144E-01    1.08       0.0  T
   2   -251.6619275 -0.324230E-02  0.789E-02    1.10       1.0  T
   3   -251.6630339 -0.110642E-02  0.334E-02    1.10       1.0  T
   4   -251.6630588 -0.249035E-04  0.217E-02    1.10       1.0  T
   5   -251.6630895 -0.307207E-04  0.120E-02    1.10       1.0  T
   6   -251.6631427 -0.532078E-04  0.243E-03    1.10       3.6  T
   7   -251.6631446 -0.182739E-05  0.890E-04    1.10       9.9  T
   8   -251.6631447 -0.102642E-06  0.304E-04    1.10      28.9  T
   9   -251.6631447 -0.260930E-07  0.136E-04    1.10      64.3  T
  10   -251.6631447 -0.692785E-08  0.554E-05    1.10     158.3  T
     SCC iter.                  ...        0 min,  0.506 sec
     gradient                   ...        0 min,  0.303 sec
 * total energy  :  -248.1544433 Eh     change       -0.1431113E+00 Eh
   gradient norm :     0.2697186 Eh/α   predicted    -0.1161706E+00 ( -18.83%)
   displ. norm   :     0.5075432 α      lambda       -0.9597872E-01
   maximum displ.:     0.1301281 α      in ANC's #96, #129, #141, ...

........................................................................
.............................. CYCLE    3 ..............................
........................................................................
   1   -251.7497878 -0.251750E+03  0.144E-01    1.15       0.0  T
   2   -251.7523739 -0.258606E-02  0.709E-02    1.14       1.0  T
   3   -251.7537684 -0.139455E-02  0.372E-02    1.15       1.0  T
   4   -251.7541941 -0.425689E-03  0.175E-02    1.14       1.0  T
   5   -251.7542344 -0.402880E-04  0.991E-03    1.14       1.0  T
   6   -251.7542588 -0.244328E-04  0.187E-03    1.14       4.7  T
   7   -251.7542593 -0.478732E-06  0.838E-04    1.14      10.5  T
   8   -251.7542594 -0.815754E-07  0.343E-04    1.14      25.6  T
   9   -251.7542594 -0.362157E-07  0.167E-04    1.14      52.5  T
  10   -251.7542595 -0.132113E-07  0.513E-05    1.14     171.1  T
     SCC iter.                  ...        0 min,  0.500 sec
     gradient                   ...        0 min,  0.317 sec
 * total energy  :  -248.2183758 Eh     change       -0.6393250E-01 Eh
   gradient norm :     0.0961004 Eh/α   predicted    -0.6035145E-01 (  -5.60%)
   displ. norm   :     0.5178951 α      lambda       -0.2936162E-01
   maximum displ.:     0.1552690 α      in ANC's #96, #129, #95, ...

........................................................................
.............................. CYCLE    4 ..............................
........................................................................
   1   -251.8002274 -0.251800E+03  0.767E-02    1.19       0.0  T
   2   -251.8007704 -0.542928E-03  0.348E-02    1.19       1.0  T
   3   -251.8010921 -0.321769E-03  0.224E-02    1.19       1.0  T
   4   -251.8013083 -0.216140E-03  0.859E-03    1.19       1.0  T
   5   -251.8013134 -0.515504E-05  0.424E-03    1.19       2.1  T
   6   -251.8013178 -0.433746E-05  0.951E-04    1.19       9.2  T
   7   -251.8013179 -0.157061E-06  0.318E-04    1.19      27.6  T
   8   -251.8013179 -0.110742E-07  0.159E-04    1.19      55.0  T
   9   -251.8013179 -0.525409E-08  0.872E-05    1.19     100.6  T
     SCC iter.                  ...        0 min,  0.442 sec
     gradient                   ...        0 min,  0.304 sec
 * total energy  :  -248.2390477 Eh     change       -0.2067191E-01 Eh
   gradient norm :     0.0458443 Eh/α   predicted    -0.1861846E-01 (  -9.93%)
   displ. norm   :     0.5209864 α      lambda       -0.1258385E-01
   maximum displ.:     0.1795204 α      in ANC's #36, #73, #37, ...

........................................................................
.............................. CYCLE    5 ..............................
........................................................................
   1   -251.8286950 -0.251829E+03  0.433E-02    1.23       0.0  T
   2   -251.8288582 -0.163215E-03  0.186E-02    1.23       1.0  T
   3   -251.8289275 -0.693690E-04  0.130E-02    1.23       1.0  T
   4   -251.8289817 -0.541142E-04  0.585E-03    1.23       1.5  T
   5   -251.8289827 -0.102291E-05  0.278E-03    1.23       3.2  T
   6   -251.8289856 -0.296486E-05  0.524E-04    1.23      16.7  T
   7   -251.8289857 -0.411868E-07  0.175E-04    1.23      50.2  T
   8   -251.8289857 -0.171244E-08  0.812E-05    1.23     108.0  T
     SCC iter.                  ...        0 min,  0.401 sec
     gradient                   ...        0 min,  0.303 sec
 * total energy  :  -248.2480412 Eh     change       -0.8993543E-02 Eh
   gradient norm :     0.0287801 Eh/α   predicted    -0.7999723E-02 ( -11.05%)
   displ. norm   :     0.5000723 α      lambda       -0.5823388E-02
   maximum displ.:     0.2388088 α      in ANC's #36, #37, #35, ...

........................................................................
.............................. CYCLE    6 ..............................
........................................................................
   1   -251.8452540 -0.251845E+03  0.224E-02    1.24       0.0  T
   2   -251.8452990 -0.450523E-04  0.101E-02    1.24       1.0  T
   3   -251.8453201 -0.211300E-04  0.627E-03    1.24       1.4  T
   4   -251.8453240 -0.380874E-05  0.285E-03    1.24       3.1  T
   5   -251.8453233  0.691589E-06  0.177E-03    1.24       5.0  T
   6   -251.8453250 -0.173372E-05  0.301E-04    1.24      29.1  T
   7   -251.8453250 -0.162117E-07  0.101E-04    1.24      87.1  T
   8   -251.8453250 -0.154668E-08  0.323E-05    1.24     271.5  T
     SCC iter.                  ...        0 min,  0.402 sec
     gradient                   ...        0 min,  0.304 sec
 * total energy  :  -248.2521925 Eh     change       -0.4151270E-02 Eh
   gradient norm :     0.0217523 Eh/α   predicted    -0.3639833E-02 ( -12.32%)
   displ. norm   :     0.4678497 α      lambda       -0.2947349E-02
   maximum displ.:     0.2347833 α      in ANC's #36, #37, #35, ...

........................................................................
.............................. CYCLE    7 ..............................
........................................................................
   1   -251.8576580 -0.251858E+03  0.126E-02    1.25       0.0  T
   2   -251.8576742 -0.161606E-04  0.626E-03    1.25       1.4  T
   3   -251.8576818 -0.766349E-05  0.344E-03    1.25       2.6  T
   4   -251.8576825 -0.654933E-06  0.149E-03    1.25       5.9  T
   5   -251.8576823  0.161664E-06  0.102E-03    1.25       8.6  T
   6   -251.8576828 -0.503085E-06  0.226E-04    1.25      38.8  T
   7   -251.8576828 -0.154797E-07  0.667E-05    1.25     131.4  T
   8   -251.8576828 -0.531116E-09  0.234E-05    1.25     375.0  T
     SCC iter.                  ...        0 min,  0.394 sec
     gradient                   ...        0 min,  0.305 sec
 * total energy  :  -248.2540498 Eh     change       -0.1857316E-02 Eh
   gradient norm :     0.0158440 Eh/α   predicted    -0.1796244E-02 (  -3.29%)
   displ. norm   :     0.4493965 α      lambda       -0.1988789E-02
   maximum displ.:     0.2599908 α      in ANC's #36, #35, #37, ...

........................................................................
.............................. CYCLE    8 ..............................
........................................................................
   1   -251.8684200 -0.251868E+03  0.108E-02    1.24       0.0  T
   2   -251.8684321 -0.121458E-04  0.503E-03    1.25       1.7  T
   3   -251.8684373 -0.517645E-05  0.337E-03    1.24       2.6  T
   4   -251.8684403 -0.300523E-05  0.143E-03    1.25       6.1  T
   5   -251.8684403 -0.363388E-07  0.897E-04    1.24       9.8  T
   6   -251.8684406 -0.247107E-06  0.155E-04    1.24      56.5  T
   7   -251.8684406 -0.355635E-08  0.534E-05    1.24     164.3  T
     SCC iter.                  ...        0 min,  0.354 sec
     gradient                   ...        0 min,  0.306 sec
 * total energy  :  -248.2547121 Eh     change       -0.6622418E-03 Eh
   gradient norm :     0.0143514 Eh/α   predicted    -0.1195221E-02 (  80.48%)
   displ. norm   :     0.1851741 α      lambda       -0.9494033E-03
   maximum displ.:     0.0744712 α      in ANC's #15, #22, #36, ...

........................................................................
.............................. CYCLE    9 ..............................
........................................................................
   1   -251.8757162 -0.251876E+03  0.471E-03    1.24       0.0  T
   2   -251.8757175 -0.134814E-05  0.284E-03    1.24       3.1  T
   3   -251.8757185 -0.947848E-06  0.173E-03    1.24       5.1  T
   4   -251.8757188 -0.325796E-06  0.930E-04    1.24       9.4  T
   5   -251.8757190 -0.232733E-06  0.356E-04    1.24      24.6  T
   6   -251.8757191 -0.454444E-07  0.709E-05    1.24     123.6  T
   7   -251.8757191 -0.439087E-09  0.408E-05    1.24     215.2  T
     SCC iter.                  ...        0 min,  0.359 sec
     gradient                   ...        0 min,  0.307 sec
 * total energy  :  -248.2553165 Eh     change       -0.6044582E-03 Eh
   gradient norm :     0.0091256 Eh/α   predicted    -0.4909791E-03 ( -18.77%)
   displ. norm   :     0.1964151 α      lambda       -0.4416430E-03
   maximum displ.:     0.0757200 α      in ANC's #20, #36, #14, ...

........................................................................
.............................. CYCLE   10 ..............................
........................................................................
   1   -251.8783626 -0.251878E+03  0.396E-03    1.24       0.0  T
   2   -251.8783643 -0.169492E-05  0.198E-03    1.24       4.4  T
   3   -251.8783648 -0.521201E-06  0.114E-03    1.24       7.7  T
   4   -251.8783649 -0.990181E-07  0.611E-04    1.24      14.4  T
   5   -251.8783650 -0.724225E-07  0.324E-04    1.24      27.1  T
   6   -251.8783650 -0.418549E-07  0.885E-05    1.24      99.1  T
   7   -251.8783650 -0.843812E-09  0.277E-05    1.24     316.2  T
     SCC iter.                  ...        0 min,  0.346 sec
     gradient                   ...        0 min,  0.311 sec
 * total energy  :  -248.2556008 Eh     change       -0.2842613E-03 Eh
   gradient norm :     0.0063391 Eh/α   predicted    -0.2293473E-03 ( -19.32%)
   displ. norm   :     0.2793990 α      lambda       -0.3706971E-03
   maximum displ.:     0.1266098 α      in ANC's #20, #14, #36, ...

........................................................................
.............................. CYCLE   11 ..............................
........................................................................
   1   -251.8796922 -0.251880E+03  0.351E-03    1.23       0.0  T
   2   -251.8796938 -0.163835E-05  0.186E-03    1.23       4.7  T
   3   -251.8796944 -0.569448E-06  0.909E-04    1.23       9.6  T
   4   -251.8796944 -0.730120E-07  0.568E-04    1.23      15.4  T
   5   -251.8796945 -0.874174E-07  0.271E-04    1.23      32.4  T
   6   -251.8796945 -0.198315E-07  0.793E-05    1.23     110.6  T
   7   -251.8796945 -0.634600E-09  0.226E-05    1.23     387.7  T
     SCC iter.                  ...        0 min,  0.352 sec
     gradient                   ...        0 min,  0.310 sec
 * total energy  :  -248.2558297 Eh     change       -0.2289652E-03 Eh
   gradient norm :     0.0070610 Eh/α   predicted    -0.1998207E-03 ( -12.73%)
   displ. norm   :     0.2684332 α      lambda       -0.2625705E-03
   maximum displ.:     0.1358831 α      in ANC's #20, #14, #10, ...

........................................................................
.............................. CYCLE   12 ..............................
........................................................................
   1   -251.8801001 -0.251880E+03  0.236E-03    1.23       0.0  T
   2   -251.8801008 -0.748526E-06  0.108E-03    1.23       8.1  T
   3   -251.8801010 -0.130791E-06  0.518E-04    1.23      16.9  T
   4   -251.8801010  0.131159E-07  0.393E-04    1.23      22.3  T
   5   -251.8801010 -0.485454E-07  0.139E-04    1.23      63.0  T
   6   -251.8801010 -0.467463E-08  0.286E-05    1.23     306.2  T
     SCC iter.                  ...        0 min,  0.304 sec
     gradient                   ...        0 min,  0.311 sec
 * total energy  :  -248.2560195 Eh     change       -0.1897150E-03 Eh
   gradient norm :     0.0062561 Eh/α   predicted    -0.1407460E-03 ( -25.81%)
   displ. norm   :     0.3341443 α      lambda       -0.3006074E-03
   maximum displ.:     0.1730813 α      in ANC's #20, #14, #10, ...

........................................................................
.............................. CYCLE   13 ..............................
........................................................................
   1   -251.8792359 -0.251879E+03  0.289E-03    1.23       0.0  T
   2   -251.8792367 -0.793858E-06  0.158E-03    1.23       5.5  T
   3   -251.8792371 -0.468276E-06  0.773E-04    1.23      11.4  T
   4   -251.8792373 -0.130818E-06  0.546E-04    1.23      16.1  T
   5   -251.8792374 -0.766744E-07  0.153E-04    1.23      57.2  T
   6   -251.8792374 -0.280795E-08  0.421E-05    1.23     208.2  T
     SCC iter.                  ...        0 min,  0.303 sec
     gradient                   ...        0 min,  0.307 sec
 * total energy  :  -248.2561893 Eh     change       -0.1698461E-03 Eh
   gradient norm :     0.0062442 Eh/α   predicted    -0.1670891E-03 (  -1.62%)
   displ. norm   :     0.2940130 α      lambda       -0.2644056E-03
   maximum displ.:     0.1572809 α      in ANC's #20, #10, #14, ...

........................................................................
.............................. CYCLE   14 ..............................
........................................................................
   1   -251.8775330 -0.251878E+03  0.250E-03    1.23       0.0  T
   2   -251.8775337 -0.628888E-06  0.141E-03    1.23       6.2  T
   3   -251.8775339 -0.280965E-06  0.726E-04    1.23      12.1  T
   4   -251.8775340 -0.752822E-07  0.536E-04    1.23      16.4  T
   5   -251.8775341 -0.886183E-07  0.153E-04    1.23      57.2  T
   6   -251.8775341 -0.231384E-08  0.540E-05    1.23     162.4  T
     SCC iter.                  ...        0 min,  0.294 sec
     gradient                   ...        0 min,  0.305 sec
 * total energy  :  -248.2563471 Eh     change       -0.1577569E-03 Eh
   gradient norm :     0.0061100 Eh/α   predicted    -0.1436392E-03 (  -8.95%)
   displ. norm   :     0.2084882 α      lambda       -0.1419058E-03
   maximum displ.:     0.1148103 α      in ANC's #20, #10, #14, ...

........................................................................
.............................. CYCLE   15 ..............................
........................................................................
   1   -251.8770329 -0.251877E+03  0.167E-03    1.23       0.0  T
   2   -251.8770333 -0.413294E-06  0.957E-04    1.23       9.2  T
   3   -251.8770335 -0.160642E-06  0.479E-04    1.23      18.3  T
   4   -251.8770335 -0.226169E-07  0.333E-04    1.23      26.3  T
   5   -251.8770335 -0.322825E-07  0.108E-04    1.23      80.9  T
   6   -251.8770335 -0.102924E-08  0.308E-05    1.23     284.6  T
     SCC iter.                  ...        0 min,  0.304 sec
     gradient                   ...        0 min,  0.306 sec
 * total energy  :  -248.2564628 Eh     change       -0.1157027E-03 Eh
   gradient norm :     0.0047572 Eh/α   predicted    -0.7403984E-04 ( -36.01%)
   displ. norm   :     0.3098388 α      lambda       -0.2095365E-03
   maximum displ.:     0.1691731 α      in ANC's #20, #10, #8, ...

........................................................................
.............................. CYCLE   16 ..............................
........................................................................
   1   -251.8771787 -0.251877E+03  0.318E-03    1.23       0.0  T
   2   -251.8771798 -0.106269E-05  0.184E-03    1.23       4.8  T
   3   -251.8771807 -0.905431E-06  0.980E-04    1.23       8.9  T
   4   -251.8771810 -0.273772E-06  0.514E-04    1.23      17.1  T
   5   -251.8771810 -0.398313E-07  0.192E-04    1.23      45.7  T
   6   -251.8771810 -0.530170E-08  0.524E-05    1.23     167.3  T
     SCC iter.                  ...        0 min,  0.303 sec
     gradient                   ...        0 min,  0.304 sec
 * total energy  :  -248.2566052 Eh     change       -0.1424361E-03 Eh
   gradient norm :     0.0039509 Eh/α   predicted    -0.1148264E-03 ( -19.38%)
   displ. norm   :     0.2820235 α      lambda       -0.1178869E-03
   maximum displ.:     0.1555065 α      in ANC's #20, #10, #8, ...

........................................................................
.............................. CYCLE   17 ..............................
........................................................................
   1   -251.8766356 -0.251877E+03  0.161E-03    1.22       0.0  T
   2   -251.8766356 -0.931582E-07  0.124E-03    1.22       7.1  T
   3   -251.8766362 -0.534469E-06  0.480E-04    1.22      18.3  T
   4   -251.8766362 -0.394680E-07  0.348E-04    1.22      25.2  T
   5   -251.8766362 -0.241004E-07  0.855E-05    1.22     102.6  T
   6   -251.8766362 -0.122213E-08  0.274E-05    1.22     319.7  T
     SCC iter.                  ...        0 min,  0.302 sec
     gradient                   ...        0 min,  0.306 sec
 * total energy  :  -248.2566936 Eh     change       -0.8845011E-04 Eh
   gradient norm :     0.0044089 Eh/α   predicted    -0.6363405E-04 ( -28.06%)
   displ. norm   :     0.2934533 α      lambda       -0.1059834E-03
   maximum displ.:     0.1589869 α      in ANC's #20, #10, #8, ...

........................................................................
.............................. CYCLE   18 ..............................
........................................................................
   1   -251.8768475 -0.251877E+03  0.120E-03    1.22       0.0  T
   2   -251.8768476 -0.875776E-07  0.936E-04    1.22       9.4  T
   3   -251.8768479 -0.295603E-06  0.337E-04    1.22      26.0  T
   4   -251.8768479 -0.152696E-07  0.272E-04    1.22      32.2  T
   5   -251.8768479 -0.176303E-07  0.729E-05    1.22     120.3  T
   6   -251.8768479 -0.506304E-09  0.253E-05    1.22     346.8  T
     SCC iter.                  ...        0 min,  0.306 sec
     gradient                   ...        0 min,  0.306 sec
 * total energy  :  -248.2567800 Eh     change       -0.8631112E-04 Eh
   gradient norm :     0.0038358 Eh/α   predicted    -0.5755708E-04 ( -33.31%)
   displ. norm   :     0.3490302 α      lambda       -0.1203143E-03
   maximum displ.:     0.1802006 α      in ANC's #20, #10, #8, ...

........................................................................
.............................. CYCLE   19 ..............................
........................................................................
   1   -251.8782297 -0.251878E+03  0.174E-03    1.22       0.0  T
   2   -251.8782302 -0.519258E-06  0.920E-04    1.22       9.5  T
   3   -251.8782304 -0.121190E-06  0.422E-04    1.22      20.8  T
   4   -251.8782303  0.418743E-08  0.304E-04    1.22      28.8  T
   5   -251.8782304 -0.279826E-07  0.140E-04    1.22      62.7  T
   6   -251.8782304 -0.504301E-08  0.339E-05    1.22     258.7  T
     SCC iter.                  ...        0 min,  0.294 sec
     gradient                   ...        0 min,  0.305 sec
 * total energy  :  -248.2568685 Eh     change       -0.8858683E-04 Eh
   gradient norm :     0.0027963 Eh/α   predicted    -0.6748808E-04 ( -23.82%)
   displ. norm   :     0.2648427 α      lambda       -0.7030296E-04
   maximum displ.:     0.1416992 α      in ANC's #10, #8, #20, ...

........................................................................
.............................. CYCLE   20 ..............................
........................................................................
   1   -251.8794680 -0.251879E+03  0.131E-03    1.23       0.0  T
   2   -251.8794681 -0.167639E-06  0.708E-04    1.23      12.4  T
   3   -251.8794682 -0.857578E-07  0.423E-04    1.23      20.7  T
   4   -251.8794682 -0.230242E-07  0.234E-04    1.23      37.5  T
   5   -251.8794683 -0.132977E-07  0.934E-05    1.23      93.9  T
   6   -251.8794683 -0.258672E-08  0.226E-05    1.23     388.0  T
     SCC iter.                  ...        0 min,  0.300 sec
     gradient                   ...        0 min,  0.308 sec
 * total energy  :  -248.2569173 Eh     change       -0.4873370E-04 Eh
   gradient norm :     0.0026303 Eh/α   predicted    -0.3761814E-04 ( -22.81%)
   displ. norm   :     0.1788627 α      lambda       -0.4638928E-04
   maximum displ.:     0.0997500 α      in ANC's #10, #8, #20, ...
 * RMSD in coord.:     0.3942102 α      energy gain  -0.2455853E+00 Eh

generating ANC from model Hessian ...
Using Lindh-Hessian (1995)
 Shifting diagonal of input Hessian by    1.0028344539518964E-002
 Lowest  eigenvalues of input Hessian
    0.010000    0.010012    0.010021    0.000000    0.000000    0.000000
    0.000000    0.000000    0.000000    0.010030    0.010046    0.010133
    0.010139    0.010248    0.010302    0.010416    0.010435    0.010459
 Highest eigenvalues
    2.400298    2.400381    2.400426    2.400619    2.660873    2.989864


........................................................................
.............................. CYCLE   21 ..............................
........................................................................
   1   -251.8805900 -0.251881E+03  0.125E-03    1.22       0.0  T
   2   -251.8805901 -0.152506E-06  0.771E-04    1.22      11.4  T
   3   -251.8805902 -0.139169E-06  0.385E-04    1.22      22.8  T
   4   -251.8805903 -0.359164E-07  0.250E-04    1.22      35.1  T
   5   -251.8805903 -0.144434E-07  0.722E-05    1.22     121.4  T
   6   -251.8805903 -0.523272E-09  0.185E-05    1.22     474.0  T
     SCC iter.                  ...        0 min,  0.306 sec
     gradient                   ...        0 min,  0.306 sec
 * total energy  :  -248.2569447 Eh     change       -0.2738519E-04 Eh
   gradient norm :     0.0027357 Eh/α   predicted     0.0000000E+00 (-100.00%)
   displ. norm   :     0.0358796 α      lambda       -0.1790477E-04
   maximum displ.:     0.0168487 α      in ANC's #14, #8, #20, ...

........................................................................
.............................. CYCLE   22 ..............................
........................................................................
   1   -251.8800772 -0.251880E+03  0.702E-04    1.22       0.0  T
   2   -251.8800773 -0.875199E-07  0.359E-04    1.22      24.4  T
   3   -251.8800773 -0.166270E-07  0.157E-04    1.22      55.8  T
   4   -251.8800773 -0.184855E-08  0.146E-04    1.22      60.1  T
     SCC iter.                  ...        0 min,  0.197 sec
     gradient                   ...        0 min,  0.305 sec
 * total energy  :  -248.2569581 Eh     change       -0.1347016E-04 Eh
   gradient norm :     0.0016627 Eh/α   predicted    -0.1446281E-04 (   7.37%)
   displ. norm   :     0.0796230 α      lambda       -0.2585146E-04
   maximum displ.:     0.0370071 α      in ANC's #8, #12, #20, ...

........................................................................
.............................. CYCLE   23 ..............................
........................................................................
   1   -251.8789826 -0.251879E+03  0.135E-03    1.22       0.0  T
   2   -251.8789829 -0.310529E-06  0.749E-04    1.22      11.7  T
   3   -251.8789830 -0.759693E-07  0.312E-04    1.22      28.1  T
   4   -251.8789830 -0.388374E-08  0.305E-04    1.22      28.8  T
   5   -251.8789830 -0.278020E-07  0.866E-05    1.22     101.3  T
   6   -251.8789830 -0.277680E-09  0.117E-05    1.22     750.4  T
     SCC iter.                  ...        0 min,  0.297 sec
     gradient                   ...        0 min,  0.306 sec
 * total energy  :  -248.2569696 Eh     change       -0.1144340E-04 Eh
   gradient norm :     0.0024135 Eh/α   predicted    -0.1297260E-04 (  13.36%)
   displ. norm   :     0.0823614 α      lambda       -0.4230865E-04
   maximum displ.:     0.0417591 α      in ANC's #14, #8, #20, ...

........................................................................
.............................. CYCLE   24 ..............................
........................................................................
   1   -251.8782086 -0.251878E+03  0.905E-04    1.22       0.0  T
   2   -251.8782087 -0.140563E-06  0.487E-04    1.22      18.0  T
   3   -251.8782087 -0.284325E-07  0.204E-04    1.22      43.0  T
   4   -251.8782087  0.169067E-08  0.197E-04    1.22      44.5  T
   5   -251.8782087 -0.118116E-07  0.565E-05    1.22     155.4  T
     SCC iter.                  ...        0 min,  0.255 sec
     gradient                   ...        0 min,  0.308 sec
 * total energy  :  -248.2569949 Eh     change       -0.2535867E-04 Eh
   gradient norm :     0.0030937 Eh/α   predicted    -0.2129846E-04 ( -16.01%)
   displ. norm   :     0.0957898 α      lambda       -0.3247987E-04
   maximum displ.:     0.0466369 α      in ANC's #14, #8, #20, ...

........................................................................
.............................. CYCLE   25 ..............................
........................................................................
   1   -251.8779878 -0.251878E+03  0.517E-04    1.22       0.0  T
   2   -251.8779878 -0.312197E-07  0.289E-04    1.22      30.4  T
   3   -251.8779879 -0.408957E-08  0.167E-04    1.22      52.6  T
   4   -251.8779879  0.155916E-08  0.116E-04    1.22      75.3  T
     SCC iter.                  ...        0 min,  0.207 sec
     gradient                   ...        0 min,  0.307 sec
 * total energy  :  -248.2569963 Eh     change       -0.1348810E-05 Eh
   gradient norm :     0.0031162 Eh/α   predicted    -0.1639501E-04 (1115.52%)
   displ. norm   :     0.0865340 α      lambda       -0.5270040E-04
   maximum displ.:     0.0426551 α      in ANC's #8, #14, #12, ...

........................................................................
.............................. CYCLE   26 ..............................
........................................................................
   1   -251.8783704 -0.251878E+03  0.941E-04    1.22       0.0  T
   2   -251.8783706 -0.139755E-06  0.478E-04    1.22      18.3  T
   3   -251.8783706 -0.234800E-07  0.254E-04    1.22      34.6  T
   4   -251.8783706 -0.805775E-08  0.204E-04    1.22      42.9  T
   5   -251.8783706 -0.123667E-07  0.561E-05    1.22     156.3  T
   6   -251.8783706 -0.348876E-09  0.140E-05    1.22     626.7  T
     SCC iter.                  ...        0 min,  0.304 sec
     gradient                   ...        0 min,  0.304 sec
 * total energy  :  -248.2570284 Eh     change       -0.3211084E-04 Eh
   gradient norm :     0.0019292 Eh/α   predicted    -0.2654958E-04 ( -17.32%)
   displ. norm   :     0.1295044 α      lambda       -0.2195620E-04
   maximum displ.:     0.0671290 α      in ANC's #8, #14, #12, ...

........................................................................
.............................. CYCLE   27 ..............................
........................................................................
   1   -251.8787296 -0.251879E+03  0.961E-04    1.22       0.0  T
   2   -251.8787297 -0.149765E-06  0.477E-04    1.22      18.4  T
   3   -251.8787297 -0.257125E-07  0.216E-04    1.22      40.7  T
   4   -251.8787297  0.366722E-08  0.187E-04    1.22      46.9  T
   5   -251.8787298 -0.121995E-07  0.571E-05    1.22     153.5  T
     SCC iter.                  ...        0 min,  0.245 sec
     gradient                   ...        0 min,  0.303 sec
 * total energy  :  -248.2570517 Eh     change       -0.2326789E-04 Eh
   gradient norm :     0.0013587 Eh/α   predicted    -0.1106189E-04 ( -52.46%)
   displ. norm   :     0.2105329 α      lambda       -0.2365622E-04
   maximum displ.:     0.1088832 α      in ANC's #8, #14, #12, ...

........................................................................
.............................. CYCLE   28 ..............................
........................................................................
   1   -251.8786232 -0.251879E+03  0.733E-04    1.23       0.0  T
   2   -251.8786232 -0.663753E-07  0.380E-04    1.23      23.1  T
   3   -251.8786233 -0.118901E-07  0.195E-04    1.23      45.0  T
   4   -251.8786233  0.202550E-08  0.119E-04    1.23      73.6  T
     SCC iter.                  ...        0 min,  0.202 sec
     gradient                   ...        0 min,  0.305 sec
 * total energy  :  -248.2570754 Eh     change       -0.2378155E-04 Eh
   gradient norm :     0.0013900 Eh/α   predicted    -0.1206393E-04 ( -49.27%)
   displ. norm   :     0.1793285 α      lambda       -0.1427672E-04
   maximum displ.:     0.0948593 α      in ANC's #8, #14, #12, ...

........................................................................
.............................. CYCLE   29 ..............................
........................................................................
   1   -251.8784242 -0.251878E+03  0.654E-04    1.23       0.0  T
   2   -251.8784243 -0.912880E-08  0.489E-04    1.23      17.9  T
   3   -251.8784243 -0.681973E-07  0.188E-04    1.23      46.6  T
   4   -251.8784243 -0.693765E-08  0.150E-04    1.23      58.4  T
     SCC iter.                  ...        0 min,  0.205 sec
     gradient                   ...        0 min,  0.306 sec
 * total energy  :  -248.2570869 Eh     change       -0.1143860E-04 Eh
   gradient norm :     0.0013434 Eh/α   predicted    -0.7242470E-05 ( -36.68%)
   displ. norm   :     0.0984770 α      lambda       -0.8995097E-05
   maximum displ.:     0.0544270 α      in ANC's #8, #5, #12, ...

........................................................................
.............................. CYCLE   30 ..............................
........................................................................
   1   -251.8785763 -0.251879E+03  0.481E-04    1.22       0.0  T
   2   -251.8785763 -0.148540E-07  0.336E-04    1.22      26.1  T
   3   -251.8785763 -0.325503E-07  0.128E-04    1.22      68.3  T
   4   -251.8785763 -0.492597E-08  0.104E-04    1.22      84.3  T
     SCC iter.                  ...        0 min,  0.204 sec
     gradient                   ...        0 min,  0.304 sec
 * total energy  :  -248.2570965 Eh     change       -0.9647528E-05 Eh
   gradient norm :     0.0009587 Eh/α   predicted    -0.4520786E-05 ( -53.14%)
   displ. norm   :     0.0949366 α      lambda       -0.9068378E-05
   maximum displ.:     0.0521147 α      in ANC's #8, #5, #12, ...

........................................................................
.............................. CYCLE   31 ..............................
........................................................................
   1   -251.8787526 -0.251879E+03  0.368E-04    1.22       0.0  T
   2   -251.8787526 -0.436003E-08  0.258E-04    1.22      34.0  T
   3   -251.8787526 -0.203715E-07  0.108E-04    1.22      81.1  T
   4   -251.8787526 -0.281096E-08  0.772E-05    1.22     113.6  T
     SCC iter.                  ...        0 min,  0.199 sec
     gradient                   ...        0 min,  0.306 sec
 * total energy  :  -248.2571071 Eh     change       -0.1057280E-04 Eh
   gradient norm :     0.0009470 Eh/α   predicted    -0.4553250E-05 ( -56.93%)
   displ. norm   :     0.1523919 α      lambda       -0.1283724E-04
   maximum displ.:     0.0819794 α      in ANC's #8, #5, #12, ...

........................................................................
.............................. CYCLE   32 ..............................
........................................................................
   1   -251.8784065 -0.251878E+03  0.506E-04    1.22       0.0  T
   2   -251.8784066 -0.143457E-07  0.309E-04    1.22      28.3  T
   3   -251.8784066 -0.224686E-07  0.149E-04    1.22      58.7  T
   4   -251.8784066 -0.517088E-08  0.101E-04    1.22      87.1  T
     SCC iter.                  ...        0 min,  0.199 sec
     gradient                   ...        0 min,  0.308 sec
 * total energy  :  -248.2571209 Eh     change       -0.1378616E-04 Eh
   gradient norm :     0.0011900 Eh/α   predicted    -0.6488823E-05 ( -52.93%)
   displ. norm   :     0.1543051 α      lambda       -0.1064377E-04
   maximum displ.:     0.0827674 α      in ANC's #8, #5, #12, ...

........................................................................
.............................. CYCLE   33 ..............................
........................................................................
   1   -251.8780134 -0.251878E+03  0.416E-04    1.22       0.0  T
   2   -251.8780134 -0.136380E-07  0.201E-04    1.22      43.6  T
   3   -251.8780134 -0.328447E-08  0.117E-04    1.22      74.9  T
   4   -251.8780134 -0.256506E-09  0.836E-05    1.22     104.9  T
     SCC iter.                  ...        0 min,  0.201 sec
     gradient                   ...        0 min,  0.307 sec
 * total energy  :  -248.2571329 Eh     change       -0.1199330E-04 Eh
   gradient norm :     0.0010631 Eh/α   predicted    -0.5381498E-05 ( -55.13%)
   displ. norm   :     0.1698389 α      lambda       -0.1063382E-04
   maximum displ.:     0.0905392 α      in ANC's #8, #5, #12, ...

........................................................................
.............................. CYCLE   34 ..............................
........................................................................
   1   -251.8778326 -0.251878E+03  0.470E-04    1.22       0.0  T
   2   -251.8778326 -0.265261E-07  0.205E-04    1.22      42.7  T
   3   -251.8778326 -0.394701E-08  0.105E-04    1.22      83.9  T
   4   -251.8778326  0.215323E-09  0.739E-05    1.22     118.7  T
     SCC iter.                  ...        0 min,  0.201 sec
     gradient                   ...        0 min,  0.304 sec
 * total energy  :  -248.2571448 Eh     change       -0.1193055E-04 Eh
   gradient norm :     0.0008441 Eh/α   predicted    -0.5387358E-05 ( -54.84%)
   displ. norm   :     0.1692594 α      lambda       -0.9456984E-05
   maximum displ.:     0.0901067 α      in ANC's #8, #5, #12, ...

........................................................................
.............................. CYCLE   35 ..............................
........................................................................
   1   -251.8776802 -0.251878E+03  0.430E-04    1.22       0.0  T
   2   -251.8776803 -0.243432E-07  0.205E-04    1.22      42.7  T
   3   -251.8776803 -0.381425E-08  0.106E-04    1.22      82.4  T
   4   -251.8776803  0.877179E-09  0.752E-05    1.22     116.7  T
     SCC iter.                  ...        0 min,  0.199 sec
     gradient                   ...        0 min,  0.302 sec
 * total energy  :  -248.2571537 Eh     change       -0.8909909E-05 Eh
   gradient norm :     0.0008701 Eh/α   predicted    -0.4792320E-05 ( -46.21%)
   displ. norm   :     0.1103012 α      lambda       -0.6090139E-05
   maximum displ.:     0.0600745 α      in ANC's #5, #8, #6, ...

........................................................................
.............................. CYCLE   36 ..............................
........................................................................
   1   -251.8778229 -0.251878E+03  0.376E-04    1.22       0.0  T
   2   -251.8778229 -0.182161E-07  0.173E-04    1.22      50.7  T
   3   -251.8778229 -0.412490E-08  0.971E-05    1.22      90.3  T
     SCC iter.                  ...        0 min,  0.147 sec
     gradient                   ...        0 min,  0.303 sec
 * total energy  :  -248.2571583 Eh     change       -0.4602942E-05 Eh
   gradient norm :     0.0008466 Eh/α   predicted    -0.3065245E-05 ( -33.41%)
   displ. norm   :     0.0483264 α      lambda       -0.3253868E-05
   maximum displ.:     0.0298544 α      in ANC's #5, #8, #6, ...

   *** GEOMETRY OPTIMIZATION CONVERGED AFTER 36 ITERATIONS ***

------------------------------------------------------------------------
 total energy gain   :        -0.2458264 Eh     -154.2584 kcal/mol
 total RMSD          :         0.4603338 a0        0.2436 Å
 total power (kW/mol):       -17.9282518 (step)  -23.9467 (real)
------------------------------------------------------------------------

 ANCopt (total)                0 d,  0 h,  0 min, 26.952 sec
 optimizer setup                ...        0 min,  0.000 sec (  0.001%)
 model hessian                  ...        0 min,  0.093 sec (  0.345%)
 ANC generation                 ...        0 min,  0.050 sec (  0.186%)
 coordinate transformation      ...        0 min,  0.005 sec (  0.020%)
 single point calculation       ...        0 min, 26.723 sec ( 99.151%)
 optimization log               ...        0 min,  0.022 sec (  0.080%)
 hessian update                 ...        0 min,  0.005 sec (  0.019%)
 rational function              ...        0 min,  0.014 sec (  0.052%)

================
 final structure:
================
130
 xtb: 6.5.1 (b24c23e)
Ni          14.47359041272151       -0.00232959315546        0.01876905632849
C           11.08458832344606       -0.00740023490601        0.19775714875816
C           11.73139182745006        1.21072744864456        0.20078089474657
C           11.04982781680223        2.46852633814469        0.24425283906647
C           12.00439718044206        3.42468735603855        0.32063222660093
C           13.26867472183947        2.74823132666499        0.33847346169346
N           13.09159765026328        1.39198271678079        0.22642939149802
C           14.48926367282491        3.38975532981958        0.50215992491204
C           14.49952123226320        4.85758645658995        0.71437424335002
C           13.87782040896064        5.41414441735799        1.82828260327967
C           13.89218209741953        6.79374707580849        2.03000139698103
C           13.21485655472183        7.32684151257634        3.23899897177605
O           13.28511312080067        8.66127745915732        3.34820912827877
O           12.64989240892601        6.64701816909275        4.05703290847427
C           14.52898029988780        7.62809675426976        1.11148323165593
C           15.14685423045917        7.07600514228822        0.00032368728896
C           15.13548125819594        5.70251834760978       -0.19810520513789
C           15.70155726142489        2.71309347234009        0.48750671270602
C           16.96610134406099        3.34181252383438        0.72184568462696
C           17.91387802440729        2.38896049512234        0.55226581782118
N           15.87225726058309        1.37477978841744        0.21495485438304
C           17.22636889953223        1.18136097694927        0.22241156279351
C           17.88465959944433       -0.00427396187889       -0.11597686218714
C           17.20164888891883       -1.18640817257011       -0.41424908365752
C           17.85939770935894       -2.39114089028962       -0.80867898252851
C           16.89882793966145       -3.34001951341897       -0.91963676511194
C           15.65732899601222       -2.71280844213324       -0.58063362780619
N           15.85132790088938       -1.37750145868038       -0.30785457056358
C           14.44836310080848       -3.38992027617059       -0.49472949416568
C           14.43651990753381       -4.85698942050167       -0.71474487727767
C           15.14621047928068       -5.70609100102723        0.13691965776198
C           15.13023201941892       -7.07988042011748       -0.06101766913922
C           14.41023187130322       -7.62174511811113       -1.11251769323878
C           13.69956669263566       -6.78290069846267       -1.97238491608372
C           12.94283661809127       -7.40214698119113       -3.08953474154962
O           12.29828933680660       -6.51328585673056       -3.85922340237750
O           12.89609150024866       -8.58634353989160       -3.30391525973549
C           13.71184672732970       -5.40414201879958       -1.77125294500265
C           13.24873682705509       -2.75299913049172       -0.20491711551039
C           11.99551854408223       -3.43423296764265       -0.05835928818297
C           11.05283454937162       -2.48281426729333        0.13601556043960
C           11.73142683993455       -1.22292053780070        0.11761809643355
N           13.08110491476730       -1.39871378686269       -0.05985010452459
H           10.00261318617188       -0.00942531573924        0.25903808888084
H            9.97801253999152        2.58368216062487        0.21821879389471
H           11.87758337007953        4.49428101558738        0.36094298822777
H           13.38888751493487        4.77955133497117        2.55933111857251
H           12.82249980997935        8.92845837834000        4.15911739340704
H           14.53801779019849        8.69977839607076        1.26914915128486
H           15.64128736935727        7.71892510392577       -0.71907373310185
H           15.61178642805120        5.27777714425430       -1.07468494927415
H           17.10075804987580        4.37722495253415        0.98885245144382
H           18.98451283733287        2.48035264902209        0.63829048513873
H           18.92045045257156       -2.48275322856330       -0.97583349116740
H           17.00993310524974       -4.37248768651541       -1.20821387739588
H           15.70104774065000       -5.28435080014537        0.96752388313986
H           15.68150986690854       -7.72734122999890        0.61131218350323
H           14.38752682674398       -8.69240810325268       -1.28150220376309
H           11.83264055231466       -6.99459936271854       -4.56232972160137
H           13.16787553286835       -4.75373728878183       -2.44594802675413
H           11.86771497466250       -4.50380683862471       -0.09708140322991
H            9.99091993819639       -2.60272869662305        0.28008424517120
Ni          30.46936498978916       -0.00420941515424        0.01641149048442
C           33.85820961355680       -0.05801466050673        0.19026319515208
C           33.21163475001030       -1.21048249482739       -0.20465963543658
C           33.89338948424920       -2.41364537590355       -0.57356556287130
C           32.93894908563147       -3.34249640751950       -0.81351546885859
C           31.67454600357686       -2.70887363936446       -0.57664302013295
N           31.85144783633482       -1.39022286020919       -0.24022195497208
C           30.45393378161677       -3.36856776126657       -0.63228239879901
C           30.44368625208963       -4.82536141217837       -0.91032552642442
C           31.06456837915169       -5.71470566196170       -0.03817917845011
C           31.04975311263148       -7.08475941937580       -0.29687988305012
C           31.72600105452948       -7.98291800724016        0.67296711322649
O           31.65630033923868       -9.28002371097467        0.34092989761670
O           32.28986082135423       -7.60698382465367        1.66859008128913
C           30.41333254922846       -7.57412222930380       -1.43741357578712
C           29.79639899375672       -6.68989353088614       -2.30849715671720
C           29.80824504701773       -5.32668233319213       -2.04869061268130
C           29.24153667514424       -2.72409533307978       -0.42605548684418
C           27.97694604032210       -3.39482195813288       -0.41063213626510
C           27.02918163622548       -2.43891260417995       -0.25921721128706
N           29.07081491698852       -1.37018949504352       -0.24631326968154
C           27.71668420343583       -1.18983105588629       -0.17605986277358
C           27.05820523387167        0.04117462127063       -0.10865810061227
C           27.74107403613845        1.25608789664717       -0.00548793463117
C           27.08340535947203        2.52363972711262        0.01368932653890
C           28.04403509770599        3.45690915839339        0.21764787967786
C           29.28539536167484        2.75336039235770        0.33448639903610
N           29.09136523036092        1.40204610328530        0.15744947497102
C           30.49417963159170        3.36523822504033        0.63753258051827
C           30.50605950662137        4.82384389757055        0.90812833064043
C           29.79648993520103        5.34860534781095        1.99028777408042
C           29.81288632249425        6.71174569002445        2.25164242126777
C           30.53303405584554        7.56696436241512        1.43453390534133
C           31.24335347075774        7.05458644636136        0.34780400908510
C           32.00011081601532        8.00439027614504       -0.50619856587914
O           32.64299595287149        7.41549351075390       -1.52492743346486
O           32.04786391150151        9.19358085420250       -0.32182957428521
C           31.23078264351942        5.68568287112067        0.08793372833536
C           31.69359754990184        2.66841413781379        0.70503467557292
C           32.94652936987216        3.26449420676218        1.06689915051522
C           33.88936254946367        2.30183191239406        0.94046122745187
C           33.21111406380977        1.11697086034079        0.51121775225865
N           31.86148815801333        1.34099960840252        0.39999128406868
H           34.94016810263781       -0.07597303300112        0.24917720095850
H           34.96523283181482       -2.51395374046495       -0.63534693555401
H           33.06594239693938       -4.36677696368439       -1.12410941283234
H           31.55310239511273       -5.35309586340993        0.86002402384802
H           32.11821408182820       -9.79698989766819        1.02090072838675
H           30.40379657079724       -8.63872256026006       -1.63736962492277
H           29.30227876823468       -7.06319041687041       -3.19834940359034
H           29.33266622710502       -4.63936863080075       -2.73940597966309
H           27.84221489199675       -4.46058157400347       -0.49724480173896
H           25.95852376849681       -2.55336399944908       -0.20812206491462
H           26.02241464105050        2.66479651070821       -0.11490341714208
H           27.93311710346160        4.52712164110316        0.28060888397286
H           29.24143269481180        4.67897553248233        2.63768258146132
H           29.26183881394187        7.10442640174237        3.09857203779108
H           30.55613215660378        8.63412191174302        1.62435753990352
H           33.10856928064027        8.09984919617421       -2.03262111640550
H           31.77465702408949        5.29094693976014       -0.76208141119757
H           33.07400484876597        4.28808231490179        1.37969732104317
H           34.95116473744971        2.36821568862342        1.11642862559559
C           23.08519265260764        0.04150318821399       -0.18006140323126
C           21.85757906374899        0.02270994543666       -0.18169579032917
C           20.51249071046241        0.00666015435930       -0.17521543521108
C           19.28937072586413       -0.00328810725708       -0.15447880781161
C           24.43030186052340        0.05233481940735       -0.16642074288051
C           25.65348297177562        0.05280122299800       -0.14485757699563

 Bond Distances (Angstroems)
 ---------------------------
Ni1-N7=1.9741        Ni1-N21=1.9726       Ni1-N28=1.9738       Ni1-N43=1.9736       C2-C3=1.3792         C2-C42=1.3792        
C2-H44=1.0837        C3-C2=1.3792         C3-C4=1.4313         C3-N7=1.3725         C4-C3=1.4313         C4-C5=1.3532         
C4-H45=1.0783        C5-C4=1.3532         C5-C6=1.4340         C5-H46=1.0778        C6-C5=1.4340         C6-N7=1.3723         
C6-C8=1.3886         N7-Ni1=1.9741        N7-C3=1.3725         N7-C6=1.3723         C8-C6=1.3886         C8-C9=1.4831         
C8-C18=1.3884        C9-C8=1.4831         C9-C10=1.3918        C9-C17=1.3968        C10-C9=1.3918        C10-C11=1.3943       
C10-H47=1.0845       C11-C10=1.3943       C11-C12=1.4848       C11-C15=1.3947       C12-C11=1.4848       C12-O13=1.3407       
C12-O14=1.2044       O13-C12=1.3407       O13-H48=0.9711       O14-C12=1.2044       C15-C11=1.3947       C15-C16=1.3861       
C15-H49=1.0833       C16-C15=1.3861       C16-C17=1.3878       C16-H50=1.0841       C17-C9=1.3968        C17-C16=1.3878       
C17-H51=1.0843       C18-C8=1.3884        C18-C19=1.4315       C18-N21=1.3764       C19-C18=1.4315       C19-C20=1.3546       
C19-H52=1.0777       C20-C19=1.3546       C20-C22=1.4282       C20-H53=1.0780       N21-Ni1=1.9726       N21-C18=1.3764       
N21-C22=1.3679       C22-C20=1.4282       C22-N21=1.3679       C22-C23=1.3977       C23-C22=1.3977       C23-C24=1.3975       
C23-C128=1.4052      C24-C23=1.3975       C24-C25=1.4281       C24-N28=1.3679       C25-C24=1.4281       C25-C26=1.3548       
C25-H54=1.0780       C26-C25=1.3548       C26-C27=1.4317       C26-H55=1.0778       C27-C26=1.4317       C27-N28=1.3766       
C27-C29=1.3883       N28-Ni1=1.9738       N28-C24=1.3679       N28-C27=1.3766       C29-C27=1.3883       C29-C30=1.4835       
C29-C39=1.3888       C30-C29=1.4835       C30-C31=1.3964       C30-C38=1.3931       C31-C30=1.3964       C31-C32=1.3881       
C31-H56=1.0843       C32-C31=1.3881       C32-C33=1.3848       C32-H57=1.0840       C33-C32=1.3848       C33-C34=1.3957       
C33-H58=1.0842       C34-C33=1.3957       C34-C35=1.4846       C34-C38=1.3934       C35-C34=1.4846       C35-O36=1.3409       
C35-O37=1.2044       O36-C35=1.3409       O36-H59=0.9710       O37-C35=1.2044       C38-C30=1.3931       C38-C34=1.3934       
C38-H60=1.0836       C39-C29=1.3888       C39-C40=1.4339       C39-N43=1.3723       C40-C39=1.4339       C40-C41=1.3534       
C40-H61=1.0779       C41-C40=1.3534       C41-C42=1.4311       C41-H62=1.0783       C42-C2=1.3792        C42-C41=1.4311       
C42-N43=1.3726       N43-Ni1=1.9736       N43-C39=1.3723       N43-C42=1.3726       H44-C2=1.0837        H45-C4=1.0783        
H46-C5=1.0778        H47-C10=1.0845       H48-O13=0.9711       H49-C15=1.0833       H50-C16=1.0841       H51-C17=1.0843       
H52-C19=1.0777       H53-C20=1.0780       H54-C25=1.0780       H55-C26=1.0778       H56-C31=1.0843       H57-C32=1.0840       
H58-C33=1.0842       H59-O36=0.9710       H60-C38=1.0836       H61-C40=1.0779       H62-C41=1.0783       Ni63-N69=1.9741      
Ni63-N83=1.9725      Ni63-N90=1.9739      Ni63-N105=1.9735     C64-C65=1.3792       C64-C104=1.3793      C64-H106=1.0837      
C65-C64=1.3792       C65-C66=1.4313       C65-N69=1.3725       C66-C65=1.4313       C66-C67=1.3533       C66-H107=1.0783      
C67-C66=1.3533       C67-C68=1.4340       C67-H108=1.0778      C68-C67=1.4340       C68-N69=1.3723       C68-C70=1.3886       
N69-Ni63=1.9741      N69-C65=1.3725       N69-C68=1.3723       C70-C68=1.3886       C70-C71=1.4831       C70-C80=1.3884       
C71-C70=1.4831       C71-C72=1.3918       C71-C79=1.3968       C72-C71=1.3918       C72-C73=1.3943       C72-H109=1.0845      
C73-C72=1.3943       C73-C74=1.4848       C73-C77=1.3947       C74-C73=1.4848       C74-O75=1.3407       C74-O76=1.2044       
O75-C74=1.3407       O75-H110=0.9711      O76-C74=1.2044       C77-C73=1.3947       C77-C78=1.3861       C77-H111=1.0833      
C78-C77=1.3861       C78-C79=1.3878       C78-H112=1.0841      C79-C71=1.3968       C79-C78=1.3878       C79-H113=1.0843      
C80-C70=1.3884       C80-C81=1.4315       C80-N83=1.3764       C81-C80=1.4315       C81-C82=1.3546       C81-H114=1.0777      
C82-C81=1.3546       C82-C84=1.4282       C82-H115=1.0780      N83-Ni63=1.9725      N83-C80=1.3764       N83-C84=1.3679       
C84-C82=1.4282       C84-N83=1.3679       C84-C85=1.3977       C85-C84=1.3977       C85-C86=1.3975       C85-C130=1.4052      
C86-C85=1.3975       C86-C87=1.4281       C86-N90=1.3679       C87-C86=1.4281       C87-C88=1.3548       C87-H116=1.0780      
C88-C87=1.3548       C88-C89=1.4316       C88-H117=1.0778      C89-C88=1.4316       C89-N90=1.3766       C89-C91=1.3883       
N90-Ni63=1.9739      N90-C86=1.3679       N90-C89=1.3766       C91-C89=1.3883       C91-C92=1.4835       C91-C101=1.3888      
C92-C91=1.4835       C92-C93=1.3964       C92-C100=1.3931      C93-C92=1.3964       C93-C94=1.3881       C93-H118=1.0843      
C94-C93=1.3881       C94-C95=1.3848       C94-H119=1.0840      C95-C94=1.3848       C95-C96=1.3957       C95-H120=1.0842      
C96-C95=1.3957       C96-C97=1.4846       C96-C100=1.3934      C97-C96=1.4846       C97-O98=1.3409       C97-O99=1.2043       
O98-C97=1.3409       O98-H121=0.9710      O99-C97=1.2043       C100-C92=1.3931      C100-C96=1.3934      C100-H122=1.0836     
C101-C91=1.3888      C101-C102=1.4339     C101-N105=1.3723     C102-C101=1.4339     C102-C103=1.3534     C102-H123=1.0779     
C103-C102=1.3534     C103-C104=1.4311     C103-H124=1.0783     C104-C64=1.3793      C104-C103=1.4311     C104-N105=1.3726     
N105-Ni63=1.9735     N105-C101=1.3723     N105-C104=1.3726     H106-C64=1.0837      H107-C66=1.0783      H108-C67=1.0778      
H109-C72=1.0845      H110-O75=0.9711      H111-C77=1.0833      H112-C78=1.0841      H113-C79=1.0843      H114-C81=1.0777      
H115-C82=1.0780      H116-C87=1.0780      H117-C88=1.0778      H118-C93=1.0843      H119-C94=1.0840      H120-C95=1.0842      
H121-O98=0.9710      H122-C100=1.0836     H123-C102=1.0779     H124-C103=1.0783     C125-C126=1.2278     C125-C129=1.3452     
C126-C125=1.2278     C126-C127=1.3452     C127-C126=1.3452     C127-C128=1.2233     C128-C23=1.4052      C128-C127=1.2233     
C129-C125=1.3452     C129-C130=1.2234     C130-C85=1.4052      C130-C129=1.2234     
 C  H  Rav=1.0812 sigma=0.0030  Rmin=1.0777  Rmax=1.0845    34
 C  C  Rav=1.3975 sigma=0.0492  Rmin=1.2233  Rmax=1.4848    79
 N  C  Rav=1.3723 sigma=0.0031  Rmin=1.3679  Rmax=1.3766    16
 O  H  Rav=0.9710 sigma=0.0000  Rmin=0.9710  Rmax=0.9711     4
 O  C  Rav=1.2726 sigma=0.0682  Rmin=1.2043  Rmax=1.3409     8
 Ni N  Rav=1.9735 sigma=0.0006  Rmin=1.9725  Rmax=1.9741     8

 selected bond angles (degree)
 --------------------
N21-Ni1-N7= 89.59              N28-Ni1-N7=176.50              N28-Ni1-N21= 90.45             N43-Ni1-N7= 90.57              
N43-Ni1-N21=176.54             N43-Ni1-N28= 89.60             C42-C2-C3=123.96               H44-C2-C3=118.02               
H44-C2-C42=118.03              C4-C3-C2=123.57                N7-C3-C2=125.55                N7-C3-C4=110.81                
C5-C4-C3=106.66                H45-C4-C3=124.50               H45-C4-C5=128.83               C6-C5-C4=106.82                
H46-C5-C4=128.34               H46-C5-C6=124.85               N7-C6-C5=110.57                C8-C6-C5=123.95                
C8-C6-N7=125.42                C3-N7-Ni1=126.77               C6-N7-Ni1=128.04               C6-N7-C3=105.07                
C9-C8-C6=118.70                C18-C8-C6=122.76               C18-C8-C9=118.54               C10-C9-C8=120.48               
C17-C9-C8=120.55               C17-C9-C10=118.97              C11-C10-C9=120.45              H47-C10-C9=120.46              
H47-C10-C11=119.08             

 selected dihedral angles (degree)
 ---------------------------------
C4-C3-C2-C42=178.07           C4-C3-C2-H44=358.27           N7-C3-C2-C42=354.84           N7-C3-C2-H44=175.03           
C5-C4-C3-C2=176.14            C5-C4-C3-N7=358.95            H45-C4-C3-C2=356.12           H45-C4-C3-N7=178.93           
C6-C5-C4-C3=359.38            C6-C5-C4-H45=179.40           H46-C5-C4-C3=179.32           H46-C5-C4-H45=359.35          
N7-C6-C5-C4=  2.11            N7-C6-C5-H46=182.16           C8-C6-C5-C4=184.52            C8-C6-C5-H46=  4.58           
C3-N7-Ni1-N21=179.81          C3-N7-Ni1-N28= 89.09          C3-N7-Ni1-N43=356.35          C6-N7-Ni1-N21=  4.47          
C6-N7-Ni1-N28=273.75          C6-N7-Ni1-N43=181.00          Ni1-N7-C3-C2=  8.97           Ni1-N7-C3-C4=186.08           
C6-N7-C3-C2=185.17            C6-N7-C3-C4=  2.29            Ni1-N7-C6-C5=173.46           Ni1-N7-C6-C8=351.01           
C3-N7-C6-C5=357.32            C3-N7-C6-C8=174.87            C9-C8-C6-C5=  1.98            C9-C8-C6-N7=184.75            
C18-C8-C6-C5=181.39           C18-C8-C6-N7=  4.16           C10-C9-C8-C6= 61.81           C10-C9-C8-C18=242.38          
C17-C9-C8-C6=241.66           C17-C9-C8-C18= 62.23          C11-C10-C9-C8=179.75          C11-C10-C9-C17=359.90         
H47-C10-C9-C8=  0.71          H47-C10-C9-C17=180.86         
           -------------------------------------------------
          |                Final Singlepoint                |
           -------------------------------------------------

          ...................................................
          :                      SETUP                      :
          :.................................................:
          :  # basis functions                 456          :
          :  # atomic orbitals                 454          :
          :  # shells                          262          :
          :  # electrons                       442          :
          :  # halogen bonds                     0          :
          :  max. iterations                   250          :
          :  Hamiltonian                  GFN1-xTB          :
          :  restarted?                      false          :
          :  GBSA solvation                  false          :
          :  PC potential                    false          :
          :  electronic temp.          300.0000000     K    :
          :  accuracy                    1.0000000          :
          :  -> integral cutoff          0.2500000E+02      :
          :  -> integral neglect         0.1000000E-07      :
          :  -> SCF convergence          0.1000000E-05 Eh   :
          :  -> wf. convergence          0.2000000E-04 e    :
          :  Broyden damping             0.4000000          :
          ...................................................

 iter      E             dE          RMSdq      gap      omega  full diag
   1   -251.8778229 -0.251878E+03  0.587E-05    1.22       0.0  T
   2   -251.8778229  0.540012E-09  0.579E-05    1.22     151.6  T
   3   -251.8778229 -0.139113E-08  0.235E-05    1.22     373.2  T

   *** convergence criteria satisfied after 3 iterations ***

         #    Occupation            Energy/Eh            Energy/eV
      -------------------------------------------------------------
         1        2.0000           -0.8346348             -22.7116
       ...           ...                  ...                  ...
       215        2.0000           -0.4040907             -10.9959
       216        2.0000           -0.4030296             -10.9670
       217        2.0000           -0.4030284             -10.9670
       218        2.0000           -0.4029466             -10.9647
       219        2.0000           -0.4029451             -10.9647
       220        2.0000           -0.4018547             -10.9350
       221        2.0000           -0.3915519             -10.6547 (HOMO)
       222                         -0.3465789              -9.4309 (LUMO)
       223                         -0.3371448              -9.1742
       224                         -0.3371416              -9.1741
       225                         -0.3353811              -9.1262
       226                         -0.3352459              -9.1225
       ...                                ...                  ...
       454                          1.5735401              42.8182
      -------------------------------------------------------------
                  HL-Gap            0.0449730 Eh            1.2238 eV
             Fermi-level           -0.3690654 Eh          -10.0428 eV

 SCC (total)                   0 d,  0 h,  0 min,  0.600 sec
 SCC setup                      ...        0 min,  0.005 sec (  0.836%)
 Dispersion                     ...        0 min,  0.003 sec (  0.561%)
 classical contributions        ...        0 min,  0.001 sec (  0.234%)
 integral evaluation            ...        0 min,  0.123 sec ( 20.509%)
 iterations                     ...        0 min,  0.152 sec ( 25.352%)
 molecular gradient             ...        0 min,  0.304 sec ( 50.688%)
 printout                       ...        0 min,  0.011 sec (  1.816%)

         :::::::::::::::::::::::::::::::::::::::::::::::::::::
         ::                     SUMMARY                     ::
         :::::::::::::::::::::::::::::::::::::::::::::::::::::
         :: total energy            -248.257158324976 Eh    ::
         :: gradient norm              0.000846067229 Eh/a0 ::
         :: HOMO-LUMO gap              1.223778195327 eV    ::
         ::.................................................::
         :: SCC energy              -251.877822883397 Eh    ::
         :: -> electrostatic           0.451974975571 Eh    ::
         :: repulsion energy           3.736022667345 Eh    ::
         :: dispersion energy         -0.115358108924 Eh    ::
         :: halogen bond corr.         0.000000000000 Eh    ::
         :: add. restraining           0.000000000000 Eh    ::
         :: total charge              -0.000000000000 e     ::
         :::::::::::::::::::::::::::::::::::::::::::::::::::::

           -------------------------------------------------
          |                Property Printout                |
           -------------------------------------------------

    * Orbital Energies and Occupations

         #    Occupation            Energy/Eh            Energy/eV
      -------------------------------------------------------------
         1        2.0000           -0.8346348             -22.7116
       ...           ...                  ...                  ...
       209        2.0000           -0.4210812             -11.4582
       210        2.0000           -0.4053264             -11.0295
       211        2.0000           -0.4053193             -11.0293
       212        2.0000           -0.4049955             -11.0205
       213        2.0000           -0.4049938             -11.0204
       214        2.0000           -0.4040919             -10.9959
       215        2.0000           -0.4040907             -10.9959
       216        2.0000           -0.4030296             -10.9670
       217        2.0000           -0.4030284             -10.9670
       218        2.0000           -0.4029466             -10.9647
       219        2.0000           -0.4029451             -10.9647
       220        2.0000           -0.4018547             -10.9350
       221        2.0000           -0.3915519             -10.6547 (HOMO)
       222                         -0.3465789              -9.4309 (LUMO)
       223                         -0.3371448              -9.1742
       224                         -0.3371416              -9.1741
       225                         -0.3353811              -9.1262
       226                         -0.3352459              -9.1225
       227                         -0.3349582              -9.1147
       228                         -0.3136635              -8.5352
       229                         -0.3131802              -8.5221
       230                         -0.3123461              -8.4994
       231                         -0.3123004              -8.4981
       232                         -0.3064643              -8.3393
       ...                                ...                  ...
       454                          1.5735401              42.8182
      -------------------------------------------------------------
                  HL-Gap            0.0449730 Eh            1.2238 eV
             Fermi-level           -0.3690654 Eh          -10.0428 eV

  Mulliken/CM5 charges         n(s)   n(p)   n(d)
     1Ni    0.21502  0.58493   0.556  0.670  8.558
     2C    -0.05755 -0.09890   1.060  2.997  0.000
     3C     0.14699  0.20759   1.044  2.809  0.000
     4C    -0.05550 -0.10203   1.062  2.993  0.000
     5C    -0.05742 -0.10353   1.062  2.995  0.000
     6C     0.14086  0.20493   1.046  2.813  0.000
     7N    -0.27271 -0.52416   1.492  3.781  0.000
     8C    -0.02332 -0.01797   1.082  2.941  0.000
     9C     0.00959  0.00089   1.083  2.907  0.000
    10C    -0.01574 -0.06489   1.069  2.946  0.000
    11C    -0.03365 -0.03715   1.082  2.952  0.000
    12C     0.57928  0.63426   0.974  2.447  0.000
    13O    -0.51175 -0.70833   1.698  4.814  0.000
    14O    -0.53316 -0.58302   1.721  4.812  0.000
    15C    -0.01299 -0.06465   1.064  2.949  0.000
    16C    -0.02412 -0.07975   1.059  2.966  0.000
    17C    -0.02246 -0.07584   1.066  2.956  0.000
    18C     0.13845  0.20183   1.045  2.817  0.000
    19C    -0.06016 -0.10624   1.062  2.998  0.000
    20C    -0.05712 -0.10272   1.061  2.997  0.000
    21N    -0.27166 -0.52300   1.492  3.779  0.000
[...]
    20   6 C    3.961 --    19 C    1.636    22 C    1.191    53 H    0.973
    21   7 N    3.406 --    22 C    1.238    18 C    1.207     1 Ni   0.661
    22   6 C    3.903 --    23 C    1.263    21 N    1.238    20 C    1.191
    23   6 C    3.945 --    24 C    1.263    22 C    1.263   128 C    1.184
    24   6 C    3.903 --    23 C    1.263    28 N    1.238    25 C    1.192
    25   6 C    3.961 --    26 C    1.636    24 C    1.192    54 H    0.973
    26   6 C    3.959 --    25 C    1.636    27 C    1.184    55 H    0.973
    27   6 C    3.916 --    29 C    1.328    28 N    1.206    26 C    1.184
    28   7 N    3.405 --    24 C    1.238    27 C    1.206     1 Ni   0.660
    29   6 C    3.938 --    27 C    1.328    39 C    1.324    30 C    1.024
    30   6 C    3.988 --    38 C    1.407    31 C    1.390    29 C    1.024
                            33 C    0.103
    31   6 C    3.988 --    32 C    1.439    30 C    1.390    56 H    0.973
                            34 C    0.100
    32   6 C    3.994 --    33 C    1.451    31 C    1.439    57 H    0.972
                            38 C    0.104
    33   6 C    3.986 --    32 C    1.451    34 C    1.388    58 H    0.969
                            30 C    0.103
    34   6 C    3.988 --    38 C    1.400    33 C    1.388    35 C    1.005
                            31 C    0.100
    35   6 C    3.836 --    37 O    1.693    36 O    1.090    34 C    1.005
    36   8 O    2.099 --    35 C    1.090    59 H    0.838    37 O    0.129
    37   8 O    1.961 --    35 C    1.693    36 O    0.129
    38   6 C    3.986 --    30 C    1.407    34 C    1.400    60 H    0.969
                            32 C    0.104
    39   6 C    3.920 --    29 C    1.324    43 N    1.221    40 C    1.176
    40   6 C    3.963 --    41 C    1.650    39 C    1.176    61 H    0.973
    41   6 C    3.960 --    40 C    1.650    42 C    1.174    62 H    0.975
    42   6 C    3.922 --     2 C    1.364    43 N    1.213    41 C    1.174
    43   7 N    3.402 --    39 C    1.221    42 C    1.213     1 Ni   0.664
    44   1 H    1.000 --     2 C    0.970
    45   1 H    0.997 --     4 C    0.975
    46   1 H    1.003 --     5 C    0.973
    47   1 H    1.007 --    10 C    0.968
    48   1 H    0.873 --    13 O    0.838
    49   1 H    1.005 --    15 C    0.970
    50   1 H    1.002 --    16 C    0.972
    51   1 H    1.004 --    17 C    0.973
    52   1 H    1.004 --    19 C    0.973
    53   1 H    1.002 --    20 C    0.973
    54   1 H    1.001 --    25 C    0.973
    55   1 H    1.004 --    26 C    0.973
    56   1 H    1.004 --    31 C    0.973
    57   1 H    1.001 --    32 C    0.972
    58   1 H    1.005 --    33 C    0.969
    59   1 H    0.873 --    36 O    0.838
    60   1 H    1.007 --    38 C    0.969
    61   1 H    1.004 --    40 C    0.973
    62   1 H    0.997 --    41 C    0.975
    63  28 Ni   3.012 --    69 N    0.664   105 N    0.664    83 N    0.661
                            90 N    0.660
    64   6 C    3.935 --    65 C    1.364   104 C    1.364   106 H    0.970
    65   6 C    3.922 --    64 C    1.364    69 N    1.213    66 C    1.174
    66   6 C    3.960 --    67 C    1.651    65 C    1.174   107 H    0.975
    67   6 C    3.963 --    66 C    1.651    68 C    1.175   108 H    0.973
    68   6 C    3.920 --    70 C    1.324    69 N    1.221    67 C    1.175
    69   7 N    3.402 --    68 C    1.221    65 C    1.213    63 Ni   0.664
    70   6 C    3.938 --    80 C    1.328    68 C    1.324    71 C    1.025
    71   6 C    3.988 --    72 C    1.409    79 C    1.388    70 C    1.025
                            77 C    0.103
    72   6 C    3.984 --    71 C    1.409    73 C    1.396   109 H    0.968
                            78 C    0.104
    73   6 C    3.988 --    72 C    1.396    77 C    1.392    74 C    1.004
                            79 C    0.100
    74   6 C    3.836 --    76 O    1.693    75 O    1.090    73 C    1.004
    75   8 O    2.099 --    74 C    1.090   110 H    0.838    76 O    0.129
    76   8 O    1.962 --    74 C    1.693    75 O    0.129
    77   6 C    3.987 --    78 C    1.448    73 C    1.392   111 H    0.970
                            71 C    0.103
    78   6 C    3.994 --    77 C    1.448    79 C    1.441   112 H    0.972
                            72 C    0.104
    79   6 C    3.988 --    78 C    1.441    71 C    1.388   113 H    0.973
                            73 C    0.100
    80   6 C    3.915 --    70 C    1.328    83 N    1.207    81 C    1.184
    81   6 C    3.959 --    82 C    1.636    80 C    1.184   114 H    0.973
    82   6 C    3.961 --    81 C    1.636    84 C    1.191   115 H    0.973
    83   7 N    3.406 --    84 C    1.238    80 C    1.207    63 Ni   0.661
    84   6 C    3.903 --    85 C    1.263    83 N    1.238    82 C    1.191
    85   6 C    3.945 --    84 C    1.263    86 C    1.263   130 C    1.184
    86   6 C    3.903 --    85 C    1.263    90 N    1.239    87 C    1.192
    87   6 C    3.961 --    88 C    1.635    86 C    1.192   116 H    0.973
    88   6 C    3.959 --    87 C    1.635    89 C    1.184   117 H    0.973
    89   6 C    3.916 --    91 C    1.329    90 N    1.206    88 C    1.184
    90   7 N    3.405 --    86 C    1.239    89 C    1.206    63 Ni   0.660
    91   6 C    3.938 --    89 C    1.329   101 C    1.324    92 C    1.024
    92   6 C    3.988 --   100 C    1.407    93 C    1.390    91 C    1.024
                            95 C    0.103
    93   6 C    3.988 --    94 C    1.439    92 C    1.390   118 H    0.973
                            96 C    0.100
    94   6 C    3.994 --    95 C    1.451    93 C    1.439   119 H    0.972
                           100 C    0.104
    95   6 C    3.986 --    94 C    1.451    96 C    1.388   120 H    0.969
                            92 C    0.103
    96   6 C    3.988 --   100 C    1.400    95 C    1.388    97 C    1.005
                            93 C    0.100
    97   6 C    3.836 --    99 O    1.693    98 O    1.090    96 C    1.005
    98   8 O    2.099 --    97 C    1.090   121 H    0.838    99 O    0.129
    99   8 O    1.961 --    97 C    1.693    98 O    0.129
   100   6 C    3.986 --    92 C    1.407    96 C    1.400   122 H    0.969
                            94 C    0.104
   101   6 C    3.920 --    91 C    1.324   105 N    1.221   102 C    1.176
   102   6 C    3.963 --   103 C    1.650   101 C    1.176   123 H    0.973
   103   6 C    3.960 --   102 C    1.650   104 C    1.174   124 H    0.975
   104   6 C    3.922 --    64 C    1.364   105 N    1.213   103 C    1.174
   105   7 N    3.402 --   101 C    1.221   104 C    1.213    63 Ni   0.664
   106   1 H    1.000 --    64 C    0.970
   107   1 H    0.997 --    66 C    0.975
   108   1 H    1.003 --    67 C    0.973
   109   1 H    1.007 --    72 C    0.968
   110   1 H    0.873 --    75 O    0.838
   111   1 H    1.005 --    77 C    0.970
   112   1 H    1.002 --    78 C    0.972
   113   1 H    1.004 --    79 C    0.973
   114   1 H    1.004 --    81 C    0.973
   115   1 H    1.002 --    82 C    0.973
   116   1 H    1.001 --    87 C    0.973
   117   1 H    1.004 --    88 C    0.973
   118   1 H    1.004 --    93 C    0.973
   119   1 H    1.001 --    94 C    0.972
   120   1 H    1.005 --    95 C    0.969
   121   1 H    0.873 --    98 O    0.838
   122   1 H    1.007 --   100 C    0.969
   123   1 H    1.004 --   102 C    0.973
   124   1 H    0.997 --   103 C    0.975
   125   6 C    3.928 --   126 C    2.376   129 C    1.330   128 C    0.191
   126   6 C    3.928 --   125 C    2.376   127 C    1.330   130 C    0.191
   127   6 C    3.938 --   128 C    2.457   126 C    1.330
   128   6 C    3.892 --   127 C    2.457    23 C    1.184   125 C    0.191
   129   6 C    3.938 --   130 C    2.457   125 C    1.330
   130   6 C    3.892 --   129 C    2.457    85 C    1.184   126 C    0.191
 ---------------------------------------------------------------------------

Topologies differ in total number of bonds
Writing topology from bond orders to xtbtopo.mol

 dipole moment from electron density (au)
     X       Y       Z   
  -0.0001   0.2075  -1.2362  total (Debye):    3.186

           -------------------------------------------------
          |                Geometry Summary                 |
           -------------------------------------------------

      molecular mass/u    :     1284.5317644
   center of mass at/Å    :       22.4713441      -0.0017808       0.0091481
  moments of inertia/u·Å² :        0.2901871E+05   0.8810190E+05   0.1146948E+06
rotational constants/cm⁻¹ :        0.5809228E-03   0.1913424E-03   0.1469782E-03

 * 129 selected distances

     #   Z          #   Z                                           value/Å
     2   6 C        3   6 C                                       1.3792024
     3   6 C        4   6 C                                       1.4312504
     4   6 C        5   6 C                                       1.3532482
     5   6 C        6   6 C                                       1.4339837 (max)
     3   6 C        7   7 N                                       1.3724691
     6   6 C        7   7 N                                       1.3723414
     6   6 C        8   6 C                                       1.3885907
     9   6 C       10   6 C                                       1.3917833
    10   6 C       11   6 C                                       1.3943459
    12   6 C       13   8 O                                       1.3407395
    12   6 C       14   8 O                                       1.2043770
    11   6 C       15   6 C                                       1.3947499
    15   6 C       16   6 C                                       1.3860914
     9   6 C       17   6 C                                       1.3967728
    16   6 C       17   6 C                                       1.3877931
     8   6 C       18   6 C                                       1.3884315
    18   6 C       19   6 C                                       1.4315287
    19   6 C       20   6 C                                       1.3546089
    18   6 C       21   7 N                                       1.3764109
    20   6 C       22   6 C                                       1.4282050
    21   7 N       22   6 C                                       1.3678761
    22   6 C       23   6 C                                       1.3977067
    23   6 C       24   6 C                                       1.3974661
    24   6 C       25   6 C                                       1.4281421
    25   6 C       26   6 C                                       1.3547608
    26   6 C       27   6 C                                       1.4316553
    24   6 C       28   7 N                                       1.3679194
    27   6 C       28   7 N                                       1.3766223
    27   6 C       29   6 C                                       1.3883295
    30   6 C       31   6 C                                       1.3964122
    31   6 C       32   6 C                                       1.3880678
    32   6 C       33   6 C                                       1.3847997
    33   6 C       34   6 C                                       1.3957353
    35   6 C       36   8 O                                       1.3408715
    35   6 C       37   8 O                                       1.2043529
    30   6 C       38   6 C                                       1.3931033
    34   6 C       38   6 C                                       1.3934062
    29   6 C       39   6 C                                       1.3887992
    39   6 C       40   6 C                                       1.4339160
    40   6 C       41   6 C                                       1.3533782
     2   6 C       42   6 C                                       1.3792434
    41   6 C       42   6 C                                       1.4311389
    39   6 C       43   7 N                                       1.3723097
    42   6 C       43   7 N                                       1.3725995
     2   6 C       44   1 H                                       1.0837112
     4   6 C       45   1 H                                       1.0782981
     5   6 C       46   1 H                                       1.0778393
    10   6 C       47   1 H                                       1.0845257
    13   8 O       48   1 H                                       0.9710660
    15   6 C       49   1 H                                       1.0832553
    16   6 C       50   1 H                                       1.0841324
    17   6 C       51   1 H                                       1.0842804
    19   6 C       52   1 H                                       1.0777310
    20   6 C       53   1 H                                       1.0779666
    25   6 C       54   1 H                                       1.0780383
    26   6 C       55   1 H                                       1.0777810
    31   6 C       56   1 H                                       1.0842568
    32   6 C       57   1 H                                       1.0840389
    33   6 C       58   1 H                                       1.0841544
    36   8 O       59   1 H                                       0.9710047 (min)
    38   6 C       60   1 H                                       1.0835796
    40   6 C       61   1 H                                       1.0778783
    41   6 C       62   1 H                                       1.0783312
    64   6 C       65   6 C                                       1.3792047
    65   6 C       66   6 C                                       1.4312520
    66   6 C       67   6 C                                       1.3532542
    67   6 C       68   6 C                                       1.4339811
    65   6 C       69   7 N                                       1.3724722
    68   6 C       69   7 N                                       1.3723387
    68   6 C       70   6 C                                       1.3885916
    71   6 C       72   6 C                                       1.3917857
    72   6 C       73   6 C                                       1.3943433
    74   6 C       75   8 O                                       1.3407425
    74   6 C       76   8 O                                       1.2043794
    73   6 C       77   6 C                                       1.3947489
    77   6 C       78   6 C                                       1.3860932
    71   6 C       79   6 C                                       1.3967762
    78   6 C       79   6 C                                       1.3877986
    70   6 C       80   6 C                                       1.3884457
    80   6 C       81   6 C                                       1.4315383
    81   6 C       82   6 C                                       1.3546021
    80   6 C       83   7 N                                       1.3764137
    82   6 C       84   6 C                                       1.4282087
    83   7 N       84   6 C                                       1.3678944
    84   6 C       85   6 C                                       1.3976813
    85   6 C       86   6 C                                       1.3974865
    86   6 C       87   6 C                                       1.4281400
    87   6 C       88   6 C                                       1.3547696
    88   6 C       89   6 C                                       1.4316451
    86   6 C       90   7 N                                       1.3678958
    89   6 C       90   7 N                                       1.3766047
    89   6 C       91   6 C                                       1.3883052
    92   6 C       93   6 C                                       1.3964000
    93   6 C       94   6 C                                       1.3880659
    94   6 C       95   6 C                                       1.3848027
    95   6 C       96   6 C                                       1.3957317
    97   6 C       98   8 O                                       1.3408615
    97   6 C       99   8 O                                       1.2043450
    92   6 C      100   6 C                                       1.3930935
    96   6 C      100   6 C                                       1.3934088
    91   6 C      101   6 C                                       1.3887851
   101   6 C      102   6 C                                       1.4339093
   102   6 C      103   6 C                                       1.3533809
    64   6 C      104   6 C                                       1.3792519
   103   6 C      104   6 C                                       1.4311419
   101   6 C      105   7 N                                       1.3723223
   104   6 C      105   7 N                                       1.3726072
    64   6 C      106   1 H                                       1.0837102
    66   6 C      107   1 H                                       1.0782982
    67   6 C      108   1 H                                       1.0778436
    72   6 C      109   1 H                                       1.0845259
    75   8 O      110   1 H                                       0.9710710
    77   6 C      111   1 H                                       1.0832578
    78   6 C      112   1 H                                       1.0841322
    79   6 C      113   1 H                                       1.0842801
    81   6 C      114   1 H                                       1.0777282
    82   6 C      115   1 H                                       1.0779695
    87   6 C      116   1 H                                       1.0780366
    88   6 C      117   1 H                                       1.0777856
    93   6 C      118   1 H                                       1.0842568
    94   6 C      119   1 H                                       1.0840394
    95   6 C      120   1 H                                       1.0841550
    98   8 O      121   1 H                                       0.9710068
   100   6 C      122   1 H                                       1.0835782
   102   6 C      123   1 H                                       1.0778801
   103   6 C      124   1 H                                       1.0783299
   125   6 C      126   6 C                                       1.2277586
   127   6 C      128   6 C                                       1.2233363
   129   6 C      130   6 C                                       1.2233714

 * 5 distinct bonds (by element types)

   Z      Z             #   av. dist./Å        max./Å        min./Å
   1 H    6 C          34     1.0811649     1.0845259     1.0777282
   6 C    6 C          67     1.3884737     1.4339837     1.2233363
   6 C    7 N          16     1.3723186     1.3766223     1.3678761
   1 H    8 O           4     0.9710371     0.9710710     0.9710047
   6 C    8 O           8     1.2725837     1.3408715     1.2043450


optimized geometry written to: xtbopt.xyz


           -------------------------------------------------
          | TOTAL ENERGY             -248.257158324976 Eh   |
          | GRADIENT NORM               0.000846067229 Eh/α |
          | HOMO-LUMO GAP               1.223778195327 eV   |
           -------------------------------------------------

------------------------------------------------------------------------
 * finished run on 2022/07/30 at 05:10:38.683     
------------------------------------------------------------------------
 total:
 * wall-time:     0 d,  0 h,  0 min, 29.741 sec
 *  cpu-time:     0 d,  0 h,  0 min, 29.608 sec
 * ratio c/w:     0.996 speedup
 SCF:
 * wall-time:     0 d,  0 h,  0 min,  2.042 sec
 *  cpu-time:     0 d,  0 h,  0 min,  2.032 sec
 * ratio c/w:     0.995 speedup
 ANC optimizer:
 * wall-time:     0 d,  0 h,  0 min, 27.558 sec
 *  cpu-time:     0 d,  0 h,  0 min, 27.440 sec
 * ratio c/w:     0.996 speedup

