128
 energy: -213.521987873054 gnorm: 3.113876755459 xtb: 6.5.1 (b24c23e)
Zn          13.17620200000000       -0.02654500000000        0.01394800000000
C            9.83460800000000        0.11674300000000        0.00444700000000
C           10.49687700000000        1.15581700000000       -0.51234400000000
C            9.84632900000000        2.30367300000000       -1.13252900000000
C           10.78654300000000        3.15215800000000       -1.50497200000000
C           12.09146700000000        2.59129400000000       -1.12810600000000
N           11.91431300000000        1.31778900000000       -0.50634300000000
C           13.28358800000000        3.19340800000000       -1.32074300000000
C           13.33331200000000        4.53894100000000       -1.93746400000000
C           13.89025200000000        4.70692000000000       -3.21414700000000
C           13.95351000000000        5.97792500000000       -3.79280300000000
C           13.46450300000000        7.09446300000000       -3.09987300000000
N           13.52941200000000        8.39428000000000       -3.69238200000000
C           12.91345300000000        6.92855700000000       -1.82132000000000
C           12.85053800000000        5.65820600000000       -1.24130500000000
C           14.57477600000000        2.56828000000000       -0.93067500000000
C           15.85823200000000        3.28092100000000       -0.92450500000000
C           16.79274600000000        2.42555100000000       -0.56261900000000
N           14.71743900000000        1.32639000000000       -0.58175800000000
C           16.11263100000000        1.15715900000000       -0.33108900000000
C           16.70682900000000       -0.00097600000000       -0.00068300000000
C           15.94324600000000       -1.24698800000000        0.23212200000000
C           16.47376800000000       -2.46317300000000        0.21227000000000
C           15.43087100000000       -3.39477200000000        0.59601500000000
C           14.33323800000000       -2.68469300000000        0.82978300000000
N           14.56708400000000       -1.29285100000000        0.60935800000000
C           13.05462400000000       -3.25571700000000        1.32529400000000
C           13.07744400000000       -4.59370400000000        1.96520400000000
C           13.81639600000000       -4.79766900000000        3.14073300000000
C           13.85737300000000       -6.06132300000000        3.73719400000000
C           13.16518900000000       -7.13639300000000        3.16225400000000
N           13.20758700000000       -8.42874900000000        3.77286100000000
C           12.43373000000000       -6.93683300000000        1.98304700000000
C           12.39267700000000       -5.67388100000000        1.38523600000000
C           11.89256700000000       -2.58460700000000        1.20920400000000
C           10.58523600000000       -3.02724100000000        1.69114900000000
C            9.72357300000000       -2.10065700000000        1.31844200000000
C           10.47203100000000       -1.06182700000000        0.61279700000000
N           11.73689100000000       -1.33328700000000        0.54301200000000
H            8.75124500000000        0.13470600000000       -0.01901300000000
H            8.78301800000000        2.44721400000000       -1.27577700000000
H           10.59874300000000        4.09402600000000       -2.00356600000000
H           14.27331400000000        3.85330100000000       -3.75994000000000
H           14.38385800000000        6.09284800000000       -4.77966400000000
H           13.93874200000000        8.52822600000000       -4.64389400000000
H           13.16842100000000        9.23218300000000       -3.18397500000000
H           12.53525900000000        7.78299200000000       -1.27432200000000
H           12.42786100000000        5.54524400000000       -0.25043600000000
H           16.02915100000000        4.32132000000000       -1.16795500000000
H           17.84652000000000        2.65079900000000       -0.46647800000000
H           17.49944900000000       -2.71842000000000       -0.01813700000000
H           15.53961800000000       -4.46674800000000        0.69818200000000
H           14.35737800000000       -3.97690700000000        3.59572300000000
H           14.42875200000000       -6.20287400000000        4.64593500000000
H           13.75057700000000       -8.58765800000000        4.65079900000000
H           12.69608700000000       -9.23608200000000        3.35161300000000
H           11.89866500000000       -7.75982400000000        1.52620700000000
H           11.83124000000000       -5.53731200000000        0.46907000000000
H           10.34339900000000       -3.92529200000000        2.24411400000000
H            8.65902000000000       -2.11690100000000        1.51183300000000
Zn          31.04143200000000        0.02534600000000       -0.01391000000000
C           34.38302500000000       -0.06174400000000        0.10027000000000
C           33.72075700000000       -1.06660100000000        0.68079300000000
C           34.37130500000000       -2.21774300000000        1.29485700000000
C           33.43109000000000       -2.99698400000000        1.79628200000000
C           32.12616700000000       -2.37297500000000        1.53703200000000
N           32.30332100000000       -1.15109400000000        0.81911100000000
C           30.93404500000000       -2.86622100000000        1.93245500000000
C           30.88432200000000       -4.12369700000000        2.71319600000000
C           30.32738100000000       -5.28062000000000        2.14780500000000
C           30.26412300000000       -6.46519100000000        2.88746000000000
C           30.75313100000000       -6.50455300000000        4.20095100000000
N           30.68822100000000       -7.71658900000000        4.95696600000000
C           31.30418000000000       -5.34721700000000        4.76910400000000
C           31.36709500000000       -4.16187500000000        4.03074500000000
C           29.64285700000000       -2.19570200000000        1.62693600000000
C           28.35940100000000       -2.58431200000000        2.22432800000000
C           27.42488800000000       -1.81006700000000        1.71133300000000
N           29.50019500000000       -1.21870400000000        0.78461200000000
C           28.10500200000000       -0.91626800000000        0.78205900000000
C           27.51080400000000       -0.00097600000000       -0.00068300000000
C           28.27438700000000        0.88151900000000       -0.91059700000000
C           27.74386600000000        1.53694700000000       -1.93525100000000
C           28.78676200000000        2.37153000000000       -2.49970600000000
C           29.88439600000000        2.17403700000000       -1.77869500000000
N           29.65054900000000        1.22128500000000       -0.74039100000000
C           31.16300900000000        2.90254800000000       -1.98085800000000
C           31.14018900000000        4.17518300000000       -2.74249700000000
C           30.40123699999999        5.26767800000000       -2.26299100000000
C           30.36026100000000        6.46302800000000       -2.98668100000000
C           31.05244400000000        6.57782200000000       -4.20041600000000
N           31.01004600000000        7.80082100000000       -4.94021300000000
C           31.78390400000000        5.48469600000000       -4.68562600000000
C           31.82495600000000        4.28860900000000       -3.96326800000000
C           32.32506600000000        2.43498300000000       -1.48563300000000
C           33.63239800000000        3.08124900000000       -1.58828000000000
C           34.49406000000000        2.25863700000000       -1.02190600000000
C           33.74560300000000        1.09650500000000       -0.54593400000000
N           32.48074300000000        1.18832700000000       -0.81075200000000
H           35.46638799999999       -0.09122200000000        0.10228000000000
H           35.43461600000000       -2.41645100000000        1.33535000000000
H           33.61889000000000       -3.93296600000000        2.30583900000000
H           29.94432000000000       -5.26388900000000        1.13475300000000
H           29.83377500000000       -7.35123200000000        2.43798100000000
H           30.27889200000000       -8.58367900000000        4.54287400000000
H           31.04921200000000       -7.75579800000000        5.93626300000000
H           31.68237400000000       -5.36339400000000        5.78350200000000
H           31.78977200000000       -3.27357600000000        4.48407200000000
H           28.18848300000000       -3.36207400000000        2.95698400000000
H           26.37111300000000       -1.85438900000000        1.95219600000000
H           26.71818500000000        1.48593400000000       -2.27530500000000
H           28.67801499999999        3.04898000000000       -3.33674300000000
H           29.86025500000000        5.19341800000000       -1.32749600000000
H           29.78888100000000        7.29867000000000       -2.60256000000000
H           30.46705700000000        8.62037900000000       -4.58758000000000
H           31.52154600000000        7.89578400000000       -5.84587300000000
H           32.31896800000000        5.55864600000000       -5.62400200000000
H           32.38639300000000        3.44953100000000       -4.35564400000000
H           33.87423500000000        4.03833900000000       -2.03127400000000
H           35.55861300000000        2.42880300000000       -0.92859200000000
C           17.60845300000000        0.01464300000000        0.01024300000000
C           19.06668000000000       -0.00719300000000       -0.00763000000000
C           20.20060800000000       -0.02794700000000       -0.00912100000000
C           21.56198900000000       -0.04053700000000       -0.01131200000000
C           22.83620800000000       -0.03023100000000       -0.01607700000000
C           24.02467100000000       -0.01143200000000       -0.02223400000000
C           25.37703100000000        0.01335200000000       -0.00636600000000
C           26.47729900000000        0.01464300000000        0.01024300000000
128
 energy: -214.337673156917 gnorm: 0.603527080114 xtb: 6.5.1 (b24c23e)
Zn          13.17780547256606       -0.02618300630742        0.01379725012920
C            9.83497592410593        0.10835921154486        0.00888894424292
C           10.50180355147375        1.15820625380204       -0.51335625004987
C            9.84510165178762        2.30048995501825       -1.13103542022322
C           10.79137048470035        3.15382792814522       -1.50541939119097
C           12.08896467333909        2.58793545897101       -1.12662729921799
N           11.90412682177385        1.32591078767274       -0.51117030799561
C           13.29130086565602        3.19248773662186       -1.31948461314484
C           13.33447197846980        4.53982858013852       -1.93739223016986
C           13.88991910270166        4.70980167220150       -3.21331099599195
C           13.95291284985583        5.97798948510689       -3.79166713493251
C           13.46476208387235        7.09962882359302       -3.10222874261967
N           13.52932229821121        8.39274145711376       -3.69168412354597
C           12.91389913523194        6.92767474263685       -1.82215964098767
C           12.85104554951054        5.65926694962448       -1.24405379774139
C           14.57095458415929        2.58111737450924       -0.93551589383050
C           15.84922084633059        3.28663985410488       -0.92782548923427
C           16.79228695504243        2.41776598145038       -0.56052672071396
N           14.71971148913069        1.32718879955253       -0.58063158375265
C           16.07782684601603        1.17979469034257       -0.33743680194696
C           16.54912795860222       -0.01058693661049       -0.00103243945115
C           15.91228734102852       -1.25256450405414        0.23542293039823
C           16.47371879364315       -2.47362505917286        0.21386199941228
C           15.44136072777554       -3.39702563136760        0.59438206920236
C           14.32562452202474       -2.67893483345871        0.83267138097625
N           14.56728050485071       -1.29986752083788        0.60959667465267
C           13.06013672336624       -3.25335797199980        1.32385148474023
C           13.07908581055472       -4.59377394686410        1.96432628031088
C           13.81582494589526       -4.80041741813278        3.14000056093375
C           13.85657011643455       -6.06116152620526        3.73614822402426
C           13.16535619723917       -7.14168030719106        3.16475115841892
N           13.20752035210528       -8.42708620082895        3.77207862485385
C           12.43437028887574       -6.93584209339212        1.98370003341853
C           12.39345121735584       -5.67473602799558        1.38786303693881
C           11.89083343325329       -2.58408163685261        1.20904864398829
C           10.58940057139414       -3.02866195804854        1.69102981437664
C            9.71935290912111       -2.09569207246248        1.31621237492242
C           10.46224007652750       -1.05706998017094        0.61061273545918
N           11.73784568581786       -1.33855727264097        0.54656089251467
H            8.75134894612280        0.13378825121735       -0.01827444169353
H            8.78300150653419        2.44543058038133       -1.27487061454217
H           10.60110697143210        4.09428408077630       -2.00349735105087
H           14.27307035454231        3.85363584406212       -3.75952896447995
H           14.38378111740820        6.09298293051340       -4.77964644769317
H           13.93568783832501        8.52664140679706       -4.63657079771348
H           13.17107351751696        9.22538519620208       -3.18746966110252
H           12.53534902545541        7.78306109754780       -1.27442705568145
H           12.42814500924123        5.54512589347372       -0.25093370736040
H           16.02730324209176        4.32213767177590       -1.16848888717840
H           17.84611089514366        2.64751819506000       -0.46558025513064
H           17.49940436516754       -2.71857332565377       -0.01838800051696
H           15.54076452757741       -4.46674276646365        0.69771177193829
H           14.35706434766970       -3.97721965676849        3.59537001976556
H           14.42864149585076       -6.20296131762634        4.64591420078464
H           13.74654503570990       -8.58588228597244        4.64400672857321
H           12.69986421923350       -9.22950791524775        3.35444613745150
H           11.89878046458375       -7.75985362823578        1.52627750092311
H           11.83160468129848       -5.53720562757412        0.46949307410653
H           10.34562042433537       -3.92537686553041        2.24382511061898
H            8.65837571279986       -2.11540816987490        1.51111942608907
Zn          31.03937033250904        0.02525092658336       -0.01383490247434
C           34.38254392084738       -0.05367577488309        0.09588585356204
C           33.71603555155807       -1.06861353294195        0.68216119160773
C           34.37254694004420       -2.21482688979860        1.29308433580118
C           33.42643531798250       -2.99825045915079        1.79742433157293
C           32.12874090172029       -2.36937920664568        1.53468474658148
N           32.31330948634358       -1.15994905043747        0.82342509172996
C           30.92587215008408       -2.86459520039369        1.93225958969307
C           30.88314753977195       -4.12416502720380        2.71402024182179
C           30.32772681098076       -5.28152269880288        2.15066824375919
C           30.26471344018111       -6.46428678613168        2.88814798698517
C           30.75287205136269       -6.50938335414086        4.20395981453238
N           30.68830947031423       -7.71514818720891        4.95606457668855
C           31.30373671214437       -5.34743183397177        4.76791146451604
C           31.36658248939525       -4.16476096754372        4.03012372801950
C           29.64766569982527       -2.20553043989082        1.63359284670084
C           28.36650354875516       -2.58961837595720        2.22716042453732
C           27.42500437700587       -1.80563417767374        1.70754776612369
N           29.49765875613099       -1.21792253881345        0.78656238686513
C           28.13108122771029       -0.92835269786448        0.79197436890270
C           27.62098173458531        0.00176188544345       -0.00584287199007
C           28.29684534908179        0.88338121500802       -0.90835565899188
C           27.74399763469285        1.54481881997274       -1.94375212058411
C           28.77539510620215        2.37125656487239       -2.50254148855000
C           29.89263758878315        2.17310506783117       -1.77183819635145
N           29.64942250963333        1.22444360639533       -0.74636842189137
C           31.15674347822982        2.89990564456067       -1.97971560069095
C           31.13856229690357        4.17447542014387       -2.74306777963366
C           30.40181769326321        5.26856710887217       -2.26568171822179
C           30.36107174351297        6.46206277079103       -2.98712561337171
C           31.05227225994724        6.58281637814058       -4.20343651107787
N           31.01011804602091        7.79925735860948       -4.93926084533807
C           31.78326066986014        5.48469347004515       -4.68444350685488
C           31.82419016465191        4.29127321086547       -3.96252521162260
C           32.32708740856547        2.43439668264556       -1.48504002370093
C           33.62806450952016        3.08191909038373       -1.58954976241845
C           34.49833132402628        2.25389350844475       -1.01891160510533
C           33.75540788729404        1.09228388761140       -0.54327958492429
N           32.47993719954181        1.19439420387208       -0.81331318171549
H           35.46627101219601       -0.09013038738064        0.10192263155226
H           35.43463647346336       -2.41472933750856        1.33436845514977
H           33.61652843155053       -3.93305006439297        2.30609090536848
H           29.94456930553776       -5.26373318413822        1.13525815668106
H           29.83384985880959       -7.35129080356594        2.43810428372075
H           30.28194720958038       -8.57669920672293        4.54559879858803
H           31.04656033503109       -7.75495447441088        5.92866531529328
H           31.68228470712708       -5.36352022465664        5.78350181261112
H           31.78948751797191       -3.27392572296118        4.48369931709664
H           28.19027299133700       -3.36300912731065        2.95736513993571
H           26.37149359756537       -1.85224454244690        1.95032099146667
H           26.71833534874010        1.48608798227008       -2.27589750786318
H           28.67690341301024        3.04862913484523       -3.33706157372965
H           29.86057089163230        5.19328927291672       -1.32795556342868
H           29.78899136197256        7.29869746970043       -2.60264574941762
H           30.47108705504864        8.61373554288404       -4.58985324977528
H           31.51776717428189        7.89451292440526       -5.83882915040408
H           32.31885182680807        5.55872138165713       -5.62399082454924
H           32.38602807298591        3.44982439276897       -4.35532520808852
H           33.87199685858310        4.03813458083166       -2.03150388328571
H           35.55926776762113        2.42737065236445       -0.92773284608324
C           17.80462831821066        0.00931998450722        0.01593925960208
C           19.05074244868435       -0.00709598066269       -0.00654879010120
C           20.24498424147653       -0.02826315626472       -0.00948918651688
C           21.55210660734564       -0.04060932854279       -0.01145672684995
C           22.81717766784164       -0.03062975370978       -0.01607748677314
C           24.02910251366163       -0.01166862859478       -0.02216230305684
C           25.29654040574075        0.01501359713957       -0.00729332732656
C           26.42614221936082        0.02245695892602        0.00728690241183
128
 energy: -214.477582773480 gnorm: 0.263361605733 xtb: 6.5.1 (b24c23e)
Zn          13.17722749590328       -0.02134818608062        0.01222925341249
C            9.83501822268472        0.09390411344748        0.01684464150485
C           10.50339305617969        1.15851863752661       -0.51394281759797
C            9.84553918929227        2.29475155423525       -1.12828183861667
C           10.80069962559395        3.15578271438415       -1.50535591790922
C           12.08659616586570        2.58700744142917       -1.12659095760740
N           11.88078289288219        1.34535650944005       -0.52458503545101
C           13.30202429883810        3.19705841446232       -1.31907402105079
C           13.33985965210148        4.54576667699328       -1.93721922955805
C           13.89084458498129        4.71981433206451       -3.21084706317145
C           13.95127786629116        5.98267746373371       -3.79022149192379
C           13.46507245928605        7.10797156249932       -3.10607752990498
N           13.52874448675581        8.38227935756502       -3.68692132902033
C           12.91491226295987        6.92923840788256       -1.82696949441003
C           12.85182452640325        5.66394577885726       -1.25266907390989
C           14.55733703974536        2.61207201796432       -0.94915382142705
C           15.83330746434489        3.30321570005895       -0.93795559205289
C           16.77809701596498        2.41866973479859       -0.56166229270813
N           14.71479293967323        1.34989952353502       -0.57706705515888
C           16.05677223337511        1.19526155762025       -0.34010713638209
C           16.53686849795496       -0.02900398085855        0.00253717211099
C           15.88649517801557       -1.25783379935496        0.24497613520826
C           16.46950135740149       -2.50123713280632        0.22363533355424
C           15.46144503044510       -3.40532581525277        0.59873428946677
C           14.31642825501777       -2.67758510390267        0.84241854665784
N           14.55737146040542       -1.32261330366759        0.60351627124414
C           13.07344135667322       -3.24799794311752        1.32223604430754
C           13.08948320643572       -4.59460819035800        1.95836683126596
C           13.81683561433028       -4.80880368045889        3.13586455174922
C           13.85386718698381       -6.06416001357892        3.73435461917824
C           13.16555553385068       -7.14925299632403        3.16843556346543
N           13.20706611471318       -8.41597928981049        3.76684613235990
C           12.43623749389486       -6.93512553107768        1.98789605839640
C           12.39628951618152       -5.67599605702359        1.39577486634675
C           11.88804745807811       -2.58268130013354        1.20981523630553
C           10.59411402511294       -3.02603449310446        1.68717933613891
C            9.70773225553342       -2.08699785281302        1.31092393261360
C           10.44019357102937       -1.05303504341508        0.60735647691733
N           11.73119704358101       -1.34745342627795        0.55899491010479
H            8.75166624177019        0.12714795309901       -0.01234901558183
H            8.78326583105133        2.43472748057842       -1.26939043236356
H           10.61624216790128        4.09634215956470       -2.00311079029976
H           14.27107272536262        3.85941241391885       -3.75634063185118
H           14.38273708253482        6.09482458812296       -4.77913216243511
H           13.92663360841440        8.51690970749223       -4.61302814703208
H           13.17848264398240        9.20059009405461       -3.19520997168904
H           12.53623782284901        7.78366935534646       -1.27621433554531
H           12.43074627402003        5.54625293394479       -0.25708961157775
H           16.01656602756011        4.33457472209078       -1.17444645379876
H           17.83578719866576        2.63315424454816       -0.46219776371524
H           17.49648652272957       -2.72690721525098       -0.01856689481422
H           15.55005059990000       -4.47297725354854        0.69541743243644
H           14.35476989299979       -3.98223725595740        3.59280446466952
H           14.42690545320572       -6.20391934523336        4.64509536872562
H           13.73471696293180       -8.57536081945051        4.62167738474751
H           12.71067741795768       -9.20505736183917        3.36008909156598
H           11.90018858977026       -7.75900960505483        1.52772117892894
H           11.83519442814074       -5.53758059634266        0.47491187015828
H           10.35916753779384       -3.92415837791830        2.24109700784900
H            8.64992853271857       -2.10673374279911        1.50739870925228
Zn          31.04281165502926        0.02120447257887       -0.01071763901708
C           34.38265227106965       -0.03897104957560        0.08818502122684
C           33.71461320222187       -1.06940395438376        0.68217208892398
C           34.37233864701327       -2.20943957430035        1.28985573921889
C           33.41745419342371       -2.99946875202559        1.79916406771136
C           32.13156403012023       -2.36941070748713        1.53439766734908
N           32.33710711378462       -1.18217337041777        0.83245716206440
C           30.91695406627601       -2.86798118793513        1.93729231621476
C           30.87809463334207       -4.12784320967172        2.71935368798855
C           30.32680753703380       -5.28516833516596        2.16043030671120
C           30.26631980741239       -6.46577512985617        2.89288127178171
C           30.75256320180585       -6.51723628069531        4.20880793893520
N           30.68888007060896       -7.70543442810466        4.94999882404461
C           31.30274344570547       -5.35240004033782        4.76666614511910
C           31.36586750730596       -4.17467475384592        4.02946853984586
C           29.66394416034985       -2.23664435075341        1.65390442272089
C           28.38439045200689       -2.60793442494909        2.23563021845770
C           27.44413152338859       -1.80452048034240        1.70445937037241
N           29.51516519501215       -1.23174038589037        0.80805793188467
C           28.18007751115990       -0.94280990604378        0.80836689117974
C           27.70131394287507        0.01522886576623       -0.01877372880689
C           28.34605090980308        0.89444663729705       -0.91349721050559
C           27.75327986636535        1.56639704862907       -1.95888108993145
C           28.75676282044456        2.37978199787431       -2.50722807741682
C           29.90337603633086        2.18185474688677       -1.76690749727440
N           29.66911476256832        1.23580319119523       -0.76850743503634
C           31.14471527653603        2.89624999465079       -1.97665491590806
C           31.12834071422620        4.17027290271698       -2.74720881930792
C           30.40080600087847        5.26983830604174       -2.27499495607511
C           30.36376084250622        6.46227802418096       -2.99062570956134
C           31.05208066758685        6.59010166094486       -4.20772914555802
N           31.01056221780456        7.78876512297741       -4.93290501170725
C           31.78141987165537        5.48785043703520       -4.68158000350713
C           31.82140346189618        4.29864811937233       -3.95932465912024
C           32.33007766322311        2.43463240395297       -1.48377678204099
C           33.62363548733957        3.07738416680005       -1.58950458918774
C           34.51005446981097        2.24482890119248       -1.01462728230727
C           33.77764117392364        1.08734625582941       -0.54172078013769
N           32.48688183142561        1.20987999277373       -0.81406305626989
H           35.46601801403558       -0.08148571878440        0.09962375088521
H           35.43455781577136       -2.40425983745008        1.32847028395272
H           33.60157716302675       -3.93399560062595        2.30807933344629
H           29.94659212708841       -5.26427786352164        1.14186902851387
H           29.83486884776351       -7.35195037278322        2.43993128700602
H           30.29099530067392       -8.55172249297026        4.55050036024865
H           31.03915222269419       -7.74772281164757        5.90373846986195
H           31.68141047404593       -5.36540101580594        5.78310078222889
H           31.78690321674929       -3.27972081932342        4.48127946699855
H           28.20043866320259       -3.37480121836284        2.96450843349871
H           26.38426819069665       -1.83841596601241        1.93689028727094
H           26.72383459748743        1.48830853497848       -2.27929919396979
H           28.66708990555590        3.05018559747107       -3.34350348299395
H           29.86288050238330        5.19392465470146       -1.33357295742478
H           29.79071377268142        7.29857481313509       -2.60389757770101
H           30.48291266915168        8.58931966800039       -4.59342353509682
H           31.50695625084639        7.88570987516571       -5.81533784922434
H           32.31745588274273        5.55948667022562       -5.62252666853599
H           32.38245472537935        3.45456993280755       -4.35267407284829
H           33.85860015871410        4.03526390899081       -2.03200787703290
H           35.56779912250600        2.41953158600214       -0.92257310364246
C           17.81691105259306       -0.01231889713751        0.02498051305275
C           19.01943124424002       -0.01223390210919       -0.00336446621249
C           20.28685669471086       -0.02974223063029       -0.01126087554052
C           21.49912883022824       -0.04071878737070       -0.01238063701530
C           22.76950391924090       -0.03238781550365       -0.01574862022126