116
 energy: -206.112688285702 gnorm: 0.000552006632 xtb: 6.5.1 (b24c23e)
Fe           9.82475878083780       -0.04376760533617       -0.06043371547642
C            6.43403414979444       -0.06604614244582       -0.11259377621554
C            7.08574509366021       -1.28103138338549       -0.07165892922726
C            6.40602990944320       -2.54109144091773       -0.04897265535534
C            7.35764095332014       -3.49207930921662        0.09908112749016
C            8.61941861315759       -2.81149213978033        0.15132219173855
N            8.43986609549851       -1.45941859098716        0.03959368887378
C            9.83660039288575       -3.44927208380111        0.36294950060640
C            9.84030298264678       -4.92077681658554        0.54170798801115
C           10.20866953604857       -5.49999881244431        1.75473734866420
C           10.18892247684976       -6.88070308852433        1.87618462359721
N            9.83842900022230       -7.69016765066892        0.88212580402304
C            9.49067495059353       -7.14525264574237       -0.27912792053052
C            9.47339554210001       -5.77635027564241       -0.49583034792531
C           11.04811059429640       -2.77510761150918        0.39891208044158
C           12.31544722924764       -3.42580968750456        0.55166845158038
C           13.26439461689584       -2.46884848921777        0.41726516344510
N           11.22494742999543       -1.42696985532907        0.19321311059035
C           12.57501277801684       -1.23839799909426        0.18469176356281
C           13.23576832879302       -0.02735705515935       -0.05661743403544
C           12.56030254256720        1.18272607722694       -0.25785894691489
C           13.23299437387273        2.41863138894454       -0.50865090441562
C           12.27658194267756        3.37626127314698       -0.56526279784636
C           11.02192226857202        2.72041635638375       -0.34571328969427
N           11.21169933729645        1.36890365249378       -0.18281878077494
C            9.80230224911021        3.38105242613786       -0.29885747235243
C            9.79384597090813        4.85711780208697       -0.41883229152807
C            9.15516803896188        5.49299361921557       -1.48282797760645
C            9.17834520367176        6.87685060697635       -1.55475907945533
N            9.78121933009852        7.63915358131395       -0.64818607546680
C           10.39077251578262        7.04089206071816        0.37014107589747
C           10.42687708088203        5.66410152430899        0.52562296423433
C            8.58738439105163        2.71766563226293       -0.16716792895954
C            7.31572056302423        3.37927822609905       -0.10887302254560
C            6.37179868366787        2.40969632342347       -0.07606873774173
C            7.06811622371964        1.15884207719687       -0.09486425447833
N            8.42349419507169        1.35958767286093       -0.11736211266652
H            5.35030111273414       -0.07419774278807       -0.14389784180512
H            5.33692805299892       -2.66072854381365       -0.12406992629227
H            7.22882906140319       -4.55931543133178        0.17720277434245
H           10.49218003826798       -4.87768243698770        2.59506408826833
H           10.46590379743004       -7.35619398346558        2.81251417928112
H            9.21299924070368       -7.83294711868397       -1.07254341746363
H            9.19239999143509       -5.37601853997129       -1.46257464364746
H           12.45079143614450       -4.48168908525694        0.71988103970583
H           14.33654349057406       -2.57240050417738        0.46136422755678
H           14.29965681710318        2.52412066682356       -0.62383076223169
H           12.39847813767770        4.43103965890088       -0.74970799810611
H            8.66153605964382        4.91110735718950       -2.25198582525812
H            8.69170941908762        7.39467600399114       -2.37608382694931
H           10.87303585611659        7.69071138868398        1.09446005222489
H           10.92719785786955        5.22008627313940        1.37789629696154
H            7.17612406834785        4.44790605504071       -0.09286089715060
H            5.29893221474670        2.51181336778587       -0.03779758929660
Fe          28.37963054207898        0.02153073042829       -0.06972855964523
C           31.77053385611734        0.03014844178902       -0.12090941916594
C           31.11840156612307        1.20401769280334       -0.43610374143439
C           31.79767750258613        2.41669211245102       -0.78004652391668
C           30.84551014867272        3.36883232371404       -0.91669483343760
C           29.58388402508225        2.73190722769423       -0.67049174664515
N           29.76404242804665        1.40602461268194       -0.38342881294554
C           28.36617082196845        3.40269869097182       -0.65546100173061
C           28.36139809497411        4.86245007011857       -0.91314281807087
C           27.99136640728418        5.76972419376598        0.07809465830346
C           28.00943808612403        7.12584823678450       -0.20838890339951
N           28.35954311621160        7.61066171738818       -1.39524162229177
C           28.70880443427093        6.75125496344152       -2.34697654884530
C           28.72820190420395        5.37871013703092       -2.15490874693749
C           27.15480744755363        2.76730754799104       -0.42654846240191
C           25.88710290613066        3.43347871274349       -0.47131808052547
C           24.93860905001972        2.47821252331989       -0.32247141924641
N           26.97864383285411        1.41756788635233       -0.23105822537450
C           25.62864731538481        1.23381024898170       -0.18582454698695
C           24.96848977161653        0.00454523362668       -0.06492189357404
C           25.64462516857997       -1.21139142903906        0.09422283883502
C           24.97273923936138       -2.46742324803214        0.21180543998492
C           25.92957465036676       -3.39954588326693        0.43680875782698
C           27.18366992079236       -2.70725356212991        0.45816912845238
N           26.99319774248855       -1.36675544287596        0.22168134067140
C           28.40340451042039       -3.32478481162564        0.69682561276396
C           28.41288937055212       -4.77216262760923        1.01035374419200
C           29.05334631032762       -5.68854542205997        0.17705760969568
C           29.03177235055385       -7.03375710331440        0.50974040780839
N           28.42887161211318       -7.50098922053844        1.59815558085423
C           27.81750507438282       -6.63382130964218        2.39859849486393
C           27.77965846480767       -5.27119202338806        2.14784399724607
C           29.61788775433936       -2.65077098600306        0.63244539507171
C           30.88957639338790       -3.26599787464873        0.88256683548266
C           31.83324056772583       -2.32804210828585        0.63379383912525
C           31.13669236482892       -1.13713077668957        0.25117102825380
N           29.78139804045905       -1.33663149829002        0.28599185443105
H           32.85431661000040        0.02965827469452       -0.15147939304066
H           32.86685981681679        2.51010659903652       -0.88518385857028
H           30.97374287624757        4.41268770296891       -1.15251951024821
H           27.70762442151526        5.41910660322870        1.06316805009828
H           27.73067141720924        7.85337287272468        0.54826213259615
H           28.98681817383236        7.17806473529276       -3.30618830606014
H           29.01071158687260        4.71417259989058       -2.96261879786345
H           25.75122128268118        4.49249278255676       -0.61798103713503
H           23.86638484179033        2.58947769790017       -0.31181691205579
H           23.90627871222054       -2.60252573430651        0.13068452504979
H           25.80839822918289       -4.46256426953686        0.56627509725890
H           29.54721843047661       -5.35413566178221       -0.72744697541089
H           29.51993630862000       -7.76693799450783       -0.12560590465384
H           27.33537101378428       -7.04616770497829        3.28007831673942
H           27.27794693479218       -4.59966616267829        2.83426986394270
H           31.02936767195131       -4.28378825106245        1.20855360846187
H           32.90606242746168       -2.41394226777885        0.70170797529613
C           14.63608401421545       -0.02509463900658       -0.08607924485838
C           15.86246120359971       -0.02371098082104       -0.10733858135636
C           17.20185719286428       -0.02152277614361       -0.12081233493886
C           18.43476580578115       -0.01899145627919       -0.12683122529866
C           19.76940209831096       -0.02093883858776       -0.12747389145998
C           21.00234861302590       -0.01706993596513       -0.12415757146583
C           22.34175770984740       -0.01099236634915       -0.11156117157083
C           23.56818579634698       -0.00667880783474       -0.09267087237423
