142
 energy: -226.304376855387 gnorm: 0.484256291680 xtb: 6.5.1 (b24c23e)
Co          14.16252400000000       -0.00543800000000       -0.00640500000000
C           10.80383500000000        0.19782200000000       -0.24171500000000
C           11.46815500000000        1.29865900000000        0.11976000000000
C           10.81850600000000        2.54214700000000        0.51720600000000
C           11.76122000000000        3.41798700000000        0.80735800000000
C           13.06694100000000        2.77722000000000        0.60004600000000
N           12.88777600000000        1.42866300000000        0.16697400000000
C           14.26211400000000        3.37272700000000        0.78632000000000
C           15.55743100000000        2.68126600000000        0.55849800000000
C           16.85420100000000        3.36790800000000        0.55939500000000
C           17.78738400000000        2.46494100000000        0.34232800000000
N           15.69030100000000        1.40701800000000        0.34655300000000
C           17.09375800000000        1.18993700000000        0.19903600000000
C           17.68534700000000       -0.00017400000000        0.00004800000000
C           16.92677900000000       -1.26664900000000       -0.14106100000000
C           17.48396700000000       -2.47117300000000       -0.12474600000000
C           16.43673100000000       -3.43675700000000       -0.38472100000000
C           15.30256300000000       -2.76242500000000       -0.53952400000000
C           14.00061000000000       -3.38697400000000       -0.89815700000000
C           13.97554300000000       -4.82876800000000       -1.23272200000000
C           13.90906700000000       -5.24182000000000       -2.57098200000000
C           13.90442500000000       -6.60773000000000       -2.89048600000000
C           13.79864300000000       -7.04760000000000       -4.32081300000000
C           13.93223100000000       -7.55976700000000       -1.85953200000000
C           13.98929400000000       -7.15467500000000       -0.51769100000000
C           14.05603900000000       -8.18526200000000        0.57084000000000
C           14.02083200000000       -5.78627900000000       -0.20922000000000
C           12.84746500000000       -2.69257500000000       -0.91201500000000
C           11.52679500000000       -3.23301600000000       -1.23053700000000
C           10.67154100000000       -2.24851100000000       -1.04110000000000
C           11.43522400000000       -1.08057200000000       -0.60549400000000
N           12.70544300000000       -1.32756400000000       -0.52632700000000
N           15.52278200000000       -1.35721100000000       -0.39254100000000
C           14.31164600000000        4.78299200000000        1.23102000000000
C           13.99616300000000        5.81848300000000        0.33924000000000
C           14.03914800000000        7.15475900000000        0.76252700000000
C           13.71900400000000        8.26377500000000       -0.19601400000000
C           14.43978500000000        7.45287000000000        2.07355500000000
C           14.78081300000000        6.42431200000000        2.96460100000000
C           15.16314400000000        6.74508300000000        4.37926200000000
C           14.69969700000000        5.08942600000000        2.54258300000000
H            9.72088500000000        0.23480200000000       -0.25999400000000
H            9.75389100000000        2.72870000000000        0.57658200000000
H           11.57528700000000        4.43067200000000        1.13998800000000
H           17.03412500000000        4.42481800000000        0.70585800000000
H           18.84962200000000        2.66245400000000        0.28758600000000
H           18.52960600000000       -2.70263600000000        0.02543800000000
H           16.57229300000000       -4.50644200000000       -0.47116500000000
H           13.86498200000000       -4.50041200000000       -3.36078800000000
H           14.30114200000000       -8.02736300000000       -4.46837000000000
H           12.72832200000000       -7.14405500000000       -4.59833800000000
H           14.28316700000000       -6.30894500000000       -4.99494400000000
H           13.91109500000000       -8.61623200000000       -2.10102700000000
H           13.88747600000000       -7.73004200000000        1.57115600000000
H           13.27727000000000       -8.96019800000000        0.40736300000000
H           15.05521800000000       -8.66930200000000        0.56166400000000
H           14.07759900000000       -5.46256400000000        0.82420100000000
H           11.27294500000000       -4.23637000000000       -1.54563500000000
H            9.59994100000000       -2.31002300000000       -1.17826800000000
H           13.71213700000000        5.58298000000000       -0.67979400000000
H           13.23010100000000        9.10762800000000        0.33601800000000
H           13.02781300000000        7.91188600000000       -0.99095800000000
H           14.65628500000000        8.62744100000000       -0.66595000000000
H           14.48560100000000        8.48568500000000        2.39963300000000
H           14.25368300000000        6.75231400000000        5.01427400000000
H           15.65327300000000        7.73997000000000        4.43781200000000
H           15.87446700000000        5.98787700000000        4.77407400000000
H           14.94176000000000        4.28848200000000        3.23149600000000
Co          30.23764700000000        0.00748900000000        0.00330800000000
C           33.59633500000000        0.17691900000000       -0.25742100000000
C           32.93201600000000       -0.47670200000000       -1.21412600000000
C           33.58166500000000       -1.20458000000000       -2.29783300000000
C           32.63895100000000       -1.72706600000000       -3.05828800000000
C           31.33322900000000       -1.34958200000000       -2.50055400000000
N           31.51239500000000       -0.55823800000000       -1.32584900000000
C           30.13805700000000       -1.69426000000000       -3.02067300000000
C           28.84274000000000       -1.28296600000000       -2.41995900000000
C           27.54597000000000       -1.47496300000000       -3.07921200000000
C           26.61278700000000       -1.01512300000000       -2.27235700000000
N           28.70987000000000       -0.72469400000000       -1.25507100000000
C           27.30641300000000       -0.52258000000000       -1.08763400000000
C           26.71482400000000       -0.00017400000000        0.00004800000000
C           27.47339200000000        0.48789800000000        1.17718700000000
C           26.91620400000000        0.80752300000000        2.33864500000000
C           27.96343999999999        1.32600600000000        3.19369700000000
C           29.09760800000000        1.28698100000000        2.50292700000000
C           30.39956100000000        1.80529100000000        3.00296100000000
C           30.42462700000000        2.52797500000000        4.29463900000000
C           30.49110400000000        3.92832000000000        4.31884300000000
C           30.49574600000000        4.61541500000000        5.54182800000000
C           30.60152700000000        6.11165300000000        5.56616300000000
C           30.46794000000000        3.89022000000000        6.74321700000000
C           30.41087599999999        2.48865200000000        6.72765500000000
C           30.34413100000000        1.73002100000000        8.02051600000000
C           30.37933800000000        1.81146200000000        5.49921000000000
C           31.55270500000000        1.62530600000000        2.33215000000000
C           32.87337600000000        2.08167800000000        2.76256500000000
C           33.72863000000000        1.62567800000000        1.86970500000000
C           32.96494700000000        0.88217800000000        0.86918400000000
N           31.69472800000000        0.87489300000000        1.12845100000000
N           28.87738900000000        0.75464700000000        1.19416700000000
C           30.08852400000000       -2.51395000000000       -4.25141100000000
C           30.40400800000000       -1.94565900000000       -5.49421300000000
C           30.36102200000000       -2.72418700000000       -6.65984600000000
C           30.68116699999999       -2.11223900000000       -7.99185200000000
C           29.96038600000000       -4.06638000000000       -6.58123300000000
C           29.61935800000000       -4.63589600000000       -5.34529400000000
C           29.23702600000000       -6.08393400000000       -5.25959700000000
C           29.70047300000000       -3.85897400000000       -4.18064200000000
H           34.67928599999999        0.18418200000000       -0.29802600000000
H           34.64627899999999       -1.31353900000000       -2.46048400000000
H           32.82488400000000       -2.32844300000000       -3.93835500000000
H           27.36604500000000       -1.90984200000000       -4.05357800000000
H           25.55054900000000       -1.01752500000000       -2.47730200000000
H           25.87056400000000        0.72770600000000        2.60276600000000
H           27.82787700000000        1.70679400000000        4.19704200000000
H           30.53518800000000        4.48052900000000        3.38688600000000
H           30.09902900000000        6.52610700000000        6.46612700000000
H           31.67184800000000        6.40505900000000        5.58155300000000
H           30.11700400000000        6.55352500000000        4.66904900000000
H           30.48907600000000        4.41625100000000        7.69070200000000
H           30.51269500000000        0.64252500000000        7.86173900000000
H           31.12290100000000        2.10275000000000        8.71931700000000
H           29.34495300000000        1.87357300000000        8.48287000000000
H           30.32257100000000        0.72877500000000        5.47595500000000
H           33.12722600000000        2.66361900000000        3.63855100000000
H           34.80022900000000        1.77454800000000        1.89060300000000
H           30.68803400000000       -0.90134600000000       -5.55167900000000
H           31.17006900000000       -2.85814200000000       -8.65425500000000
H           31.37235800000000       -1.25076300000000       -7.87515500000000
H           29.74388600000000       -1.76210900000000       -8.47195700000000
H           29.91457000000000       -4.66706800000000       -7.48245900000000
H           30.14648800000000       -6.69586100000000       -5.08977800000000
H           28.74689800000000       -6.41711000000000       -6.19886400000000
H           28.52570400000000       -6.25236400000000       -4.42241700000000
H           29.45841100000000       -4.29770600000000       -3.21958600000000
C           22.80400600000000        0.00113800000000        0.00848000000000
C           21.59506600000000       -0.01231700000000        0.00003300000000
C           20.17353700000000       -0.00349800000000       -0.01195000000000
C           18.96186800000000        0.00394100000000       -0.00108700000000
C           24.22061000000000       -0.00553700000000        0.00901300000000
C           25.44130600000000        0.00394100000000       -0.00108700000000
142
 energy: -226.413600368668 gnorm: 0.243905171487 xtb: 6.5.1 (b24c23e)
Co          14.16718850176769        0.00965856665193       -0.02813848593956
C           10.80446525925398        0.17800060445639       -0.24808753518802
C           11.47700858171839        1.29330769627782        0.12133658462094
C           10.82274674791067        2.53065417796569        0.51311105758396
C           11.77805483686252        3.41609031536795        0.80705955415451
C           13.07044740405369        2.76577366200489        0.60016988146985
N           12.87496417955277        1.43412416697662        0.18006583971754
C           14.27830968423217        3.37182267566380        0.78488448295611
C           15.54001460672865        2.70226785333415        0.56486342898196
C           16.82943375299423        3.38260668893246        0.56704932713527
C           17.77033687583117        2.45512476380180        0.34165257602902
N           15.67918593027541        1.40885285423552        0.33305549742661
C           17.06274680816838        1.19703454736760        0.19872677807986
C           17.64512868171549       -0.01816269128366       -0.00071127539679
C           16.89590954310095       -1.25939759683513       -0.14596236072925
C           17.48019000010833       -2.49461374861591       -0.13214221156086
C           16.45720452205822       -3.44046824650179       -0.38609165013357
C           15.28743209765923       -2.74697482059440       -0.54187021519053
C           14.01937824726259       -3.37391669250587       -0.89321306112778
C           13.98941366578112       -4.82628062977862       -1.23158672592598
C           13.91089880387177       -5.24356478735175       -2.56426313604937
C           13.89905676119638       -6.60418310701811       -2.88369837668038
C           13.80126617478206       -7.04645948795788       -4.31911397440776
C           13.93285463999105       -7.55037528178215       -1.85728450033760
C           13.99178237814035       -7.14826072593534       -0.52079743677229
C           14.05400608489209       -8.18340171193198        0.57016064438485
C           14.02490501259357       -5.78583999668434       -0.21480382769589
C           12.85274469162107       -2.68297101284330       -0.90844192140322
C           11.54017541282548       -3.22537222997995       -1.22686322621791
C           10.66235753671336       -2.23065911077940       -1.03578026702655
C           11.41836302249090       -1.06800842398749       -0.60038340366184
N           12.71189483549505       -1.32527930602502       -0.52953041979098
N           15.50837778309445       -1.36036569186412       -0.37469569782272
C           14.32104171680066        4.78787552212307        1.22968624252690
C           13.99553139258479        5.82023749970299        0.34572331404019
C           14.04329328983498        7.15090382851877        0.76473356838405
C           13.71682593173321        8.26288619155460       -0.19471337176552
C           14.43914903946862        7.44530478484804        2.07125848940406
C           14.77462673630951        6.42302364914783        2.96117896853625
C           15.16540860787718        6.74499095751865        4.37773246762223
C           14.70258015700104        5.09476781854634        2.53777490336108
H            9.72160512081404        0.22320922831898       -0.26531986066938
H            9.75727145930022        2.71171426719480        0.57016597333572
H           11.59850447576138        4.42981484719206        1.13911110111293
H           17.01491384704932        4.43467667376329        0.71042141766258
H           18.83722462152823        2.63966058946848        0.28445626962000
H           18.52664392288060       -2.71060780717329        0.02454606527598
H           16.58225561718927       -4.50837027029594       -0.46803382603558
H           13.86736025340273       -4.50274403611363       -3.35641412976899
H           14.29284062685072       -8.01809230828066       -4.46715186660683
H           12.74221144874765       -7.14413327382362       -4.59980978141259
H           14.27503437078568       -6.31589775479191       -4.98933027117184
H           13.91192505757627       -8.60940140243951       -2.09957991263470
H           13.89099831581979       -7.73473172265531        1.55994965569494
H           13.28787106873359       -8.95510343999238        0.41011079210140
H           15.04194224707845       -8.66692606046347        0.56450713924652
H           14.07719391758474       -5.46371847320373        0.82019330392571
H           11.29517277650914       -4.23140802013701       -1.54273203562094
H            9.59428701224240       -2.29419336743548       -1.17469775240742
H           13.71238675526490        5.58343369118662       -0.67496022972029
H           13.23761380865697        9.10138415880693        0.32928644872782
H           13.03715013636324        7.91603433244377       -0.98492663207791
H           14.64298344692086        8.62670736775845       -0.66317583740663
H           14.48557688470345        8.48015867630598        2.39794464532716
H           14.26676445603698        6.75319816794436        5.01135843906352
H           15.64588910908734        7.73097316722348        4.43912856156983
H           15.86492729097147        5.99500907848730        4.77241542642651
H           14.94225881491592        4.29195968573627        3.22789809710431
Co          30.23291773276810        0.02405772044926       -0.01731827377940
C           33.59570170973964        0.18855418217531       -0.24016311585087
C           32.92315967775913       -0.47672808942025       -1.20855506825137
C           33.57741139937348       -1.19745089414023       -2.28793882537196
C           32.62208358279725       -1.72625078395964       -3.05654484914903
C           31.32967668868415       -1.34650505853111       -2.48950660815742
N           31.52520067871271       -0.57234121300770       -1.32744806120479
C           30.12173317729038       -1.69256615437393       -3.02013091373278
C           28.85987993145780       -1.29489288629886       -2.43829072229474
C           27.57060659940138       -1.48635902373533       -3.09127456349092
C           26.62944696933492       -1.01161973500147       -2.26338552710363
N           28.72014826015698       -0.71251600434017       -1.26031377554634
C           27.33620184319895       -0.52501774134149       -1.09440685575344
C           26.75379699942408        0.00331088809906        0.01847881542445
C           27.50467769866249        0.48988754832394        1.16913783552080
C           26.92018352170180        0.82126415901826        2.35903410834452
C           27.94308200313928        1.32842042640933        3.19688038521743
C           29.11283157076182        1.28494826398552        2.48744338807209
C           30.38083678033006        1.79692529093933        2.99180506910319
C           30.41077092639899        2.52619892654051        4.29257024122457
C           30.48927473566565        3.92235702750816        4.32239066053719
C           30.50111343375720        4.60791023351875        5.54031248643805
C           30.59890395235226        6.10970463410216        5.56554076084169
C           30.46731634211947        3.88544746098575        6.73482246598562
C           30.40838752250277        2.48985027319869        6.72063017611843
C           30.34616415074667        1.73015547502420        8.01853992262460
C           30.37526660967360        1.81670389505333        5.49723478276720
C           31.54744585727289        1.61919881617498        2.32391583021816
C           32.86000369619046        2.07602088056723        2.75624392271938
C           33.73781537275576        1.61559621345949        1.85403456315580
C           32.98179781198937        0.87377326911291        0.85853799467485
N           31.68826286561321        0.87733462936818        1.12534156414542
N           28.89198750187305        0.73819607461432        1.20221270823931
C           30.07909027020794       -2.51399255141130       -4.25643613128012
C           30.40463462696489       -1.95236695805200       -5.49407425791100
C           30.35687784831421       -2.72522824937031       -6.65551690231263
C           30.68334463696239       -2.11324140030856       -7.99063029128578
C           29.96102229595041       -4.06206425248916       -6.57459995762585
C           29.62554801087650       -4.63224274716984       -5.34500049344294
C           29.23476337185744       -6.08243463661086       -5.25993212834111
C           29.69758608730295       -3.85582815673756       -4.18709937202830
H           34.67856330520961        0.19252118786670       -0.28837532928061
H           34.64288894678229       -1.30265119972680       -2.44596111822428
H           32.80164796723577       -2.32735980663919       -3.93777299832623
H           27.38527846942772       -1.91696552009475       -4.06183828859447
H           25.56265690766512       -1.00820755260055       -2.45645381532170
H           25.87367869121636        0.73079285091194        2.61012519110891
H           27.81794735995776        1.70436280025879        4.19976037026215
H           30.53281072521544        4.47697930822394        3.39034350706793
H           30.10732987138632        6.52235695627883        6.45756225596797
H           31.65795877337492        6.40649443767434        5.58121862654271
H           30.12513642121042        6.55006886009933        4.67728968045686
H           30.48824586055168        4.41295993878491        7.68454488409533
H           30.50917254404688        0.65459390388865        7.86312373526967
H           31.11229966935798        2.09869279726486        8.71518845067875
H           29.35822849227442        1.87018092597478        8.48137937599604
H           30.32297680830668        0.73294689548001        5.47594763387167
H           33.10500234419209        2.65944862004996        3.63459199536220
H           34.80588502619421        1.76670941385571        1.87638894066784
H           30.68778207902357       -0.90611062998999       -5.55076545036185
H           31.16255520837118       -2.84993793854464       -8.65012791751026
H           31.36302095626718       -1.25771033789229       -7.87745940326408
H           29.75718802267488       -1.76456993453326       -8.47047764302237
H           29.91459462245620       -4.66390472337351       -7.47761639783756
H           30.13340631884425       -6.69330504636906       -5.09143837150824
H           28.75428334088594       -6.41586697381335       -6.18985446811903
H           28.53524414337173       -6.25275519540940       -4.42972887555553
H           29.45790894481246       -4.29521595711486       -3.22392379459711
C           22.81115691887675        0.00202114527250        0.00642215785749
C           21.58972966874818       -0.01363495890571       -0.00192084863163
C           20.21996218089402       -0.01380092922924       -0.01431242444708
C           19.00110156207686       -0.02149028015443       -0.00054055991792
C           24.17928225099805       -0.00307388984422        0.01352360062681
C           25.39861404692169        0.01993256025558        0.02713158497662
142
 energy: -226.462586219461 gnorm: 0.081622116376 xtb: 6.5.1 (b24c23e)
Co          14.17640901329237        0.02149096313406       -0.04438181878698
C           10.81068873577340        0.15799820472779       -0.25267473195702
C           11.49079404216059        1.28952991409963        0.12767201840510
C           10.83186812247273        2.51699807734947        0.50933723266291
C           11.79757061321066        3.40925817505988        0.80639947983663
C           13.07138508322288        2.74908689477457        0.60302996266514
N           12.86192236792503        1.44250063735333        0.18959143813993
C           14.29579513474857        3.36595197034885        0.78245016027376
C           15.51948597140096        2.72010874167597        0.56738159942392
C           16.80072277358112        3.38604714021845        0.57687109528657
C           17.74299570264879        2.43923824709179        0.34054055321618
N           15.66984201786592        1.40187720004701        0.30357752892814
C           17.03111986445827        1.19731901256017        0.19150876491283
C           17.61190172881904       -0.04555963855042       -0.00059327268469
C           16.86949220261085       -1.25008476666432       -0.14781558443249
C           17.47251866895170       -2.52022414190614       -0.14634550776715
C           16.48269868570851       -3.43689913564908       -0.39182405485341
C           15.27344884442545       -2.72938760201398       -0.53949974767510
C           14.04817109280085       -3.35333557384556       -0.88483963438998
C           14.00720012491921       -4.81711600033208       -1.22763511413724
C           13.91635881303665       -5.23952207377095       -2.55620709766562
C           13.89511133283767       -6.59699323142482       -2.87686799783656
C           13.80197346999739       -7.04296967719787       -4.31601902139815
C           13.93344264487603       -7.53994971873667       -1.85476942576770
C           13.99457564229245       -7.13985316499584       -0.52210168685991
C           14.05248924255458       -8.18011038673429        0.56948851812571
C           14.03209856319124       -5.78131290019614       -0.21760169336393
C           12.86024325309893       -2.66155212798548       -0.90468443867404
C           11.56041367695665       -3.20737058935573       -1.21978745708765
C           10.66272454619341       -2.21104912404500       -1.02693712093522
C           11.40409706833677       -1.05181347043767       -0.59514724421548
N           12.72609403122847       -1.31822715672597       -0.53869536294847
N           15.50428978857272       -1.36750610161805       -0.35430139610557
C           14.32740458421427        4.78919873482716        1.22700412271301
C           13.99529798484681        5.82032862910000        0.34935995847791
C           14.04611180480273        7.14728569419738        0.76576425001172
C           13.71537533304017        8.26201280294875       -0.19393043432012
C           14.43836226872602        7.43897857814262        2.06931961622925
C           14.77033719601345        6.42107164908920        2.95819112408940
C           15.16616431106585        6.74449900807352        4.37657482926642
C           14.70605348110437        5.09729112905577        2.53270104443783
H            9.72719579723084        0.21444834083704       -0.27320302734675
H            9.76539848245435        2.68852679174612        0.56077532888338
H           11.63056080037747        4.42488499508131        1.13640036784734
H           16.98886913641219        4.43722771249332        0.71862960356334
H           18.81255223106721        2.60798624564740        0.28145696037717
H           18.52048510706449       -2.71639591111383        0.01994504729179
H           16.58988415824614       -4.50652560005164       -0.46755058549937
H           13.87233890349545       -4.50134745207757       -3.35118113088725
H           14.28623681481733       -8.00925064299407       -4.46069527782502
H           12.75156127120089       -7.14304014883620       -4.60027484880901
H           14.26890392118136       -6.31805882446843       -4.98232949252301
H           13.91298274893934       -8.60016981464548       -2.09768212375200
H           13.89337869326012       -7.73452926114258        1.55075036431217
H           13.29537007092653       -8.94891732294000        0.40926723761687
H           15.03204079489627       -8.66386613709294        0.56541117768921
H           14.07933937202083       -5.46279495087268        0.81872420034968
H           11.32874170959847       -4.21695842821167       -1.53611380922343
H            9.59561974122130       -2.27543779564149       -1.16803388025496
H           13.71117785280459        5.58271714023521       -0.67119022819754
H           13.24385196001117        9.09559443829287        0.32654137698429
H           13.04446579081467        7.91630602237876       -0.97990880192720
H           14.63358308279531        8.62596687441573       -0.66109071403329
H           14.48554508846619        8.47460803548910        2.39626584737178
H           14.27575232938574        6.75378686034532        5.00975626548815
H           15.63916809144077        7.72451606358802        4.43712999338445
H           15.85700070824515        5.99852379314886        4.76884914760928
H           14.94543760470912        4.29395249788422        3.22298210628868
Co          30.22381263088188        0.03608525814170       -0.03302168728002
C           33.58947070920181        0.19852466746416       -0.22225295327652
C           32.90933199695387       -0.48175067004563       -1.20317577527080
C           33.56822096599763       -1.19002998737999       -2.27589731279271
C           32.60248894466240       -1.72372427758739       -3.05017138020393
C           31.32863164868024       -1.34458534825073       -2.47269256463264
N           31.53818307743527       -0.58380126415246       -1.33284395362921
C           30.10410392322155       -1.68847340509078       -3.01511733610077
C           28.88017069062627       -1.30241212884708       -2.45444461053234
C           27.59907860103925       -1.49667588031533       -3.09174708631503
C           26.65639832747467       -1.00629149449906       -2.24834611690033
N           28.72917413272175       -0.68334858428789       -1.26116165649694
C           27.36737943553464       -0.51870495001817       -1.09639948426034
C           26.78779071496237        0.00944148370973        0.04515857804307
C           27.53191021810929        0.48816342999873        1.15979808480768
C           26.92818195915515        0.84180636932486        2.37953111236308
C           27.91767900901802        1.33305631499046        3.19183572147029
C           29.12701117006320        1.27770365771258        2.47140016155387
C           30.35214669253487        1.78323416910558        2.97441904104037
C           30.39304034090955        2.51989637780245        4.28489924484491
C           30.48382785568116        3.91352668794382        4.32076536351347
C           30.50505715993513        4.59936755297262        5.53532246928346
C           30.59819627980097        6.10577448432639        5.56305555257853
C           30.46672990639792        3.88013884638514        6.72551712033282
C           30.40559654845519        2.48877102637683        6.71220047658100
C           30.34768259375766        1.72988611884440        8.01519352950621
C           30.36809427580864        1.81814661306854        5.49211743940566
C           31.54002555899189        1.60966149158908        2.30441307022732
C           32.83982858155353        2.06422239427072        2.74093187308230