126
 energy: -229.136807248421 gnorm: 0.449693465239 xtb: 6.5.1 (b24c23e)
Ni          14.41082000000000       -0.00895200000000       -0.00102800000000
C           11.04906700000000        0.12615400000000       -0.12005200000000
C           11.71512700000000        1.27984700000000       -0.01961900000000
C           11.06530100000000        2.58144600000000        0.07431200000000
C           12.00540500000000        3.49566500000000        0.21953500000000
C           13.31074100000000        2.82059800000000        0.22049600000000
N           13.13336900000000        1.41203200000000        0.06566200000000
C           14.50015500000000        3.43293500000000        0.39354900000000
C           14.53648600000000        4.89987700000000        0.58608700000000
C           14.79134800000000        5.43759200000000        1.85573500000000
C           14.83009200000000        6.82278500000000        2.03888100000000
C           14.60974700000000        7.68827400000000        0.95323800000000
C           14.64307200000000        9.15179900000000        1.12709900000000
O           14.87742100000000        9.66810100000000        2.25235000000000
C           14.35366100000000        7.14636900000000       -0.31596200000000
C           14.31964500000000        5.76112800000000       -0.49949500000000
C           15.79589700000000        2.70201800000000        0.41023500000000
C           17.09068000000000        3.34385800000000        0.66893700000000
C           18.02483400000000        2.42055600000000        0.57610100000000
N           15.93459300000000        1.43560900000000        0.15908600000000
C           17.33653100000000        1.17850000000000        0.24737700000000
C           17.93264300000000       -0.00019600000000        0.00005400000000
C           17.17775600000000       -1.22365000000000       -0.35839000000000
C           17.73137699999999       -2.31209200000000       -0.87838700000000
C           16.68741000000000       -3.30704100000000       -1.01210800000000
C           15.56270600000000       -2.76337200000000       -0.56313000000000
N           15.78122600000000       -1.41892000000000       -0.12896600000000
C           14.26600500000000       -3.48355700000000       -0.47685600000000
C           14.27549300000000       -4.96358400000000       -0.55235600000000
C           13.71316200000000       -5.62278400000000       -1.65682100000000
C           13.74265900000000       -7.01804800000000       -1.73391800000000
C           14.33952700000000       -7.77264700000000       -0.71161000000000
C           14.36725200000000       -9.24322800000000       -0.81297100000000
O           14.94329500000000       -9.94459100000000        0.05956800000000
C           14.90722700000000       -7.11012600000000        0.39135800000000
C           14.87784300000000       -5.71475500000000        0.46740900000000
C           13.09776300000000       -2.83020500000000       -0.33317800000000
C           11.77606100000000       -3.44386200000000       -0.21601000000000
C           10.91561400000000       -2.44826800000000       -0.13055100000000
C           11.67853000000000       -1.20226500000000       -0.18050000000000
N           12.95199200000000       -1.41203500000000       -0.29865600000000
H            9.96579600000000        0.15896900000000       -0.13689100000000
H           10.00146200000000        2.77921300000000        0.04703900000000
H           11.81688900000000        4.55560700000000        0.32981500000000
H           14.96078600000000        4.78291900000000        2.70197400000000
H           15.03070900000000        7.21537500000000        3.02785800000000
H           14.46558200000000        9.80169200000000        0.27984700000000
H           14.18073800000000        7.79570500000000       -1.16560300000000
H           14.12262100000000        5.35829400000000       -1.48570200000000
H           17.27323100000000        4.38722300000000        0.88795500000000
H           19.08579600000000        2.58795200000000        0.70608900000000
H           18.77149000000000       -2.44899300000000       -1.14157300000000
H           16.81137000000000       -4.31213800000000       -1.39332800000000
H           13.25678800000000       -5.05488800000000       -2.45916500000000
H           13.30479100000000       -7.50863900000000       -2.59550000000000
H           13.89571000000000       -9.73609700000000       -1.65318600000000
H           15.37347300000000       -7.66920100000000        1.19370100000000
H           15.32099100000000       -5.21898800000000        1.32282500000000
H           11.52495000000000       -4.49639000000000       -0.19700400000000
H            9.84260600000000       -2.55034000000000       -0.03241500000000
Ni          30.72679700000000        0.00862500000000        0.00023000000000
C           34.08855000000000       -0.10815500000000       -0.13682100000000
C           33.42249000000000       -1.26439100000000       -0.20170600000000
C           34.07231599999999       -2.56610100000000       -0.29408900000000
C           33.13221200000000       -3.49168300000000       -0.28053700000000
C           31.82687600000000       -2.82363400000000       -0.18345200000000
N           32.00424800000000       -1.40737400000000       -0.13611800000000
C           30.63746200000000       -3.45437400000000       -0.09936400000000
C           30.60113100000000       -4.93378400000000       -0.11769100000000
C           30.34626900000000       -5.64682500000000        1.06244300000000
C           30.30752500000000       -7.04398200000000        1.04646100000000
C           30.52786900000000       -7.74604600000000       -0.15136900000000
C           30.49454400000000       -9.21941400000000       -0.18769600000000
O           30.26019600000000       -9.89069800000000        0.85256200000000
C           30.78395600000000       -7.02892100000000       -1.33046200000000
C           30.81797200000000       -5.63166200000000       -1.31485700000000
C           29.34172000000000       -2.73328200000000        0.02124000000000
C           28.04693700000000       -3.40542100000000        0.18590300000000
C           27.11278200000000       -2.47830900000000        0.22549800000000
N           29.20302400000000       -1.44401500000000       -0.04700300000000
C           27.80108600000000       -1.20209900000000        0.07700200000000
C           27.20497400000000       -0.00019600000000        0.00005400000000
C           27.95986100000000        1.26183400000000       -0.18050900000000
C           27.40624000000000        2.41323400000000       -0.54020400000000
C           28.45020600000000        3.41708500000000       -0.53087400000000
C           29.57491100000000        2.81501900000000       -0.16389400000000
N           29.35639100000000        1.42244200000000        0.07438500000000
C           30.87161200000000        3.51557800000000        0.02406000000000
C           30.86212400000000        4.99127300000000        0.16009500000000
C           31.42445500000000        5.80103800000000       -0.83923900000000
C           31.39495700000000        7.19306100000000       -0.71685400000000
C           30.79809000000000        7.79438500000000        0.40249500000000
C           30.77036500000000        9.26441300000000        0.51158800000000
O           30.19432100000000        9.83437300000000        1.47511300000000
C           30.23039000000000        6.98154600000000        1.39987400000000
C           30.25977400000000        5.58956700000000        1.27643900000000
C           32.03985400000000        2.84842500000000        0.07323200000000
C           33.36155600000000        3.43914200000000        0.27659500000000
C           34.22200200000000        2.44152500000000        0.21940300000000
C           33.45908700000000        1.21533400000000       -0.00747700000000
N           32.18562500000000        1.43979200000000       -0.09455600000000
H           35.17182000000000       -0.13823700000000       -0.15816100000000
H           35.13615500000000       -2.75796800000000       -0.34924700000000
H           33.32072800000000       -4.55652800000000       -0.32232400000000
H           30.17683100000000       -5.11933500000000        1.99328800000000
H           30.10690800000000       -7.57340800000000        1.96945100000000
H           30.67203400000000       -9.74202900000000       -1.11886200000000
H           30.95687900000000       -7.55064500000000       -2.26391400000000
H           31.01499600000000       -5.09249100000000       -2.23364600000000
H           27.86438600000000       -4.46934200000000        0.25410700000000
H           26.05182000000000       -2.66251000000000        0.33032300000000
H           26.36612700000000        2.58621900000000       -0.78121200000000
H           28.32624600000000        4.46622700000000       -0.76507600000000
H           31.88082899999999        5.35319000000000       -1.71427700000000
H           31.83282600000000        7.80134700000000       -1.49979100000000
H           31.24190600000000        9.87191100000000       -0.24987600000000
H           29.76414400000000        7.42066500000000        2.27365500000000
H           29.81662600000000        4.97703500000000        2.05253700000000
H           33.61266600000000        4.47823600000000        0.44529400000000
H           35.29501000000000        2.52858100000000        0.33107400000000
C           23.17272900000000        0.00111600000000        0.00848600000000
C           21.96378899999999       -0.01233900000000        0.00003900000000
C           20.54226000000000       -0.00352000000000       -0.01194400000000
C           19.33059099999999        0.00391900000000       -0.00108100000000
C           24.58933300000000       -0.00555900000000        0.00901900000000
C           25.81002900000000        0.00391900000000       -0.00108100000000
126
 energy: -229.228241613311 gnorm: 0.233924003873 xtb: 6.5.1 (b24c23e)
Ni          14.41825513953122        0.00220173835294       -0.02669715496731
C           11.04903240111547        0.10438475645899       -0.12086737930102
C           11.72402364973842        1.27572083727480       -0.01845017322848
C           11.07011034971336        2.56961671910210        0.07253516090009
C           12.02324891759046        3.49380217878934        0.21947472286981
C           13.31448395302424        2.80930035845454        0.21828975508420
N           13.11727171192828        1.42333257700568        0.07717805076908
C           14.51938835676203        3.42938421283874        0.39330717020467
C           14.54601705163208        4.90251156172572        0.58576941023991
C           14.79550119711211        5.44466407553585        1.85101077162646
C           14.82909695820563        6.82104140048962        2.03393445937212
C           14.60964346328522        7.68740305231647        0.95315441237143
C           14.64799386559948        9.14737854503825        1.14825776297879
O           14.87363428800389        9.65447806942820        2.23585177890815
C           14.35327313062441        7.14194690251179       -0.31229894321107
C           14.31939173721148        5.76434508027047       -0.49368530356351
C           15.78114233648103        2.72128110236617        0.41577367184002
C           17.06605991553736        3.35990472549230        0.66768201436579
C           18.01020069787740        2.41202999187050        0.57263652954555
N           15.93271771106358        1.42776155416729        0.17548635638230
C           17.32196701251048        1.17895119558991        0.24970850933364
C           17.92230668347790       -0.01767500863004       -0.01221773100494
C           17.16250205469025       -1.21786131638737       -0.34898982475494
C           17.73381204415870       -2.34123569382257       -0.88135306929601
C           16.71425604702653       -3.31140211310496       -1.01009473261741
C           15.55412439792311       -2.74799693913644       -0.54890808568514
N           15.77718464060579       -1.41050881757380       -0.14897839902317
C           14.28777427650122       -3.46810443817074       -0.47339890512226
C           14.29292253126747       -4.95661812983757       -0.55904352357415
C           13.71644103385126       -5.62236348903161       -1.65092610160065
C           13.74372892634420       -7.01116896316317       -1.72823184135511
C           14.33916020325923       -7.76999176622762       -0.71116887521330
C           14.38075670390523       -9.24136115676445       -0.79545307896973
O           14.93359003863746       -9.92794128533588        0.04896293522046
C           14.90389106276433       -7.10474810155616        0.38693477549854
C           14.88074632182339       -5.71697891509200        0.45972056312736
C           13.10367657410479       -2.82006410796316       -0.32816266347172
C           11.78964122574866       -3.43372714060657       -0.21710948661009
C           10.90519870533540       -2.42856780374532       -0.13267936229162
C           11.65945076326964       -1.18840560153855       -0.17743293409007
N           12.95918280899618       -1.41204231259679       -0.27779491572296
H            9.96628260119327        0.14445424565255       -0.13717603821068
H           10.00539068629465        2.75963597624372        0.04379801649690
H           11.84340349480459        4.55457837098305        0.32979778510275
H           14.96043748972719        4.78636275547911        2.69738797477363
H           15.02879816054563        7.22057774505539        3.02240801717094
H           14.46523551368930        9.79117112198164        0.27822512326462
H           14.18155952528885        7.79443722807074       -1.16216213527538
H           14.12420509261565        5.35813244355176       -1.48051156652727
H           17.25043725510483        4.39894517376476        0.88780208963910
H           19.07433088197131        2.56563313310655        0.70106341043005
H           18.77208353711165       -2.46289807740427       -1.14588862356720
H           16.82491780963091       -4.31273597503048       -1.39531612205881
H           13.25983530020839       -5.05389822861416       -2.45414532540071
H           13.30664744612035       -7.50568989384968       -2.59054597812974
H           13.89486903453860       -9.72495980128292       -1.65275453613731
H           15.36959859879977       -7.67138091256507        1.18697031204706
H           15.31993789296151       -5.22023346975321        1.31804333092505
H           11.54965544018314       -4.48909543343826       -0.19978879669900
H            9.83590242833296       -2.53209726815699       -0.03355967937387
Ni          30.71927514383662        0.00120468189195       -0.02676487828763
C           34.08858170187116       -0.08649262290361       -0.13452773725400
C           33.41358297684661       -1.26047343570938       -0.19996041791120
C           34.06748627551830       -2.55414002788128       -0.29416132461184
C           33.11432924467208       -3.48982318443903       -0.28032871603854
C           31.82308375375122       -2.81210876823568       -0.18402542533261
N           32.02033070643996       -1.42018103390857       -0.12633777825897
C           30.61810924818941       -3.45070981479685       -0.09909764291723
C           30.59155139490932       -4.93628341444074       -0.11838183548601
C           30.34210783672619       -5.65312850959737        1.05675463968719
C           30.30852316493286       -7.04153536814743        1.04180999390422
C           30.52797294974498       -7.74516295371588       -0.15132719238833
C           30.48962257074271       -9.21804544451020       -0.16612346034685
O           30.26398316525290       -9.87486114766110        0.83817092478744
C           30.78434464392182       -7.02504753135605       -1.32620034697438
C           30.81821618987420       -5.63564671831921       -1.30955477768384
C           29.35624783398877       -2.75296059066059        0.02394122489035
C           28.07147338124737       -3.42109855016826        0.18234418585402
C           27.12713862169594       -2.46945986677514        0.22329711320111
N           29.20425344197968       -1.43832245753495       -0.02969734600869
C           27.81477677449674       -1.20285848700296        0.07942076615895
C           27.21378810100322        0.01909909590991       -0.00839662950707
C           27.97503942023030        1.25470304699288       -0.17187472605863
C           27.40387448913639        2.44243760830153       -0.53901405801306
C           28.42340256054667        3.42109448510079       -0.52826573418882
C           29.58351364064955        2.79775893497214       -0.15201337884167
N           29.36039497497441        1.41693093875103        0.05335761875033
C           30.84984767274045        3.49978834939523        0.02528377513319
C           30.84469731986504        4.98532805047040        0.15248478280262
C           31.42117636017919        5.79978185130056       -0.83346351700403
C           31.39388711637491        7.18544185872378       -0.71220586784554
C           30.79845664854440        7.79169433280264        0.40255337846669
C           30.75685981794312        9.26006950604491        0.52866128298154
O           30.20402612531575        9.81940380199453        1.46224508914731
C           30.23372570296848        6.97685205098315        1.39472976829217
C           30.25687100887449        5.59286197871348        1.26914542138282
C           32.03394214898747        2.83766780427329        0.07675332613723
C           33.34797349360443        3.42926354319360        0.27406355431043
C           34.23241478116763        2.42232353332217        0.21448979836982
C           33.47815786598026        1.20117622636946       -0.00641261365819
N           32.17842086429307        1.43681624880698       -0.07389655269911
H           35.17133176712097       -0.12383117307226       -0.15637706018695
H           35.13220988763489       -2.73813342011723       -0.34966591249742
H           33.29418951676946       -4.55550021921200       -0.32219287841271
H           30.17717514318702       -5.12208384627535        1.98826067745890
H           30.10882134047815       -7.57777140783190        1.96331168804455
H           30.67238043281730       -9.73138039231552       -1.11896902567907
H           30.95605815903576       -7.54986745911929       -2.26032172606889
H           31.01340887464425       -5.09306138958167       -2.22848422349246
H           27.88721816441142       -4.48091753837061        0.25227533946832
H           26.06308870993416       -2.63984567304166        0.32856942602305
H           26.36557501351957        2.60056846717529       -0.78347190165711
H           28.31271286547025        4.46708571407569       -0.76695430689861
H           31.87778203967530        5.35149528498236       -1.70944988566098
H           31.83096940468365        7.79772243509499       -1.49530783211918
H           31.24274719574083        9.86082527230911       -0.25103510573880
H           29.76801829624812        7.42378040374273        2.26730342686434
H           29.81767911211298        4.97894827374637        2.04798062859280
H           33.58795971856767        4.47141002332136        0.44149796048046
H           35.30171190603109        2.51068375910670        0.32734168704800
C           23.18365463663966        0.00140017634503        0.00851178585068
C           21.95513703299253       -0.01361067293030       -0.00194817761613
C           20.56455928871609       -0.01182075466875       -0.01263184262105
C           19.33881353678829       -0.02405445424689       -0.00009839735089
C           24.57238875647709        0.00335753954182        0.00457649046994
C           25.79835598892440        0.03164538220299        0.00435289432418
126
 energy: -229.271576452288 gnorm: 0.076943758537 xtb: 6.5.1 (b24c23e)
Ni          14.43419235415112        0.00678214332315       -0.02368050745944
C           11.05589880460643        0.08290489812515       -0.11788586479082
C           11.73891716394722        1.27537115000037       -0.01670546801636
C           11.07964297889024        2.55626808670389        0.07025079714362
C           12.04423143805829        3.48784409883268        0.21735654738704
C           13.31536692824891        2.79271892266197        0.21622348828463
N           13.10332678451901        1.43463565312064        0.07900261111628
C           14.54075604390630        3.41832150597485        0.39540226437121
C           14.55211963444527        4.89926996469383        0.58581496972305
C           14.79920901795550        5.44710589218308        1.84717156649098
C           14.82861722049937        6.81749623481009        2.02816091788164
C           14.60924274820838        7.68398211178773        0.95053624572356
C           14.65222976512827        9.14546204916077        1.17070897024792
O           14.87302213495075        9.64753763688180        2.23321726663085
C           14.35297416198299        7.13575272914625       -0.31022083333206
C           14.32028636726690        5.76318753677219       -0.48916847358785
C           15.76500746440250        2.73719565782020        0.41956793206921
C           17.03949759852903        3.36553969109646        0.66332625234069
C           17.98776894673094        2.39860968761165        0.56744449119193
N           15.93376791351891        1.41063577706620        0.18407426906042
C           17.30227452599063        1.17626209586881        0.25666123431917
C           17.91566216501477       -0.04192846195274       -0.02287972622436
C           17.15133583789030       -1.20806378235748       -0.34466925187163
C           17.73403792572186       -2.37459025547229       -0.87855753786529
C           16.74660275525632       -3.31220686238054       -0.99868704959513
C           15.54659289911154       -2.72864763831056       -0.53878706486441
N           15.78302747734393       -1.40270961223438       -0.18267779410603
C           14.31926308549590       -3.44317676278909       -0.47094705052810
C           14.31352911242286       -4.94117313631316       -0.56714866361453
C           13.72335790319243       -5.61483841260255       -1.64667625359127
C           13.74483581745027       -6.99923264196956       -1.72330117932020
C           14.33851104327519       -7.76232477275263       -0.71272990564056
C           14.39025988635230       -9.24040859439809       -0.77479588875831
O           14.93203138926668       -9.91824078132492        0.04810515930728
C           14.90239399516634       -7.09487898010815        0.38105031235621
C           14.88748074146712       -5.71242429424118        0.45107673676617
C           13.11099328119899       -2.79859871978768       -0.31585447524757
C           11.80969142076443       -3.41477444946936       -0.21818906658260
C           10.90475754576472       -2.40791089672670       -0.13765142597989
C           11.64334000149657       -1.17185017331155       -0.17313728900752
N           12.97356380111350       -1.40974732474806       -0.25841679404125
H            9.97237187296607        0.13420107068999       -0.13450862051642
H           10.01389298927792        2.73481731823319        0.04008378501789
H           11.87763530941579        4.54960779027330        0.32870046801106
H           14.96231457081745        4.78665756947117        2.69298247619303
H           15.02577021391995        7.22760120935396        3.01454540206089
H           14.46373203727197        9.77206166076929        0.26880652423999
H           14.18129775451456        7.79266767595850       -1.15843408525725
H           14.12552072674373        5.35458156857060       -1.47567468767398
H           17.22385830251467        4.40327134821042        0.88491440252784
H           19.05435597240930        2.53682855579458        0.69383243339947
H           18.77289079150101       -2.47485960543787       -1.14512364139955
H           16.83532185050732       -4.31236341553201       -1.39022781525337
H           13.26348639617100       -5.04774135157104       -2.44946702524578
H           13.30625312688090       -7.49914461807210       -2.58361679797566
H           13.89211080059780       -9.70230092111554       -1.65823532258474
H           15.36283547980501       -7.67237600618950        1.17859890442604
H           15.32284409331120       -5.21681084227692        1.31266821351823
H           11.58363410975155       -4.47346515315313       -0.20389068734585
H            9.83664679228614       -2.51255221357572       -0.03820339287092
Ni          30.70339931815584       -0.00364173557991       -0.02442330938114
C           34.08170549275825       -0.06566238815735       -0.12852023922528
C           33.39865995361117       -1.26037442397566       -0.19818730280714
C           34.05792309064388       -2.54060911822766       -0.29452433713023
C           33.09332471694671       -3.48362982405715       -0.28157296043396
C           31.82217465848947       -2.79540560890345       -0.18371339751434
N           32.03424030454980       -1.43162235738727       -0.12613550880515
C           30.59671859599113       -3.44003551855407       -0.09546702327340
C           30.58538969228890       -4.93305780854571       -0.11788331528831
C           30.33838169824296       -5.65498336470738        1.05260047426236
C           30.30900666829624       -7.03718859302862        1.03659796672255
C           30.52837411560530       -7.74139203599159       -0.15343228537377
C           30.48538573718691       -9.21933538808607       -0.14363134128505
O           30.26459632866161       -9.86760699745080        0.83654738696390
C           30.78464661862530       -7.01919227046950       -1.32325743056613
C           30.81729527197552       -5.63512451208351       -1.30491748794516
C           29.37241456837253       -2.76921486451515        0.02542179694309
C           28.09801277992285       -3.42595804178804        0.17723671012878
C           27.14960416559320       -2.45529358298945        0.22011557314874
N           29.20346432490294       -1.42260225865445       -0.01882830249069
C           27.83480344097337       -1.20111778480205        0.08645444348130
C           27.22138819176318        0.04446851050998       -0.01560032198753
C           27.98661664164523        1.24437647478058       -0.16892152852598
C           27.40374784734769        2.47499506546190       -0.53132584626200
C           28.39107610637073        3.42028035154396       -0.51689904575935
C           29.59111157212963        2.77725451278234       -0.14476987213838
N           29.35477895868154        1.41413841410295        0.01907605776543
C           30.81839832192329        3.47481235153928        0.02413545829004
C           30.82410402134762        4.97122034909428        0.14225932930281
C           31.41426521305013        5.79174393937506       -0.83033504610445
C           31.39278202762066        7.17293630194045       -0.70903002023076
C           30.79910577032494        7.78433369925344        0.39991426170495
C           30.74735631473156        9.25618826336795        0.54897047358760
O           30.20558466769541        9.80992705357878        1.46001255727808
C           30.23522261550127        6.96792774436665        1.38749852339934
C           30.25014075354061        5.58959278896457        1.25993919669990
C           32.02666181628999        2.81470247359419        0.08587604626900
C           33.32795305451492        3.41067311048119        0.27029927992656
C           34.23288287106803        2.40259405867606        0.20662547704251
C           33.49429463166554        1.18419402048546       -0.00452461581019
N           32.16408590820889        1.43183573035106       -0.05506828087603
H           35.16523377410761       -0.11407767283302       -0.15228072615545
H           35.12367885562514       -2.71304375508150       -0.34981181259269
H           33.25995027230245       -4.55042512588372       -0.32257295556919
H           30.17528825717326       -5.12174183546497        1.98385926151843
H           30.11185801175141       -7.58358897247539        1.95452715840418
H           30.67388414937137       -9.71111630085350       -1.12557262802848
H           30.95632650106737       -7.54862542964558       -2.25637586188027
H           31.01208182131318       -5.09022565076056       -2.22319379249952
H           27.91371492336673       -4.48469561179921        0.24877717313258
H           26.08304019756793       -2.61021554248434        0.32550378077771
H           26.36485301955400        2.61212977401406       -0.78094820832184
H           28.30226818756255        4.46598682180919       -0.76203523734721
H           31.87413315234329        5.34474337127098       -1.70570146626790
H           31.83136354134542        7.79026674621640       -1.48938666390347
H           31.24550486952822        9.83918070394635       -0.25968918825245
H           29.77478023941867        7.42596059521335        2.25915814233266
H           29.81477670250634        4.97632800556062        2.04216673009543
H           33.55400331329295        4.45653671255713        0.43521281312813
H           35.30099011060170        2.49200116783581        0.31996226529915
C           23.18815444064628        0.00493363078369        0.00687644940035
C           21.94802411417362       -0.01466043744811        0.00153437996028
C           20.58383994441625       -0.02623658900268       -0.01634346476852
C           19.34939247933703       -0.05273796833020       -0.01259806899827
C           24.55369455159230        0.01862420010646        0.00274496397776
C           25.78743145145394        0.05773281566140       -0.00263823880146
126
 energy: -229.283408464176 gnorm: 0.038044248085 xtb: 6.5.1 (b24c23e)
Ni          14.45250782524996        0.00927777131529       -0.04821975628900
C           11.06151379900212        0.08142970314681       -0.11012308480831