270
 energy: -527.743018070866 gnorm: 0.000706157367 xtb: 6.5.1 (b24c23e)
Zn          42.17874568202946       -0.00518557085444       -0.04991533598117
C           38.77273739051637        0.04550623059646       -0.19343974729706
C           39.40791811244362        1.28008799031835       -0.13413798817902
C           38.73876233481990        2.55003177104592       -0.09029564426892
C           39.70090877336237        3.50358542860083       -0.02140781946836
C           40.97144678383132        2.82780446982913       -0.03258308339144
N           40.75790280505279        1.48158036980714       -0.09290274438252
C           42.22446571869313        3.44973867190092        0.03437967812251
C           42.24427589506659        4.93475237001552        0.07502352856795
C           41.72975061040584        5.67244164537314       -0.99129195962437
C           41.75265712796618        7.06176721125380       -0.95401124225010
O           41.26249402355069        7.78814065525235       -1.98852815057531
C           42.28482504554779        7.71888122181186        0.15634915806577
O           42.29115255492384        9.08950432087508        0.16683427245630
C           42.79510086889170        6.98257738287185        1.22231790904668
O           43.29680048428595        7.69708562263588        2.27883486825405
C           42.78039509398040        5.59381730617292        1.18463658336128
C           43.45941661631170        2.79292566592941        0.06403825067372
C           44.74312315522971        3.43842949273798        0.07286131608805
C           45.68389056223256        2.45971706924521        0.08301378439077
N           43.64598210411247        1.43578902436161        0.05801701058704
C           44.98615399160207        1.20781620563533        0.07354506641980
C           45.61082856609470       -0.05641563511486        0.06788546277527
C           44.95061490334187       -1.30159873442152        0.03381879194676
C           45.61250336200678       -2.57302802508557        0.01169214380863
C           44.64478373959098       -3.52339105435800       -0.03929441676732
C           43.38005527470512       -2.84112154903048       -0.04296033055830
N           43.60473497475311       -1.49013907355876       -0.00191434538047
C           42.12820558177197       -3.46015377144563       -0.11699343227075
C           42.10504653568614       -4.94591096894576       -0.14524792231658
C           42.58246377372532       -5.67575112288775        0.94322442397135
C           42.55485343533130       -7.06531894393659        0.91734744921827
O           43.00764524946151       -7.78458074632323        1.97355249854314
C           42.05673484121558       -7.73007591460938       -0.20424373542709
O           42.04576508979512       -9.10086978452780       -0.20355674405184
C           41.58431632924532       -7.00129771876155       -1.29244806169194
O           41.11489266394816       -7.72303735735592       -2.35911586723686
C           41.60208727459597       -5.61226681120169       -1.26576765847056
C           40.89352525663566       -2.80108150093521       -0.17000723800163
C           39.60529514980490       -3.44135279319259       -0.20499916841175
C           38.66967898618937       -2.45923688623043       -0.23078151989401
C           39.37330880208069       -1.20781183039094       -0.20258105774873
N           40.71687875655144       -1.44841396196405       -0.16471802710853
H           37.68759618101527        0.06151448866113       -0.22416847990417
H           37.66822922848402        2.68268045334791       -0.10351016110041
H           39.56663411776177        4.57150597872251        0.04228895926203
H           41.32782522612698        5.17324408156556       -1.86351621136181
H           41.36958050941841        8.73012367735877       -1.77656672911860
H           42.69336712643631        9.37938361611113        1.00105501263159
H           43.63149512317420        7.10541471434866        2.96536488281220
H           43.16741943069790        5.02731617590447        2.02356211002372
H           44.90349641040051        4.50449735797545        0.05735029017564
H           46.75676622138864        2.56878143460677        0.08958953679133
H           46.68173685614584       -2.71246043688262        0.02820538532869
H           44.77370037622419       -4.59287092076216       -0.08232202451214
H           42.95974886472981       -5.17015134850518        1.82272603839302
H           42.90556549765921       -8.72797071100966        1.76547959504234
H           41.67298159668558       -9.39623921161973       -1.04941183809036
H           40.81278129266107       -7.13568705168705       -3.06418212489835
H           41.24388089434498       -5.05149008409199       -2.12117124948360
H           39.44155889027119       -4.50719956219166       -0.19752532325792
H           37.59606618269736       -2.56177645331394       -0.25839826655461
Zn          98.02158617133271       -0.04839042822240       -0.03282182107577
C          101.42527976354502       -0.07909088028331       -0.22612789481610
C          100.79031089605982       -1.31302243876860       -0.29900792061614
C          101.45958855298275       -2.57892772048985       -0.40768012188331
C          100.49807349258022       -3.53520582655052       -0.43561499421845
C           99.22762693259050       -2.86395333756212       -0.35482266249010
N           99.44085992206031       -1.51940498522262       -0.26405050058205
C           97.97518035784897       -3.49086957964977       -0.34491335694570
C           97.95565944519100       -4.97035442479389       -0.47726734847460
C           98.46560863394308       -5.57836524584518       -1.62466043423062
C           98.44429067811797       -6.96257191305613       -1.74931625867567
O           98.93097957908262       -7.56283698549661       -2.86331462366391
C           97.91735375880302       -7.74526467188603       -0.72091138411050
O           97.91215407416109       -9.10787053040266       -0.87003571309057
C           97.41102020919988       -7.13874951789219        0.42561485008151
O           96.91392699777003       -7.97209187358535        1.39369010542014
C           97.42507452807644       -5.75509959719664        0.55027817687415
C           96.74099945667274       -2.84289698379912       -0.22401485594331
C           95.45691033649872       -3.48579614171057       -0.27447533328278
C           94.51715645959762       -2.51557929237820       -0.13821598394140
N           96.55542525179396       -1.49440441104887       -0.06972182852079
C           95.21569834971666       -1.27062722549871       -0.01090071893702
C           94.59195106418692       -0.01461002829748        0.13718349692046
C           95.25226158779094        1.22697988357172        0.23645834637672
C           94.59044874608807        2.49199752783967        0.36598943363150
C           95.55756375690957        3.44332553433185        0.40834889100192
C           96.82207882045212        2.76743753617605        0.31163602927355
N           96.59761627439322        1.42000514664220        0.20429278488400
C           98.07303808953242        3.39247720454372        0.29048390253844
C           98.09666193703055        4.87198608225042        0.42710464396895
C           97.62509690608545        5.47722854961986        1.59194077247177
C           97.65291030439182        6.86118021121182        1.71945157836143
O           97.20513779651435        7.45916122692494        2.85067125022510
C           98.14624570097966        7.64585253186022        0.67592521489830
O           98.15809785018057        9.00803900016758        0.82814355655264
C           98.61331773777040        7.04172689204559       -0.48831663394270
O           99.07881225633609        7.87675681669895       -1.47065011071991
C           98.59445914929883        5.65830961956030       -0.61536731916383
C           99.30669080790908        2.74460031386010        0.14754603238545
C          100.59483028166730        3.38568258720799        0.16920931015695
C          101.52941754543814        2.41363173891200        0.01994543822662
C          100.82539804642759        1.16661186635978       -0.08518418712503
N           99.48256307739561        1.40023174867152       -0.00279246867780
H          102.50992159123282       -0.09053008478874       -0.27262621015841
H          102.52984247961820       -2.70805224723445       -0.44889643458792
H          100.63318229035039       -4.60329002267985       -0.49443963479729
H           98.86286135404623       -4.98051669057114       -2.43478009699513
H           98.82573088901034       -8.52323556257877       -2.76207400840002
H           97.51318079457741       -9.49318108960734       -0.07375336845250
H           96.58036539051945       -7.46451504607189        2.14503170735104
H           97.04199488664457       -5.29092340874877        1.45155775161481
H           95.29521491402566       -4.54277365501837       -0.41267261349102
H           93.44435643304834       -2.62530505396720       -0.13096341908489
H           93.52158325484224        2.62740425923817        0.41227228693159
H           95.42790171173054        4.51070809817079        0.48629524980475
H           97.25237462608598        4.87767962664277        2.41237913059921
H           97.30491593872519        8.41991873034756        2.74715992397668
H           98.52625900428487        9.39537193743679        0.01813473741351
H           99.37741260149124        7.37080793114751       -2.23761460494145
H           98.94769755990681        5.19561977842705       -1.52951149664392
H          100.75970059741812        4.44376383385595        0.29626957877068
H          102.60265092563318        2.51957820213611       -0.00955385173116
C           47.01519932183547       -0.07409644924856        0.07984507687576
C           48.24017735856489       -0.07969620227793        0.07828659983259
C           49.58228701526689       -0.08638858675731        0.06754684414567
C           50.81321387726509       -0.08358737498949        0.04928085305469
C           52.15041686502089       -0.07661047857806        0.02801365877351
C           53.38121527723388       -0.06798708617884        0.00166725753431
C           54.72294956750482       -0.06096163901261       -0.02273222149027
C           55.94791935218404       -0.05253838654166       -0.04389342274783
C           65.63495669047539       -0.02292422221731       -0.00941764592226
C           66.86021216899104       -0.02275314282718       -0.00559118909537
C           68.20199243928907       -0.02174763586376       -0.00323547275928
C           69.43320573575335       -0.02051038256708       -0.01010450410065
C           70.77031696446656       -0.01855625337101       -0.01214692349683
C           72.00154112217260       -0.01813672703680       -0.01932237204052
C           73.34328652597532       -0.01783997407883       -0.02735303970906
C           74.56855079037665       -0.01607123936324       -0.03272015569566
C           84.25535586643272        0.00081079175937        0.04643696524140
C           85.48014789555641        0.00290608780607        0.07702789432911
C           86.82170440754173        0.00604413336273        0.11092114660020
C           88.05252473143550        0.00895073628231        0.13731449202448
C           89.38970386266013        0.01145824510775        0.16129528784188
C           90.62066334380229        0.01219746533720        0.17695443370638
C           91.96283570667688        0.00762136654636        0.17853957508700
C           93.18777170935576        0.00091591672410        0.16729117334648
Zn          60.79200745468751       -0.03581356653345       -0.05185783539845
C           57.35174589114761       -0.04635627200186       -0.05723500917521
C           57.99211408247898        1.20588163021700        0.04686352596522
C           57.31048214773429        2.45817834268037        0.18520525122712
C           58.26350225082533        3.42372364521583        0.24709196335108
C           59.53694343082570        2.76901650720545        0.13965903921738
N           59.33481653278396        1.41912354709909        0.02709274583407
C           60.78075842461237        3.40970062458358        0.17241159704834
C           60.77440790011545        4.89218161007109        0.26372316378966
C           61.33636461625017        5.53278986481404        1.36838000742449
C           61.33232601093444        6.92139106888133        1.47017563803822
O           61.86676393507594        7.55577095132599        2.54645747397858
C           60.76783916066880        7.69028066706967        0.44740755117634
O           60.75335401229476        9.04724164514674        0.51446291782612
C           60.21180280823069        7.04141125636099       -0.65811290186274
O           59.67987239786707        7.85290407074627       -1.62736261768565
C           60.20492362977301        5.65693581749858       -0.75584970973156
C           62.02881100931106        2.77880119147826        0.12804742143576
C           63.29863635514343        3.44928569613548        0.11503770589390
C           64.25765103369586        2.48923129618885        0.06380917497203
N           62.23938120540701        1.42657354249025        0.06880437569482
C           63.58342381854668        1.22550985105210        0.03460948311301
C           64.23125787294235       -0.02612660397133       -0.02033983603672
C           63.59073043181255       -1.28028811352269       -0.09033640735200
C           64.27170501947906       -2.54080562577231       -0.11569005941276
C           63.31905950685428       -3.50473533994359       -0.19590453223843
C           62.04626234815790       -2.84013206442369       -0.22862036364547
N           62.24847156457496       -1.48760427638886       -0.15229002121164
C           60.80295280101846       -3.47680420401860       -0.30369158219861
C           60.80767463835984       -4.95855922177388       -0.41940500670050
C           61.39271997602606       -5.56788500740645       -1.52989385725508
C           61.38280317466280       -6.95302254798821       -1.64669718225732
O           61.93253163901836       -7.55761672503347       -2.72639508594214
C           60.79279861328002       -7.72939238459238       -0.64755724243311
O           60.80774193026011       -9.11004132859651       -0.79730573726715
C           60.24248854828136       -7.12372509428040        0.48044061872072
O           59.69830835327578       -7.88201141898535        1.47456691393820
C           60.23336797859917       -5.73733658909522        0.58559485047619
C           59.55486746564209       -2.84489989073444       -0.27896503456978
C           58.28590837312705       -3.50674344030884       -0.39831466588405
C           57.32656477594230       -2.54872024984349       -0.32507975315858
C           57.99977751992419       -1.29324512291470       -0.17226869983252
N           59.34388830052526       -1.49762963344298       -0.15390188466718
H           56.23971546914396        2.57619870186363        0.23499492774346
H           58.11770421841084        4.48504982262249        0.36830497596104
H           61.76571683934521        4.94588546355214        2.17261897687767
H           62.22292154545908        6.92216835343163        3.18295682534580
H           60.32173397674450        9.38525432916283       -0.28669151452659
H           59.31790455980966        7.32915355852174       -2.35380104268861
H           59.77789360797577        5.17778962228437       -1.62905233261889
H           63.43803421327108        4.51822566465514        0.13062004626909
H           65.32797199190567        2.61863252668517        0.03941608504980
H           65.34192334933324       -2.66512195175076       -0.07063729235590
H           63.46371326165384       -4.57274523723509       -0.21935159439627
H           61.83422255171769       -4.97245928505142       -2.31854813649131
H           61.83278378381504       -8.51867921207899       -2.62037643517662
H           59.94239690093892       -9.48616140170177       -0.58972854680857
H           59.99583398389155       -8.79953688702748        1.39353454253304
H           59.80259833501121       -5.27650030003591        1.46505652307796
H           58.14748633175120       -4.56760402606969       -0.53111274907081
H           56.25667406381054       -2.67313553247510       -0.37750417654214
Zn          79.41252152715391       -0.00619250982162       -0.02676137087170
C           75.97224423784914       -0.01307715781204       -0.03653055226156
C           76.61396692886842        1.23851302878690        0.06905727847640
C           75.93343022907735        2.49132575146427        0.20854958594173
C           76.88729668979914        3.45591815862063        0.27105293177406
C           78.16019252655309        2.80027861668183        0.16204437150140
N           77.95670512850309        1.45037650863373        0.04960863569415
C           79.40452640508697        3.43978414201669        0.19156191752732
C           79.40021576408570        4.92229907787705        0.27878978826604
C           79.97336016563352        5.56585644172628        1.37605367787507
C           79.97309211152040        6.95478766082277        1.47287020169456
O           80.51901072330298        7.59183106540315        2.54178064768970
C           79.40059877804342        7.72123545327458        0.45272209765769
O           79.39028432034500        9.07841101786914        0.51462217293193
C           78.83220069695662        7.06951746608409       -0.64484796002153
O           78.29210430234164        7.87861192568776       -1.61150935089920
C           78.82207130799141        5.68476293953656       -0.73774876951202
C           80.65207838947158        2.80707021015135        0.14753974181267
C           81.92266172717086        3.47590632700715        0.13163788605824
C           82.88064944684066        2.51437649039037        0.08804466121801
N           80.86101195006610        1.45444553654584        0.09486472187227
C           82.20501173700409        1.25143979848730        0.06458997884039
C           82.85171802522608       -0.00110453392957        0.01715106993259
C           82.21030598743194       -1.25425235332489       -0.05956395509427
C           82.88975942665432       -2.51541851929698       -0.09090571806708
C           81.93607622922997       -3.47774397496232       -0.17840021163039
C           80.66414400187733       -2.81142011068231       -0.20751810718749
N           80.86771171355836       -1.45972787814946       -0.12477236768465
C           79.41993670556397       -3.44673979439392       -0.28178326037349
C           79.42356015162322       -4.92834188794028       -0.40257448109821
C           79.99629922263826       -5.53268322067461       -1.52199105413450
C           79.98541475974694       -6.91750061960907       -1.64435998776734
O           80.52355254672737       -7.51747652189964       -2.73228816415876
C           79.40661746234207       -7.69764736725851       -0.64184872108540
O           79.42115808904170       -9.07888166763163       -0.79348760909173
C           78.86909997473923       -7.09679615362947        0.49505801957137
O           78.33831102894187       -7.86078384908101        1.49118907271971
C           78.86073707604638       -5.71085842069966        0.60603380667058
C           78.17261405241651       -2.81432809114479       -0.25274972728161
C           76.90282858477356       -3.47542287423900       -0.36793372947562
C           75.94445972602274       -2.51641169424120       -0.29585656883769
C           76.61906918237699       -1.26102506486398       -0.14723621619672
N           77.96281948131244       -1.46648999098997       -0.12928302746180
H           74.86282438508231        2.61034822779478        0.25922665082428
H           76.74232619392468        4.51711695786990        0.39424417037982
H           80.40884615155939        4.98112925848143        2.17857309664389
H           80.88201165021862        6.95978480600556        3.17595148851473
H           78.95080812621495        9.41442863415983       -0.28310502794617
H           77.92285866397594        7.35318602807333       -2.33307616234136
H           78.38617977598024        5.20342132013210       -1.60535321736118
H           82.06362111046079        4.54470073957296        0.13986367525145
H           83.95110700180818        2.64257423569873        0.06384887866582
H           83.95984714536330       -2.64098940061773       -0.04603526948014
H           82.07925584558292       -4.54576488929705       -0.20957015063144
H           80.42939597297398       -4.93380752007803       -2.31268768150572
H           80.43054875225877       -8.47927654787722       -2.62633594996390
H           78.54610137166637       -9.45184270691671       -0.62418476022813
H           78.62635883046165       -8.77972716697082        1.39055110166703
H           78.43978776423192       -5.25321808106587        1.49190223322578
H           76.76355761687363       -4.53668058846414       -0.49679261415478
H           74.87434546392132       -2.63999802751596       -0.34580292802325
