      -----------------------------------------------------------      
     |                   =====================                   |     
     |                           x T B                           |     
     |                   =====================                   |     
     |                         S. Grimme                         |     
     |          Mulliken Center for Theoretical Chemistry        |     
     |                    University of Bonn                     |     
      -----------------------------------------------------------      

   * xtb version 6.5.1 (b24c23e) compiled by 'conda@728c89f4b128' on 2022-07-12

   xtb is free software: you can redistribute it and/or modify it under
   the terms of the GNU Lesser General Public License as published by
   the Free Software Foundation, either version 3 of the License, or
   (at your option) any later version.
   
   xtb is distributed in the hope that it will be useful,
   but WITHOUT ANY WARRANTY; without even the implied warranty of
   MERCHANTABILITY or FITNESS FOR A PARTICULAR PURPOSE.  See the
   GNU Lesser General Public License for more details.
   
   Cite this work as:
   * C. Bannwarth, E. Caldeweyher, S. Ehlert, A. Hansen, P. Pracht,
     J. Seibert, S. Spicher, S. Grimme, WIREs Comput. Mol. Sci., 2020, 11,
     e01493. DOI: 10.1002/wcms.1493
   
   for GFN2-xTB:
   * C. Bannwarth, S. Ehlert and S. Grimme., J. Chem. Theory Comput., 2019,
     15, 1652-1671. DOI: 10.1021/acs.jctc.8b01176
   for GFN1-xTB:
   * S. Grimme, C. Bannwarth, P. Shushkov, J. Chem. Theory Comput., 2017,
     13, 1989-2009. DOI: 10.1021/acs.jctc.7b00118
   for GFN0-xTB:
   * P. Pracht, E. Caldeweyher, S. Ehlert, S. Grimme, ChemRxiv, 2019, preprint.
     DOI: 10.26434/chemrxiv.8326202.v1
   for GFN-FF:
   * S. Spicher and S. Grimme, Angew. Chem. Int. Ed., 2020, 59, 15665-15673.
     DOI: 10.1002/anie.202004239
   
   for ALPB and GBSA implicit solvation:
   * S. Ehlert, M. Stahn, S. Spicher, S. Grimme, J. Chem. Theory Comput.,
     2021, 17, 4250-4261. DOI: 10.1021/acs.jctc.1c00471
   
   for DFT-D4:
   * E. Caldeweyher, C. Bannwarth and S. Grimme, J. Chem. Phys., 2017,
     147, 034112. DOI: 10.1063/1.4993215
   * E. Caldeweyher, S. Ehlert, A. Hansen, H. Neugebauer, S. Spicher,
     C. Bannwarth and S. Grimme, J. Chem. Phys., 2019, 150, 154122.
     DOI: 10.1063/1.5090222
   * E. Caldeweyher, J.-M. Mewes, S. Ehlert and S. Grimme, Phys. Chem. Chem. Phys.
     2020, 22, 8499-8512. DOI: 10.1039/D0CP00502A
   
   for sTDA-xTB:
   * S. Grimme and C. Bannwarth, J. Chem. Phys., 2016, 145, 054103.
     DOI: 10.1063/1.4959605
   
   in the mass-spec context:
   * V. Asgeirsson, C. Bauer and S. Grimme, Chem. Sci., 2017, 8, 4879.
     DOI: 10.1039/c7sc00601b
   * J. Koopman and S. Grimme, ACS Omega 2019, 4, 12, 15120-15133.
     DOI: 10.1021/acsomega.9b02011
   
   for metadynamics refer to:
   * S. Grimme, J. Chem. Theory Comput., 2019, 155, 2847-2862
     DOI: 10.1021/acs.jctc.9b00143
   
   for SPH calculations refer to:
   * S. Spicher and S. Grimme, J. Chem. Theory Comput., 2021, 17, 1701-1714
     DOI: 10.1021/acs.jctc.0c01306
   
   with help from (in alphabetical order)
   P. Atkinson, C. Bannwarth, F. Bohle, G. Brandenburg, E. Caldeweyher
   M. Checinski, S. Dohm, S. Ehlert, S. Ehrlich, I. Gerasimov, C. Hölzer
   A. Katbashev, J. Koopman, C. Lavigne, S. Lehtola, F. März, M. Müller,
   F. Musil, H. Neugebauer, J. Pisarek, C. Plett, P. Pracht, F. Pultar,
   J. Seibert, P. Shushkov, S. Spicher, M. Stahn, M. Steiner, T. Strunk,
   J. Stückrath, T. Rose, and J. Unsleber
   
 * started run on 2022/07/27 at 23:08:12.396     

           -------------------------------------------------
          |                Calculation Setup                |
           -------------------------------------------------

          program call               : xtb xtbopt.xyz --gfn 1 --vipea
          hostname                   : cx3-5-14.cx3.hpc.ic.ac.uk
          coordinate file            : xtbopt.xyz
          omp threads                :                     1

   ID    Z sym.   atoms
    1    6 C      1-5, 7-11, 14-19, 21-26, 28-34, 37-41, 64-68, 70-74, 77-82,
                  84-89, 91-97, 100-104, 127-167, 169-173, 176-181, 183-188,
                  190-196, 199-203, 225-229, 231-235, 238-243, 245-250,
                  252-258, 261-265, 287-291, 293-297, 300-305, 307-312,
                  314-320, 323-327, 349-353, 355-359, 362-367, 369-374,
                  376-382, 385-389, 411-415, 417-421, 424-429, 431-436,
                  438-444, 447-451
    2    7 N      6, 20, 27, 42, 69, 83, 90, 105, 168, 182, 189, 204, 230,
                  244, 251, 266, 292, 306, 313, 328, 354, 368, 375, 390, 416,
                  430, 437, 452
    3    8 O      12, 13, 35, 36, 75, 76, 98, 99, 174, 175, 197, 198, 236,
                  237, 259, 260, 298, 299, 321, 322, 360, 361, 383, 384, 422,
                  423, 445, 446
    4    1 H      43-63, 106-126, 205-224, 267-286, 329-348, 391-410, 453-472

           -------------------------------------------------
          |                 I P E A - x T B                 |
           -------------------------------------------------

        Reference                      10.1039/c7sc00601b
      * Hamiltonian:
        H0-scaling (s, p, d)           2.150000    2.300000    2.000000
        zeta-weighting                 0.000000
      * Dispersion:
        s8                             2.400000
        a1                             0.630000
        a2                             5.000000
        s9                             0.000000
      * Repulsion:
        kExp                           1.500000
        rExp                           1.000000
      * Coulomb:
        alpha                          1.000000
        third order                    atomic
        anisotropic                    false
      * Halogen bond correction:
        rad-scale                      1.300000
        damping                        0.440000


          ...................................................
          :                      SETUP                      :
          :.................................................:
          :  # basis functions                1934          :
          :  # atomic orbitals                1934          :
          :  # shells                         1274          :
          :  # electrons                      1546          :
          :  # halogen bonds                     0          :
          :  max. iterations                   250          :
          :  Hamiltonian                  GFN1-xTB          :
          :  restarted?                      false          :
          :  GBSA solvation                  false          :
          :  PC potential                    false          :
          :  electronic temp.          300.0000000     K    :
          :  accuracy                    1.0000000          :
          :  -> integral cutoff          0.2500000E+02      :
          :  -> integral neglect         0.1000000E-07      :
          :  -> SCF convergence          0.1000000E-05 Eh   :
          :  -> wf. convergence          0.2000000E-04 e    :
          :  Broyden damping             0.4000000          :
          ...................................................

 iter      E             dE          RMSdq      gap      omega  full diag
   1   -992.0847358 -0.992085E+03  0.102E+01    0.57       0.0  T
   2   -993.2401529 -0.115542E+01  0.630E+00    1.12       1.0  T
   3   -978.6038224  0.146363E+02  0.479E+00    0.19       1.0  T
   4   -996.3356750 -0.177319E+02  0.116E+00    1.08       1.0  T
   5   -997.7743177 -0.143864E+01  0.286E-01    0.92       1.0  T
   6   -997.8583136 -0.839959E-01  0.112E-01    0.94       1.0  T
   7   -997.8678595 -0.954590E-02  0.539E-02    0.93       1.0  T
   8   -997.8696015 -0.174200E-02  0.323E-02    0.92       1.0  T
   9   -997.8698422 -0.240690E-03  0.234E-02    0.93       1.0  T
  10   -997.8702411 -0.398912E-03  0.588E-03    0.93       1.0  T
  11   -997.8702663 -0.251973E-04  0.234E-03    0.93       2.0  T
  12   -997.8702697 -0.345149E-05  0.135E-03    0.93       3.4  T
  13   -997.8702713 -0.157036E-05  0.536E-04    0.93       8.6  T
  14   -997.8702715 -0.190853E-06  0.226E-04    0.93      20.4  T
  15   -997.8702715 -0.308313E-07  0.118E-04    0.93      38.9  T
  16   -997.8702715 -0.125486E-07  0.524E-05    0.93      87.9  T

   *** convergence criteria satisfied after 16 iterations ***

         #    Occupation            Energy/Eh            Energy/eV
      -------------------------------------------------------------
         1        2.0000           -1.0638945             -28.9500
       ...           ...                  ...                  ...
       767        2.0000           -0.3899161             -10.6102
       768        2.0000           -0.3867764             -10.5247
       769        2.0000           -0.3830212             -10.4225
       770        2.0000           -0.3787818             -10.3072
       771        2.0000           -0.3743789             -10.1874
       772        2.0000           -0.3703968             -10.0790
       773        2.0000           -0.3678399             -10.0094 (HOMO)
       774                         -0.3338237              -9.0838 (LUMO)
       775                         -0.3300808              -8.9820
       776                         -0.3254601              -8.8562
       777                         -0.3205827              -8.7235
       778                         -0.3162076              -8.6044
       ...                                ...                  ...
      1934                        559.9388572           15236.7118
      -------------------------------------------------------------
                  HL-Gap            0.0340162 Eh            0.9256 eV
             Fermi-level           -0.3508094 Eh           -9.5460 eV

 SCC (total)                   0 d,  0 h,  0 min, 36.272 sec
 SCC setup                      ...        0 min,  0.024 sec (  0.066%)
 Dispersion                     ...        0 min,  0.027 sec (  0.073%)
 classical contributions        ...        0 min,  0.007 sec (  0.018%)
 integral evaluation            ...        0 min,  1.621 sec (  4.468%)
 iterations                     ...        0 min, 31.311 sec ( 86.324%)
 molecular gradient             ...        0 min,  2.910 sec (  8.022%)
 printout                       ...        0 min,  0.373 sec (  1.028%)

         :::::::::::::::::::::::::::::::::::::::::::::::::::::
         ::                     SUMMARY                     ::
         :::::::::::::::::::::::::::::::::::::::::::::::::::::
         :: total energy            -978.781913458557 Eh    ::
         :: gradient norm              0.147573121164 Eh/a0 ::
         :: HOMO-LUMO gap              0.925628570737 eV    ::
         ::.................................................::
         :: SCC energy              -997.870271526740 Eh    ::
         :: -> electrostatic           0.926477323155 Eh    ::
         :: repulsion energy          19.492244725907 Eh    ::
         :: dispersion energy         -0.403886657724 Eh    ::
         :: halogen bond corr.         0.000000000000 Eh    ::
         :: add. restraining           0.000000000000 Eh    ::
         :: total charge               0.000000001647 e     ::
         :::::::::::::::::::::::::::::::::::::::::::::::::::::

           ------------------------------------------------- 
          |        vertical delta SCC IP calculation        |
           ------------------------------------------------- 
   1   -997.4835168 -0.997484E+03  0.457E-02    0.93       0.0  T
   2   -997.4771124  0.640439E-02  0.575E-02    0.87       1.0  T
   3   -997.4815248 -0.441235E-02  0.419E-02    0.90       1.0  T
   4   -997.4850378 -0.351301E-02  0.298E-02    0.92       1.0  T
   5   -997.4872209 -0.218313E-02  0.157E-02    0.92       1.0  T
   6   -997.4875491 -0.328210E-03  0.738E-03    0.92       1.0  T
   7   -997.4875660 -0.169277E-04  0.533E-03    0.92       1.0  T
   8   -997.4876088 -0.427678E-04  0.236E-03    0.92       2.0  T
   9   -997.4876144 -0.556422E-05  0.814E-04    0.92       5.7  T
  10   -997.4876147 -0.366837E-06  0.478E-04    0.92       9.6  T
  11   -997.4876151 -0.351327E-06  0.223E-04    0.92      20.7  T
  12   -997.4876151 -0.600653E-07  0.740E-05    0.92      62.2  T
  13   -997.4876152 -0.436228E-08  0.416E-05    0.92     110.5  T
     SCC iter.                  ...        0 min, 26.265 sec
     gradient                   ...        0 min,  3.319 sec
------------------------------------------------------------------------
empirical IP shift (eV):    4.8455
delta SCC IP (eV):    5.5671
------------------------------------------------------------------------
           ------------------------------------------------- 
          |        vertical delta SCC EA calculation        |
           ------------------------------------------------- 
   1   -998.1747202 -0.998175E+03  0.808E-02    0.11       0.0  T
   2   -998.1792393 -0.451910E-02  0.720E-02    0.03       1.0  T
   3   -998.1853173 -0.607807E-02  0.436E-02    0.08       1.0  T
   4   -998.1848691  0.448233E-03  0.376E-02    0.07       1.0  T
   5   -998.1828493  0.201980E-02  0.363E-02    0.08       1.0  T
   6   -998.1866304 -0.378113E-02  0.212E-02    0.07       1.0  T
   7   -998.1880321 -0.140171E-02  0.801E-03    0.06       1.0  T
   8   -998.1880861 -0.540036E-04  0.347E-03    0.06       1.3  T
   9   -998.1880980 -0.118217E-04  0.199E-03    0.06       2.3  T
  10   -998.1881012 -0.327020E-05  0.640E-04    0.06       7.2  T
  11   -998.1881016 -0.386729E-06  0.347E-04    0.06      13.3  T
  12   -998.1881017 -0.103078E-06  0.152E-04    0.06      30.4  T
  13   -998.1881017 -0.169658E-07  0.701E-05    0.06      65.7  T
     SCC iter.                  ...        0 min, 26.704 sec
     gradient                   ...        0 min,  2.884 sec
------------------------------------------------------------------------
empirical EA shift (eV):    4.8455
delta SCC EA (eV):    3.8031
------------------------------------------------------------------------
           -------------------------------------------------
          |                Property Printout                |
           -------------------------------------------------

    * Orbital Energies and Occupations

         #    Occupation            Energy/Eh            Energy/eV
      -------------------------------------------------------------
         1        2.0000           -1.0443037             -28.4169
       ...           ...                  ...                  ...
       762        2.0000           -0.3678872             -10.0107
       763        2.0000           -0.3676952             -10.0055
       764        2.0000           -0.3665768              -9.9751
       765        2.0000           -0.3665224              -9.9736
       766        2.0000           -0.3665160              -9.9734
       767        2.0000           -0.3597747              -9.7900
       768        2.0000           -0.3586721              -9.7600
       769        2.0000           -0.3542411              -9.6394
       770        2.0000           -0.3495197              -9.5109
       771        2.0000           -0.3446625              -9.3787
       772        2.0000           -0.3398936              -9.2490
       773        2.0000           -0.3359684              -9.1422
       774        0.7476           -0.3018542              -8.2139 (HOMO)
       775        0.2469           -0.2997630              -8.1570 (LUMO)
       776        0.0054           -0.2958712              -8.0511
       777        0.0001           -0.2915460              -7.9334
       778        0.0000           -0.2886471              -7.8545
       779        0.0000           -0.2878490              -7.8328
       780        0.0000           -0.2864320              -7.7942
       781                         -0.2838341              -7.7235
       782                         -0.2829363              -7.6991
       783                         -0.2820079              -7.6738
       784                         -0.2818432              -7.6693
       785                         -0.2814128              -7.6576
       ...                                ...                  ...
      1934                        559.9701351           15237.5630
      -------------------------------------------------------------
                  HL-Gap            0.0020912 Eh            0.0569 eV
             Fermi-level           -0.3098884 Eh           -8.4325 eV

  Mulliken/CM5 charges         n(s)   n(p)   n(d)
     1C    -0.02086 -0.06169   1.089  2.932  0.000
     2C     0.06302  0.12340   1.105  2.832  0.000
     3C    -0.03359 -0.07891   1.082  2.952  0.000
     4C    -0.03219 -0.07714   1.076  2.956  0.000
     5C     0.06366  0.12766   1.101  2.836  0.000
     6N    -0.15803 -0.51101   1.312  3.846  0.000
     7C     0.00962  0.01541   1.090  2.900  0.000
     8C     0.01118  0.00271   1.086  2.902  0.000
     9C    -0.00749 -0.05665   1.082  2.926  0.000
    10C     0.00821  0.00471   1.089  2.903  0.000
    11C     0.23464  0.28962   1.194  2.571  0.000
    12O    -0.27959 -0.47619   1.680  4.600  0.000
    13O    -0.32690 -0.37677   1.628  4.698  0.000
    14C    -0.01609 -0.06775   1.088  2.928  0.000
    15C    -0.02272 -0.07835   1.087  2.936  0.000
    16C    -0.01499 -0.06830   1.083  2.932  0.000
    17C     0.06050  0.12856   1.117  2.822  0.000
    18C    -0.03626 -0.08225   1.084  2.952  0.000
    19C    -0.03641 -0.08186   1.091  2.946  0.000
    20N    -0.28367 -0.47026   1.293  3.991  0.000
    21C     0.06569  0.13655   1.130  2.804  0.000
    22C     0.01871  0.02591   1.085  2.896  0.000
    23C     0.06756  0.13250   1.110  2.823  0.000
    24C    -0.03204 -0.07648   1.080  2.952  0.000
    25C    -0.03212 -0.07708   1.075  2.957  0.000
    26C     0.06264  0.12599   1.099  2.839  0.000
    27N    -0.15580 -0.50803   1.314  3.842  0.000
    28C     0.00854  0.01435   1.091  2.901  0.000
    29C     0.01024  0.00174   1.086  2.904  0.000
    30C    -0.01455 -0.06787   1.083  2.932  0.000
    31C    -0.02149 -0.07708   1.087  2.934  0.000
    32C    -0.01382 -0.06545   1.091  2.923  0.000
    33C     0.00790  0.00439   1.089  2.903  0.000
    34C     0.23442  0.28942   1.194  2.571  0.000
    35O    -0.27780 -0.47456   1.680  4.598  0.000
    36O    -0.32930 -0.37903   1.628  4.701  0.000
    37C    -0.01005 -0.05924   1.079  2.931  0.000
    38C     0.06125  0.13064   1.120  2.818  0.000
    39C    -0.03712 -0.08311   1.086  2.951  0.000
    40C    -0.03825 -0.08464   1.092  2.946  0.000
    41C     0.06006  0.12578   1.126  2.814  0.000
    42N    -0.28638 -0.47340   1.292  3.994  0.000
    43H     0.03093  0.08994   0.969  0.000  0.000
    44H     0.04146  0.09814   0.959  0.000  0.000
    45H     0.03216  0.09086   0.968  0.000  0.000
    46H     0.16506  0.37335   0.835  0.000  0.000
    47H     0.04005  0.10253   0.960  0.000  0.000
    48H     0.24427  0.42007   0.756  0.000  0.000
    49H     0.04760  0.10884   0.952  0.000  0.000
    50H     0.03797  0.09391   0.962  0.000  0.000
    51H     0.03001  0.08784   0.970  0.000  0.000
    52H     0.02488  0.08370   0.975  0.000  0.000
    53H     0.02747  0.08550   0.973  0.000  0.000
    54H     0.03731  0.09546   0.963  0.000  0.000
    55H     0.03315  0.09192   0.967  0.000  0.000
    56H     0.16380  0.37204   0.836  0.000  0.000
    57H     0.03056  0.08841   0.969  0.000  0.000
    58H     0.03919  0.09512   0.961  0.000  0.000
    59H     0.04684  0.10732   0.953  0.000  0.000
    60H     0.24345  0.41924   0.757  0.000  0.000
    61H     0.04037  0.10373   0.960  0.000  0.000
    62H     0.02486  0.08360   0.975  0.000  0.000
    63H     0.03225  0.08868   0.968  0.000  0.000
    64C    -0.02073 -0.06156   1.089  2.932  0.000
    65C     0.06307  0.12346   1.105  2.832  0.000
    66C    -0.03351 -0.07882   1.082  2.952  0.000
    67C    -0.03208 -0.07701   1.076  2.956  0.000
    68C     0.06377  0.12777   1.101  2.836  0.000
    69N    -0.15796 -0.51095   1.312  3.846  0.000
    70C     0.00976  0.01555   1.091  2.900  0.000
    71C     0.01117  0.00270   1.086  2.902  0.000
    72C    -0.00748 -0.05662   1.082  2.926  0.000
    73C     0.00829  0.00479   1.089  2.903  0.000
    74C     0.23470  0.28969   1.194  2.571  0.000
    75O    -0.27947 -0.47607   1.680  4.599  0.000
    76O    -0.32678 -0.37664   1.628  4.698  0.000
    77C    -0.01603 -0.06769   1.088  2.928  0.000
    78C    -0.02268 -0.07831   1.087  2.936  0.000
    79C    -0.01502 -0.06833   1.083  2.932  0.000
    80C     0.06061  0.12867   1.118  2.822  0.000
    81C    -0.03612 -0.08210   1.084  2.952  0.000
    82C    -0.03627 -0.08172   1.091  2.945  0.000
    83N    -0.28354 -0.47013   1.293  3.991  0.000
    84C     0.06583  0.13670   1.130  2.804  0.000
    85C     0.01899  0.02619   1.085  2.896  0.000
    86C     0.06771  0.13264   1.110  2.823  0.000
    87C    -0.03179 -0.07623   1.080  2.952  0.000
    88C    -0.03192 -0.07687   1.075  2.957  0.000
    89C     0.06275  0.12611   1.099  2.839  0.000
    90N    -0.15571 -0.50795   1.314  3.842  0.000
    91C     0.00863  0.01444   1.091  2.901  0.000
    92C     0.01028  0.00177   1.086  2.904  0.000
    93C    -0.01446 -0.06777   1.083  2.931  0.000
    94C    -0.02142 -0.07701   1.088  2.934  0.000
    95C    -0.01382 -0.06544   1.091  2.923  0.000
    96C     0.00788  0.00438   1.089  2.903  0.000
    97C     0.23440  0.28939   1.194  2.571  0.000
    98O    -0.27783 -0.47460   1.680  4.598  0.000
    99O    -0.32941 -0.37914   1.628  4.701  0.000
   100C    -0.01006 -0.05925   1.079  2.931  0.000
   101C     0.06130  0.13070   1.120  2.818  0.000
   102C    -0.03710 -0.08308   1.086  2.951  0.000
   103C    -0.03823 -0.08462   1.092  2.946  0.000
   104C     0.06009  0.12580   1.126  2.814  0.000
   105N    -0.28629 -0.47329   1.292  3.994  0.000
   106H     0.03101  0.09002   0.969  0.000  0.000
   107H     0.04153  0.09821   0.958  0.000  0.000
   108H     0.03228  0.09097   0.968  0.000  0.000
   109H     0.16512  0.37339   0.835  0.000  0.000
   110H     0.04019  0.10266   0.960  0.000  0.000
   111H     0.24444  0.42023   0.756  0.000  0.000
   112H     0.04769  0.10893   0.952  0.000  0.000
   113H     0.03799  0.09392   0.962  0.000  0.000
   114H     0.03000  0.08781   0.970  0.000  0.000
   115H     0.02506  0.08386   0.975  0.000  0.000
   116H     0.02773  0.08577   0.972  0.000  0.000
   117H     0.03773  0.09586   0.962  0.000  0.000
   118H     0.03338  0.09215   0.967  0.000  0.000
   119H     0.16384  0.37209   0.836  0.000  0.000
   120H     0.03074  0.08858   0.969  0.000  0.000
   121H     0.03931  0.09524   0.961  0.000  0.000
   122H     0.04679  0.10726   0.953  0.000  0.000
   123H     0.24340  0.41920   0.757  0.000  0.000
   124H     0.04039  0.10373   0.960  0.000  0.000
   125H     0.02487  0.08361   0.975  0.000  0.000
   126H     0.03225  0.08868   0.968  0.000  0.000
   127C    -0.01375 -0.01385   1.077  2.937  0.000
   128C    -0.01611 -0.01621   1.075  2.941  0.000
   129C    -0.01798 -0.01874   1.062  2.956  0.000
   130C    -0.01711 -0.01874   1.091  2.926  0.000
   131C    -0.02038 -0.02111   1.060  2.960  0.000
   132C    -0.01492 -0.01649   1.094  2.921  0.000
   133C    -0.01486 -0.01496   1.076  2.939  0.000
   134C    -0.01524 -0.01534   1.076  2.940  0.000
   135C    -0.01893 -0.01966   1.061  2.958  0.000
   136C    -0.01629 -0.01786   1.092  2.925  0.000
   137C    -0.01952 -0.02025   1.061  2.959  0.000
   138C    -0.01597 -0.01754   1.092  2.924  0.000
   139C    -0.01492 -0.01502   1.076  2.939  0.000
   140C    -0.01467 -0.01477   1.076  2.939  0.000
   141C    -0.01901 -0.01974   1.061  2.958  0.000
   142C    -0.01569 -0.01726   1.092  2.923  0.000
   143C    -0.01905 -0.01979   1.061  2.958  0.000
   144C    -0.01606 -0.01763   1.092  2.924  0.000
   145C    -0.01484 -0.01494   1.076  2.939  0.000
   146C    -0.01469 -0.01479   1.076  2.939  0.000
   147C    -0.01887 -0.01961   1.061  2.958  0.000
   148C    -0.01565 -0.01722   1.092  2.923  0.000
   149C    -0.01913 -0.01986   1.061  2.958  0.000
   150C    -0.01604 -0.01761   1.092  2.924  0.000
   151C    -0.01525 -0.01535   1.076  2.940  0.000
   152C    -0.01459 -0.01469   1.076  2.939  0.000
   153C    -0.01919 -0.01993   1.061  2.958  0.000
   154C    -0.01556 -0.01713   1.093  2.923  0.000
   155C    -0.01900 -0.01973   1.061  2.958  0.000
   156C    -0.01648 -0.01805   1.092  2.925  0.000
   157C    -0.01554 -0.01565   1.075  2.941  0.000
   158C    -0.01310 -0.01320   1.077  2.936  0.000
   159C    -0.01961 -0.02035   1.060  2.959  0.000
   160C    -0.01435 -0.01593   1.094  2.921  0.000
   161C    -0.01751 -0.01827   1.062  2.956  0.000
   162C    -0.01685 -0.01847   1.091  2.926  0.000
   163C     0.01554  0.02279   1.082  2.902  0.000
   164C     0.06685  0.13175   1.110  2.824  0.000
   165C    -0.03425 -0.07869   1.079  2.956  0.000
   166C    -0.03282 -0.07774   1.075  2.958  0.000
   167C     0.06128  0.12474   1.096  2.843  0.000
   168N    -0.15533 -0.50780   1.313  3.842  0.000
   169C     0.01193  0.01763   1.092  2.896  0.000
   170C     0.01175  0.00321   1.087  2.901  0.000
   171C    -0.00722 -0.05642   1.081  2.926  0.000
   172C     0.00814  0.00463   1.089  2.903  0.000
   173C     0.23457  0.28956   1.194  2.571  0.000
   174O    -0.27979 -0.47638   1.680  4.600  0.000
   175O    -0.32708 -0.37695   1.628  4.699  0.000
   176C    -0.01608 -0.06774   1.088  2.928  0.000
   177C    -0.02249 -0.07812   1.087  2.935  0.000
   178C    -0.01431 -0.06762   1.083  2.931  0.000
   179C     0.05938  0.12737   1.116  2.825  0.000
   180C    -0.03654 -0.08254   1.085  2.952  0.000
   181C    -0.03739 -0.08285   1.090  2.947  0.000
   182N    -0.28345 -0.46967   1.292  3.991  0.000
   183C     0.06558  0.13649   1.130  2.804  0.000
   184C     0.01727  0.02452   1.084  2.899  0.000
   185C     0.06712  0.13207   1.110  2.823  0.000
   186C    -0.03338 -0.07783   1.079  2.955  0.000
   187C    -0.03251 -0.07745   1.074  2.958  0.000
   188C     0.06119  0.12459   1.097  2.842  0.000
   189N    -0.15508 -0.50754   1.313  3.842  0.000
   190C     0.01104  0.01671   1.092  2.897  0.000
   191C     0.01087  0.00228   1.086  2.903  0.000
   192C    -0.01315 -0.06656   1.085  2.928  0.000
   193C    -0.02125 -0.07685   1.088  2.934  0.000
   194C    -0.01382 -0.06545   1.091  2.923  0.000
   195C     0.00773  0.00422   1.089  2.904  0.000
   196C     0.23434  0.28933   1.194  2.571  0.000
   197O    -0.27805 -0.47478   1.680  4.598  0.000
   198O    -0.32930 -0.37904   1.628  4.701  0.000
   199C    -0.01054 -0.05968   1.077  2.934  0.000
   200C     0.05868  0.12673   1.116  2.825  0.000
   201C    -0.03785 -0.08386   1.085  2.953  0.000
   202C    -0.03872 -0.08418   1.090  2.949  0.000
   203C     0.06483  0.13566   1.130  2.805  0.000
   204N    -0.28430 -0.47054   1.292  3.992  0.000
   205H     0.03511  0.09319   0.965  0.000  0.000
   206H     0.03121  0.09002   0.969  0.000  0.000
   207H     0.16388  0.37185   0.836  0.000  0.000
   208H     0.03984  0.10232   0.960  0.000  0.000
   209H     0.24380  0.41959   0.756  0.000  0.000
   210H     0.04712  0.10836   0.953  0.000  0.000
   211H     0.03796  0.09389   0.962  0.000  0.000
   212H     0.03051  0.08836   0.969  0.000  0.000
   213H     0.02382  0.08270   0.976  0.000  0.000
   214H     0.02640  0.08442   0.974  0.000  0.000
   215H     0.03666  0.09473   0.963  0.000  0.000
   216H     0.03366  0.09258   0.966  0.000  0.000
   217H     0.16385  0.37181   0.836  0.000  0.000
   218H     0.03016  0.08803   0.970  0.000  0.000
   219H     0.03869  0.09462   0.961  0.000  0.000
   220H     0.04639  0.10685   0.954  0.000  0.000
   221H     0.24366  0.41943   0.756  0.000  0.000
   222H     0.04100  0.10436   0.959  0.000  0.000
   223H     0.02194  0.08072   0.978  0.000  0.000
   224H     0.02484  0.08285   0.975  0.000  0.000
   225C     0.01668  0.02393   1.083  2.900  0.000
   226C     0.06697  0.13190   1.110  2.823  0.000
   227C    -0.03379 -0.07824   1.079  2.955  0.000
   228C    -0.03271 -0.07764   1.075  2.958  0.000
   229C     0.06147  0.12490   1.096  2.842  0.000
   230N    -0.15507 -0.50752   1.313  3.842  0.000
   231C     0.01192  0.01762   1.092  2.896  0.000
   232C     0.01177  0.00323   1.087  2.901  0.000
   233C    -0.00719 -0.05638   1.082  2.926  0.000
   234C     0.00817  0.00466   1.089  2.903  0.000
   235C     0.23460  0.28960   1.194  2.571  0.000
   236O    -0.27979 -0.47637   1.680  4.600  0.000
   237O    -0.32703 -0.37690   1.628  4.699  0.000
   238C    -0.01608 -0.06774   1.088  2.928  0.000
   239C    -0.02251 -0.07814   1.087  2.936  0.000
   240C    -0.01431 -0.06763   1.083  2.931  0.000
   241C     0.05952  0.12751   1.116  2.824  0.000
   242C    -0.03648 -0.08248   1.085  2.952  0.000
   243C    -0.03741 -0.08288   1.090  2.947  0.000
   244N    -0.28351 -0.46971   1.292  3.991  0.000
   245C     0.06557  0.13646   1.130  2.804  0.000
   246C     0.01708  0.02433   1.083  2.899  0.000
   247C     0.06721  0.13216   1.110  2.823  0.000
   248C    -0.03337 -0.07782   1.079  2.955  0.000
   249C    -0.03233 -0.07726   1.074  2.958  0.000
   250C     0.06126  0.12467   1.097  2.842  0.000
   251N    -0.15509 -0.50755   1.313  3.842  0.000
   252C     0.01141  0.01707   1.092  2.896  0.000
   253C     0.01090  0.00230   1.086  2.903  0.000
   254C    -0.01304 -0.06645   1.085  2.928  0.000
   255C    -0.02106 -0.07666   1.088  2.933  0.000
   256C    -0.01370 -0.06533   1.091  2.923  0.000
   257C     0.00776  0.00425   1.089  2.904  0.000
   258C     0.23435  0.28934   1.194  2.571  0.000
   259O    -0.27815 -0.47489   1.680  4.598  0.000
   260O    -0.32923 -0.37897   1.628  4.701  0.000
   261C    -0.01055 -0.05969   1.077  2.934  0.000
   262C     0.05876  0.12677   1.116  2.825  0.000
   263C    -0.03770 -0.08370   1.085  2.953  0.000
   264C    -0.03835 -0.08380   1.090  2.948  0.000
   265C     0.06502  0.13591   1.130  2.805  0.000
   266N    -0.28382 -0.47003   1.292  3.992  0.000
   267H     0.03568  0.09375   0.964  0.000  0.000
   268H     0.03141  0.09022   0.969  0.000  0.000
   269H     0.16393  0.37188   0.836  0.000  0.000
   270H     0.03992  0.10240   0.960  0.000  0.000
   271H     0.24379  0.41956   0.756  0.000  0.000
   272H     0.04707  0.10831   0.953  0.000  0.000
   273H     0.03785  0.09378   0.962  0.000  0.000
   274H     0.03043  0.08828   0.970  0.000  0.000
   275H     0.02378  0.08266   0.976  0.000  0.000
   276H     0.02626  0.08429   0.974  0.000  0.000
   277H     0.03658  0.09465   0.963  0.000  0.000
   278H     0.03373  0.09264   0.966  0.000  0.000
   279H     0.16396  0.37191   0.836  0.000  0.000
   280H     0.03046  0.08831   0.970  0.000  0.000
   281H     0.03899  0.09492   0.961  0.000  0.000
   282H     0.04652  0.10699   0.953  0.000  0.000
   283H     0.24354  0.41932   0.756  0.000  0.000
   284H     0.04093  0.10429   0.959  0.000  0.000
   285H     0.02230  0.08109   0.978  0.000  0.000
   286H     0.02545  0.08347   0.975  0.000  0.000
   287C     0.01710  0.02434   1.084  2.899  0.000
   288C     0.06708  0.13201   1.110  2.823  0.000
   289C    -0.03349 -0.07793   1.079  2.954  0.000
   290C    -0.03253 -0.07746   1.075  2.958  0.000
   291C     0.06168  0.12510   1.097  2.842  0.000
   292N    -0.15500 -0.50745   1.313  3.842  0.000
   293C     0.01196  0.01766   1.092  2.896  0.000
   294C     0.01174  0.00321   1.087  2.902  0.000
   295C    -0.00720 -0.05638   1.081  2.926  0.000
   296C     0.00820  0.00469   1.089  2.903  0.000
   297C     0.23462  0.28962   1.194  2.571  0.000
   298O    -0.27974 -0.47634   1.680  4.600  0.000
   299O    -0.32701 -0.37688   1.628  4.699  0.000
   300C    -0.01603 -0.06769   1.088  2.928  0.000
   301C    -0.02246 -0.07810   1.087  2.935  0.000
   302C    -0.01430 -0.06763   1.083  2.931  0.000
   303C     0.05965  0.12765   1.116  2.824  0.000
   304C    -0.03642 -0.08242   1.085  2.952  0.000
   305C    -0.03732 -0.08279   1.090  2.947  0.000
   306N    -0.28339 -0.46958   1.292  3.991  0.000
   307C     0.06559  0.13648   1.130  2.804  0.000
   308C     0.01732  0.02456   1.084  2.899  0.000
   309C     0.06724  0.13218   1.110  2.823  0.000
   310C    -0.03324 -0.07768   1.079  2.954  0.000
   311C    -0.03223 -0.07717   1.075  2.958  0.000
   312C     0.06142  0.12483   1.097  2.842  0.000
   313N    -0.15502 -0.50747   1.313  3.842  0.000
   314C     0.01146  0.01712   1.092  2.896  0.000
   315C     0.01086  0.00227   1.086  2.903  0.000
   316C    -0.01301 -0.06642   1.085  2.928  0.000
   317C    -0.02100 -0.07661   1.088  2.933  0.000
   318C    -0.01364 -0.06527   1.091  2.923  0.000
   319C     0.00777  0.00426   1.089  2.904  0.000
   320C     0.23436  0.28935   1.194  2.571  0.000
   321O    -0.27817 -0.47491   1.680  4.598  0.000
   322O    -0.32917 -0.37891   1.628  4.701  0.000
   323C    -0.01057 -0.05971   1.077  2.934  0.000
   324C     0.05893  0.12693   1.116  2.825  0.000
   325C    -0.03756 -0.08356   1.085  2.952  0.000
   326C    -0.03812 -0.08357   1.090  2.948  0.000
   327C     0.06512  0.13601   1.130  2.805  0.000
   328N    -0.28367 -0.46989   1.292  3.991  0.000
   329H     0.03601  0.09408   0.964  0.000  0.000
   330H     0.03165  0.09046   0.968  0.000  0.000
   331H     0.16401  0.37196   0.836  0.000  0.000
   332H     0.03996  0.10244   0.960  0.000  0.000
   333H     0.24383  0.41960   0.756  0.000  0.000
   334H     0.04716  0.10841   0.953  0.000  0.000
   335H     0.03796  0.09389   0.962  0.000  0.000
   336H     0.03051  0.08835   0.969  0.000  0.000
   337H     0.02387  0.08276   0.976  0.000  0.000
   338H     0.02633  0.08436   0.974  0.000  0.000
   339H     0.03667  0.09475   0.963  0.000  0.000
   340H     0.03384  0.09276   0.966  0.000  0.000
   341H     0.16403  0.37198   0.836  0.000  0.000
   342H     0.03055  0.08841   0.969  0.000  0.000
   343H     0.03913  0.09507   0.961  0.000  0.000
   344H     0.04662  0.10708   0.953  0.000  0.000
   345H     0.24354  0.41932   0.756  0.000  0.000
   346H     0.04094  0.10430   0.959  0.000  0.000
   347H     0.02253  0.08132   0.977  0.000  0.000
   348H     0.02577  0.08379   0.974  0.000  0.000
   349C     0.01692  0.02417   1.084  2.900  0.000
   350C     0.06706  0.13200   1.110  2.823  0.000
   351C    -0.03357 -0.07801   1.079  2.955  0.000
   352C    -0.03259 -0.07752   1.075  2.958  0.000
   353C     0.06158  0.12500   1.096  2.842  0.000
   354N    -0.15505 -0.50749   1.313  3.842  0.000
   355C     0.01194  0.01764   1.092  2.896  0.000
   356C     0.01176  0.00322   1.087  2.902  0.000
   357C    -0.00720 -0.05639   1.082  2.926  0.000
   358C     0.00818  0.00466   1.089  2.903  0.000
   359C     0.23460  0.28960   1.194  2.571  0.000
   360O    -0.27976 -0.47636   1.680  4.600  0.000
   361O    -0.32709 -0.37696   1.628  4.699  0.000
   362C    -0.01604 -0.06770   1.088  2.928  0.000
   363C    -0.02246 -0.07810   1.087  2.935  0.000
   364C    -0.01429 -0.06761   1.083  2.931  0.000
   365C     0.05954  0.12755   1.116  2.824  0.000
   366C    -0.03652 -0.08252   1.085  2.952  0.000
   367C    -0.03748 -0.08295   1.090  2.947  0.000
   368N    -0.28348 -0.46967   1.292  3.991  0.000
   369C     0.06552  0.13640   1.130  2.804  0.000
   370C     0.01700  0.02425   1.083  2.900  0.000
   371C     0.06714  0.13207   1.110  2.823  0.000
   372C    -0.03348 -0.07793   1.079  2.955  0.000
   373C    -0.03240 -0.07734   1.074  2.958  0.000
   374C     0.06128  0.12469   1.097  2.842  0.000
   375N    -0.15508 -0.50753   1.313  3.842  0.000
   376C     0.01140  0.01706   1.092  2.896  0.000
   377C     0.01087  0.00229   1.086  2.903  0.000
   378C    -0.01299 -0.06641   1.085  2.928  0.000
   379C    -0.02102 -0.07662   1.088  2.933  0.000
   380C    -0.01368 -0.06530   1.091  2.923  0.000
   381C     0.00773  0.00422   1.089  2.904  0.000
   382C     0.23433  0.28932   1.194  2.571  0.000
   383O    -0.27820 -0.47494   1.680  4.598  0.000
   384O    -0.32926 -0.37900   1.628  4.701  0.000
   385C    -0.01057 -0.05972   1.077  2.934  0.000
   386C     0.05885  0.12684   1.116  2.825  0.000
   387C    -0.03761 -0.08361   1.085  2.952  0.000
   388C    -0.03816 -0.08362   1.090  2.948  0.000
   389C     0.06511  0.13600   1.130  2.805  0.000
   390N    -0.28377 -0.46998   1.292  3.991  0.000
   391H     0.03596  0.09403   0.964  0.000  0.000
   392H     0.03158  0.09040   0.968  0.000  0.000
   393H     0.16394  0.37189   0.836  0.000  0.000
   394H     0.03988  0.10236   0.960  0.000  0.000
   395H     0.24376  0.41954   0.756  0.000  0.000
   396H     0.04713  0.10837   0.953  0.000  0.000
   397H     0.03795  0.09389   0.962  0.000  0.000
   398H     0.03050  0.08835   0.969  0.000  0.000
   399H     0.02373  0.08262   0.976  0.000  0.000
   400H     0.02611  0.08414   0.974  0.000  0.000
   401H     0.03640  0.09447   0.964  0.000  0.000
   402H     0.03363  0.09256   0.966  0.000  0.000
   403H     0.16398  0.37192   0.836  0.000  0.000
   404H     0.03052  0.08839   0.969  0.000  0.000
   405H     0.03910  0.09504   0.961  0.000  0.000
   406H     0.04655  0.10701   0.953  0.000  0.000
   407H     0.24345  0.41923   0.757  0.000  0.000
   408H     0.04087  0.10424   0.959  0.000  0.000
   409H     0.02246  0.08125   0.978  0.000  0.000
   410H     0.02573  0.08375   0.974  0.000  0.000
   411C     0.01719  0.02444   1.084  2.899  0.000
   412C     0.06703  0.13197   1.110  2.823  0.000
   413C    -0.03352 -0.07796   1.079  2.954  0.000
   414C    -0.03263 -0.07757   1.075  2.958  0.000
   415C     0.06160  0.12502   1.096  2.842  0.000
   416N    -0.15497 -0.50740   1.313  3.842  0.000
   417C     0.01181  0.01751   1.092  2.896  0.000
   418C     0.01173  0.00320   1.087  2.902  0.000
   419C    -0.00728 -0.05648   1.081  2.926  0.000
   420C     0.00814  0.00463   1.089  2.903  0.000
   421C     0.23457  0.28956   1.194  2.571  0.000
   422O    -0.27967 -0.47627   1.680  4.599  0.000
   423O    -0.32740 -0.37726   1.629  4.699  0.000
   424C    -0.01599 -0.06765   1.088  2.928  0.000
   425C    -0.02238 -0.07802   1.087  2.935  0.000
   426C    -0.01423 -0.06755   1.083  2.931  0.000
   427C     0.05961  0.12766   1.116  2.824  0.000
   428C    -0.03642 -0.08243   1.085  2.952  0.000
   429C    -0.03762 -0.08309   1.090  2.948  0.000
   430N    -0.28383 -0.47001   1.292  3.992  0.000
   431C     0.06548  0.13631   1.130  2.804  0.000
   432C     0.01620  0.02344   1.083  2.901  0.000
   433C     0.06713  0.13205   1.110  2.823  0.000
   434C    -0.03379 -0.07824   1.079  2.955  0.000
   435C    -0.03246 -0.07741   1.074  2.958  0.000
   436C     0.06116  0.12459   1.096  2.842  0.000
   437N    -0.15525 -0.50771   1.313  3.842  0.000
   438C     0.01141  0.01707   1.092  2.896  0.000
   439C     0.01089  0.00230   1.086  2.903  0.000
   440C    -0.01298 -0.06640   1.085  2.928  0.000
   441C    -0.02105 -0.07665   1.088  2.933  0.000
   442C    -0.01373 -0.06536   1.091  2.923  0.000
   443C     0.00768  0.00417   1.089  2.904  0.000
   444C     0.23430  0.28928   1.194  2.571  0.000
   445O    -0.27815 -0.47491   1.680  4.598  0.000
   446O    -0.32945 -0.37917   1.628  4.701  0.000
   447C    -0.01056 -0.05973   1.077  2.934  0.000
   448C     0.05876  0.12675   1.116  2.825  0.000
   449C    -0.03767 -0.08368   1.085  2.953  0.000
   450C    -0.03814 -0.08360   1.090  2.948  0.000
   451C     0.06512  0.13602   1.130  2.805  0.000
   452N    -0.28366 -0.46988   1.292  3.991  0.000
   453H     0.03608  0.09415   0.964  0.000  0.000
   454H     0.03163  0.09044   0.968  0.000  0.000
   455H     0.16390  0.37184   0.836  0.000  0.000
   456H     0.03964  0.10213   0.960  0.000  0.000
   457H     0.24373  0.41951   0.756  0.000  0.000
   458H     0.04725  0.10849   0.953  0.000  0.000
   459H     0.03812  0.09405   0.962  0.000  0.000
   460H     0.03062  0.08847   0.969  0.000  0.000
   461H     0.02381  0.08270   0.976  0.000  0.000
   462H     0.02592  0.08394   0.974  0.000  0.000
   463H     0.03604  0.09412   0.964  0.000  0.000
   464H     0.03345  0.09239   0.967  0.000  0.000
   465H     0.16399  0.37194   0.836  0.000  0.000
   466H     0.03051  0.08839   0.969  0.000  0.000
   467H     0.03911  0.09504   0.961  0.000  0.000
   468H     0.04647  0.10692   0.954  0.000  0.000
   469H     0.24340  0.41917   0.757  0.000  0.000
   470H     0.04090  0.10429   0.959  0.000  0.000
   471H     0.02245  0.08124   0.978  0.000  0.000
   472H     0.02586  0.08388   0.974  0.000  0.000

Wiberg/Mayer (AO) data.
largest (>0.10) Wiberg bond orders for each atom

 ---------------------------------------------------------------------------
     #   Z sym  total        # sym  WBO       # sym  WBO       # sym  WBO
 ---------------------------------------------------------------------------
     1   6 C    3.816 --    41 C    1.385     2 C    1.374    43 H    0.995
     2   6 C    3.925 --     1 C    1.374     3 C    1.239     6 N    1.229
     3   6 C    3.840 --     4 C    1.600     2 C    1.239    44 H    0.992
     4   6 C    3.825 --     3 C    1.600     5 C    1.250    45 H    0.998
     5   6 C    3.899 --     7 C    1.343     4 C    1.250     6 N    1.230
     6   7 N    3.247 --     5 C    1.230     2 C    1.229    46 H    0.961
     7   6 C    3.842 --    17 C    1.370     5 C    1.343     8 C    1.048
     8   6 C    3.896 --     9 C    1.439    16 C    1.418     7 C    1.048
     9   6 C    3.850 --     8 C    1.439    10 C    1.409    47 H    0.994
    10   6 C    3.909 --     9 C    1.409    14 C    1.402    11 C    1.034
    11   6 C    4.097 --    13 O    1.822    12 O    1.211    10 C    1.034
    12   8 O    2.366 --    11 C    1.211    48 H    0.943    13 O    0.185
    13   8 O    2.035 --    11 C    1.822    12 O    0.185
    14   6 C    3.888 --    15 C    1.454    10 C    1.402    49 H    0.986
    15   6 C    3.908 --    14 C    1.454    16 C    1.445    50 H    0.981
    16   6 C    3.864 --    15 C    1.445     8 C    1.418    51 H    0.988
    17   6 C    3.925 --     7 C    1.370    20 N    1.355    18 C    1.160
    18   6 C    3.837 --    19 C    1.695    17 C    1.160    52 H    0.997
    19   6 C    3.853 --    18 C    1.695    21 C    1.164    53 H    0.999
    20   7 N    2.568 --    21 C    1.414    17 C    1.355
    21   6 C    3.943 --    20 N    1.414    22 C    1.288    19 C    1.164
    22   6 C    3.850 --    21 C    1.288    23 C    1.287   130 C    1.220
    23   6 C    3.902 --    22 C    1.287    24 C    1.266    27 N    1.250
    24   6 C    3.835 --    25 C    1.585    23 C    1.266    54 H    0.998
    25   6 C    3.817 --    24 C    1.585    26 C    1.257    55 H    0.998
    26   6 C    3.894 --    28 C    1.346    25 C    1.257    27 N    1.222
    27   7 N    3.259 --    23 C    1.250    26 C    1.222    56 H    0.960
    28   6 C    3.827 --    38 C    1.358    26 C    1.346    29 C    1.050
    29   6 C    3.895 --    37 C    1.435    30 C    1.419    28 C    1.050
    30   6 C    3.863 --    31 C    1.444    29 C    1.419    57 H    0.988
    31   6 C    3.908 --    32 C    1.456    30 C    1.444    58 H    0.981
    32   6 C    3.891 --    31 C    1.456    33 C    1.402    59 H    0.986
    33   6 C    3.909 --    37 C    1.409    32 C    1.402    34 C    1.035
    34   6 C    4.098 --    36 O    1.819    35 O    1.213    33 C    1.035
    35   8 O    2.369 --    34 C    1.213    60 H    0.942    36 O    0.184
    36   8 O    2.031 --    34 C    1.819    35 O    0.184
    37   6 C    3.846 --    29 C    1.435    33 C    1.409    61 H    0.995
    38   6 C    3.945 --    42 N    1.381    28 C    1.358    39 C    1.152
    39   6 C    3.841 --    40 C    1.709    38 C    1.152    62 H    0.998
    40   6 C    3.863 --    39 C    1.709    41 C    1.146    63 H    0.993
    41   6 C    3.968 --     1 C    1.385    42 N    1.375    40 C    1.146
    42   7 N    2.553 --    38 C    1.381    41 C    1.375
    43   1 H    1.031 --     1 C    0.995
    44   1 H    1.015 --     3 C    0.992
    45   1 H    1.031 --     4 C    0.998
    46   1 H    1.081 --     6 N    0.961
    47   1 H    1.047 --     9 C    0.994
    48   1 H    0.978 --    12 O    0.943
    49   1 H    1.016 --    14 C    0.986
    50   1 H    1.028 --    15 C    0.981
    51   1 H    1.047 --    16 C    0.988
    52   1 H    1.032 --    18 C    0.997
    53   1 H    1.031 --    19 C    0.999
    54   1 H    1.027 --    24 C    0.998
    55   1 H    1.030 --    25 C    0.998
    56   1 H    1.085 --    27 N    0.960
    57   1 H    1.047 --    30 C    0.988
    58   1 H    1.028 --    31 C    0.981
    59   1 H    1.025 --    32 C    0.986
    60   1 H    0.979 --    35 O    0.942
    61   1 H    1.038 --    37 C    0.995
    62   1 H    1.031 --    39 C    0.998
    63   1 H    1.018 --    40 C    0.993
    64   6 C    3.816 --   104 C    1.385    65 C    1.374   106 H    0.995
    65   6 C    3.925 --    64 C    1.374    66 C    1.239    69 N    1.229
    66   6 C    3.840 --    67 C    1.600    65 C    1.239   107 H    0.992
    67   6 C    3.825 --    66 C    1.600    68 C    1.249   108 H    0.998
    68   6 C    3.900 --    70 C    1.343    67 C    1.249    69 N    1.230
    69   7 N    3.248 --    68 C    1.230    65 C    1.229   109 H    0.961
    70   6 C    3.842 --    80 C    1.370    68 C    1.343    71 C    1.047
    71   6 C    3.896 --    72 C    1.439    79 C    1.419    70 C    1.047
    72   6 C    3.850 --    71 C    1.439    73 C    1.409   110 H    0.994
    73   6 C    3.909 --    72 C    1.409    77 C    1.402    74 C    1.034
    74   6 C    4.097 --    76 O    1.822    75 O    1.211    73 C    1.034
    75   8 O    2.366 --    74 C    1.211   111 H    0.942    76 O    0.185
    76   8 O    2.035 --    74 C    1.822    75 O    0.185
    77   6 C    3.888 --    78 C    1.454    73 C    1.402   112 H    0.986
    78   6 C    3.908 --    77 C    1.454    79 C    1.445   113 H    0.981
    79   6 C    3.864 --    78 C    1.445    71 C    1.419   114 H    0.988
    80   6 C    3.925 --    70 C    1.370    83 N    1.355    81 C    1.160
    81   6 C    3.837 --    82 C    1.695    80 C    1.160   115 H    0.997
    82   6 C    3.853 --    81 C    1.695    84 C    1.164   116 H    0.999
    83   7 N    2.568 --    84 C    1.414    80 C    1.355
    84   6 C    3.943 --    83 N    1.414    85 C    1.288    82 C    1.164
    85   6 C    3.851 --    84 C    1.288    86 C    1.287   162 C    1.221
    86   6 C    3.903 --    85 C    1.287    87 C    1.266    90 N    1.250
    87   6 C    3.835 --    88 C    1.586    86 C    1.266   117 H    0.998
    88   6 C    3.818 --    87 C    1.586    89 C    1.256   118 H    0.998
    89   6 C    3.895 --    91 C    1.346    88 C    1.256    90 N    1.222
    90   7 N    3.259 --    86 C    1.250    89 C    1.222   119 H    0.960
    91   6 C    3.828 --   101 C    1.358    89 C    1.346    92 C    1.049
    92   6 C    3.895 --   100 C    1.436    93 C    1.419    91 C    1.049
    93   6 C    3.864 --    94 C    1.444    92 C    1.419   120 H    0.988
    94   6 C    3.908 --    95 C    1.456    93 C    1.444   121 H    0.981
    95   6 C    3.892 --    94 C    1.456    96 C    1.402   122 H    0.986
    96   6 C    3.909 --   100 C    1.409    95 C    1.402    97 C    1.035
    97   6 C    4.098 --    99 O    1.819    98 O    1.213    96 C    1.035
    98   8 O    2.369 --    97 C    1.213   123 H    0.942    99 O    0.184
    99   8 O    2.031 --    97 C    1.819    98 O    0.184
   100   6 C    3.846 --    92 C    1.436    96 C    1.409   124 H    0.995
   101   6 C    3.945 --   105 N    1.381    91 C    1.358   102 C    1.152
   102   6 C    3.841 --   103 C    1.709   101 C    1.152   125 H    0.998
   103   6 C    3.864 --   102 C    1.709   104 C    1.146   126 H    0.993
   104   6 C    3.968 --    64 C    1.385   105 N    1.375   103 C    1.146
   105   7 N    2.554 --   101 C    1.381   104 C    1.375
   106   1 H    1.031 --    64 C    0.995
   107   1 H    1.015 --    66 C    0.992
   108   1 H    1.030 --    67 C    0.998
   109   1 H    1.081 --    69 N    0.961
   110   1 H    1.047 --    72 C    0.994
   111   1 H    0.978 --    75 O    0.942
   112   1 H    1.016 --    77 C    0.986
   113   1 H    1.028 --    78 C    0.981
   114   1 H    1.047 --    79 C    0.988
   115   1 H    1.032 --    81 C    0.997
   116   1 H    1.031 --    82 C    0.999
   117   1 H    1.027 --    87 C    0.998
   118   1 H    1.030 --    88 C    0.998
   119   1 H    1.085 --    90 N    0.960
   120   1 H    1.047 --    93 C    0.988
   121   1 H    1.028 --    94 C    0.981
   122   1 H    1.025 --    95 C    0.986
   123   1 H    0.979 --    98 O    0.942
   124   1 H    1.038 --   100 C    0.995
   125   1 H    1.031 --   102 C    0.998
   126   1 H    1.018 --   103 C    0.993
   127   6 C    3.836 --   128 C    2.375   131 C    1.357   130 C    0.171
   128   6 C    3.834 --   127 C    2.375   129 C    1.356   132 C    0.171
   129   6 C    3.809 --   130 C    2.474   128 C    1.356
   130   6 C    3.767 --   129 C    2.474    22 C    1.220   127 C    0.171
   131   6 C    3.804 --   132 C    2.469   127 C    1.357
   132   6 C    3.770 --   131 C    2.469   163 C    1.225   128 C    0.171
   133   6 C    3.834 --   134 C    2.368   137 C    1.362   136 C    0.170
   134   6 C    3.834 --   133 C    2.368   135 C    1.362   138 C    0.170
   135   6 C    3.803 --   136 C    2.464   134 C    1.362
   136   6 C    3.767 --   135 C    2.464   184 C    1.229   133 C    0.170
   137   6 C    3.804 --   138 C    2.464   133 C    1.362
   138   6 C    3.768 --   137 C    2.464   225 C    1.229   134 C    0.170
   139   6 C    3.834 --   140 C    2.369   143 C    1.361   142 C    0.170
   140   6 C    3.834 --   139 C    2.369   141 C    1.361   144 C    0.170
   141   6 C    3.804 --   142 C    2.465   140 C    1.361
   142   6 C    3.768 --   141 C    2.465   246 C    1.228   139 C    0.170
   143   6 C    3.805 --   144 C    2.465   139 C    1.361
   144   6 C    3.768 --   143 C    2.465   287 C    1.228   140 C    0.170
   145   6 C    3.835 --   146 C    2.369   149 C    1.361   148 C    0.170
   146   6 C    3.834 --   145 C    2.369   147 C    1.361   150 C    0.170
   147   6 C    3.805 --   148 C    2.465   146 C    1.361
   148   6 C    3.768 --   147 C    2.465   308 C    1.228   145 C    0.170
   149   6 C    3.805 --   150 C    2.465   145 C    1.361
   150   6 C    3.768 --   149 C    2.465   349 C    1.228   146 C    0.170
   151   6 C    3.834 --   152 C    2.368   155 C    1.362   154 C    0.170
   152   6 C    3.834 --   151 C    2.368   153 C    1.362   156 C    0.170
   153   6 C    3.804 --   154 C    2.464   152 C    1.362
   154   6 C    3.768 --   153 C    2.464   370 C    1.229   151 C    0.170
   155   6 C    3.804 --   156 C    2.464   151 C    1.362
   156   6 C    3.768 --   155 C    2.464   411 C    1.229   152 C    0.170
   157   6 C    3.834 --   158 C    2.375   161 C    1.356   160 C    0.171
   158   6 C    3.837 --   157 C    2.375   159 C    1.357   162 C    0.171
   159   6 C    3.804 --   160 C    2.469   158 C    1.357
   160   6 C    3.770 --   159 C    2.469   432 C    1.225   157 C    0.171
   161   6 C    3.809 --   162 C    2.474   157 C    1.356
   162   6 C    3.768 --   161 C    2.474    85 C    1.221   158 C    0.171
   163   6 C    3.830 --   203 C    1.283   164 C    1.281   132 C    1.225
   164   6 C    3.904 --   163 C    1.281   165 C    1.271   168 N    1.251
   165   6 C    3.828 --   166 C    1.578   164 C    1.271   205 H    0.998
   166   6 C    3.820 --   165 C    1.578   167 C    1.263   206 H    0.998
   167   6 C    3.887 --   169 C    1.337   166 C    1.263   168 N    1.222
   168   7 N    3.250 --   164 C    1.251   167 C    1.222   207 H    0.961
   169   6 C    3.832 --   179 C    1.376   167 C    1.337   170 C    1.048
   170   6 C    3.896 --   171 C    1.439   178 C    1.418   169 C    1.048
   171   6 C    3.849 --   170 C    1.439   172 C    1.409   208 H    0.994
   172   6 C    3.909 --   171 C    1.409   176 C    1.402   173 C    1.034
   173   6 C    4.097 --   175 O    1.822   174 O    1.211   172 C    1.034
   174   8 O    2.366 --   173 C    1.211   209 H    0.943   175 O    0.185
   175   8 O    2.035 --   173 C    1.822   174 O    0.185
   176   6 C    3.888 --   177 C    1.454   172 C    1.402   210 H    0.987
   177   6 C    3.908 --   176 C    1.454   178 C    1.445   211 H    0.981
   178   6 C    3.864 --   177 C    1.445   170 C    1.418   212 H    0.988
   179   6 C    3.924 --   169 C    1.376   182 N    1.350   180 C    1.160
   180   6 C    3.837 --   181 C    1.694   179 C    1.160   213 H    0.998
   181   6 C    3.850 --   180 C    1.694   183 C    1.166   214 H    0.999
   182   7 N    2.551 --   183 C    1.418   179 C    1.350
   183   6 C    3.943 --   182 N    1.418   184 C    1.282   181 C    1.166
   184   6 C    3.830 --   183 C    1.282   185 C    1.279   136 C    1.229
   185   6 C    3.904 --   184 C    1.279   186 C    1.271   189 N    1.252
   186   6 C    3.829 --   187 C    1.578   185 C    1.271   215 H    0.998
   187   6 C    3.816 --   186 C    1.578   188 C    1.264   216 H    0.998
   188   6 C    3.885 --   190 C    1.336   187 C    1.264   189 N    1.222
   189   7 N    3.252 --   185 C    1.252   188 C    1.222   217 H    0.961
   190   6 C    3.831 --   200 C    1.375   188 C    1.336   191 C    1.048
   191   6 C    3.895 --   199 C    1.437   192 C    1.419   190 C    1.048
   192   6 C    3.867 --   193 C    1.444   191 C    1.419   218 H    0.989
   193   6 C    3.908 --   194 C    1.456   192 C    1.444   219 H    0.981
   194   6 C    3.892 --   193 C    1.456   195 C    1.402   220 H    0.986
   195   6 C    3.909 --   199 C    1.408   194 C    1.402   196 C    1.035
   196   6 C    4.098 --   198 O    1.819   197 O    1.213   195 C    1.035
   197   8 O    2.368 --   196 C    1.213   221 H    0.942   198 O    0.184
   198   8 O    2.031 --   196 C    1.819   197 O    0.184
   199   6 C    3.842 --   191 C    1.437   195 C    1.408   222 H    0.995
   200   6 C    3.926 --   190 C    1.375   204 N    1.350   201 C    1.161
   201   6 C    3.840 --   202 C    1.693   200 C    1.161   223 H    0.999
   202   6 C    3.850 --   201 C    1.693   203 C    1.166   224 H    0.999
   203   6 C    3.944 --   204 N    1.416   163 C    1.283   202 C    1.166
   204   7 N    2.549 --   203 C    1.416   200 C    1.350
   205   1 H    1.027 --   165 C    0.998
   206   1 H    1.031 --   166 C    0.998
   207   1 H    1.082 --   168 N    0.961
   208   1 H    1.047 --   171 C    0.994
   209   1 H    0.978 --   174 O    0.943
   210   1 H    1.016 --   176 C    0.987
   211   1 H    1.028 --   177 C    0.981
   212   1 H    1.047 --   178 C    0.988
   213   1 H    1.034 --   180 C    0.998
   214   1 H    1.031 --   181 C    0.999
   215   1 H    1.027 --   186 C    0.998
   216   1 H    1.027 --   187 C    0.998
   217   1 H    1.082 --   189 N    0.961
   218   1 H    1.050 --   192 C    0.989
   219   1 H    1.029 --   193 C    0.981
   220   1 H    1.025 --   194 C    0.986
   221   1 H    0.978 --   197 O    0.942
   222   1 H    1.035 --   199 C    0.995
   223   1 H    1.036 --   201 C    0.999
   224   1 H    1.032 --   202 C    0.999
   225   6 C    3.832 --   265 C    1.282   226 C    1.280   138 C    1.229
   226   6 C    3.904 --   225 C    1.280   227 C    1.271   230 N    1.251
   227   6 C    3.829 --   228 C    1.578   226 C    1.271   267 H    0.998
   228   6 C    3.819 --   227 C    1.578   229 C    1.263   268 H    0.998
   229   6 C    3.887 --   231 C    1.336   228 C    1.263   230 N    1.222
   230   7 N    3.251 --   226 C    1.251   229 C    1.222   269 H    0.961
   231   6 C    3.831 --   241 C    1.376   229 C    1.336   232 C    1.048
   232   6 C    3.896 --   233 C    1.439   240 C    1.419   231 C    1.048
   233   6 C    3.849 --   232 C    1.439   234 C    1.409   270 H    0.994
   234   6 C    3.909 --   233 C    1.409   238 C    1.402   235 C    1.034
   235   6 C    4.097 --   237 O    1.822   236 O    1.211   234 C    1.034
   236   8 O    2.366 --   235 C    1.211   271 H    0.943   237 O    0.185
   237   8 O    2.035 --   235 C    1.822   236 O    0.185
   238   6 C    3.888 --   239 C    1.454   234 C    1.402   272 H    0.987
   239   6 C    3.908 --   238 C    1.454   240 C    1.445   273 H    0.981
   240   6 C    3.863 --   239 C    1.445   232 C    1.419   274 H    0.988
   241   6 C    3.924 --   231 C    1.376   244 N    1.350   242 C    1.160
   242   6 C    3.837 --   243 C    1.694   241 C    1.160   275 H    0.998
   243   6 C    3.851 --   242 C    1.694   245 C    1.166   276 H    0.999
   244   7 N    2.551 --   245 C    1.417   241 C    1.350
   245   6 C    3.943 --   244 N    1.417   246 C    1.283   243 C    1.166
   246   6 C    3.832 --   245 C    1.283   247 C    1.280   142 C    1.228
   247   6 C    3.904 --   246 C    1.280   248 C    1.271   251 N    1.252
   248   6 C    3.830 --   249 C    1.579   247 C    1.271   277 H    0.998
   249   6 C    3.817 --   248 C    1.579   250 C    1.263   278 H    0.998
   250   6 C    3.886 --   252 C    1.338   249 C    1.263   251 N    1.222
   251   7 N    3.251 --   247 C    1.252   250 C    1.222   279 H    0.961
   252   6 C    3.831 --   262 C    1.375   250 C    1.338   253 C    1.048
   253   6 C    3.895 --   261 C    1.437   254 C    1.420   252 C    1.048
   254   6 C    3.867 --   255 C    1.444   253 C    1.420   280 H    0.989
   255   6 C    3.908 --   256 C    1.456   254 C    1.444   281 H    0.981
   256   6 C    3.892 --   255 C    1.456   257 C    1.403   282 H    0.986
   257   6 C    3.909 --   261 C    1.408   256 C    1.403   258 C    1.035
   258   6 C    4.097 --   260 O    1.819   259 O    1.212   257 C    1.035
   259   8 O    2.368 --   258 C    1.212   283 H    0.942   260 O    0.184
   260   8 O    2.032 --   258 C    1.819   259 O    0.184
   261   6 C    3.842 --   253 C    1.437   257 C    1.408   284 H    0.995
   262   6 C    3.925 --   252 C    1.375   266 N    1.350   263 C    1.161
   263   6 C    3.839 --   264 C    1.692   262 C    1.161   285 H    0.999
   264   6 C    3.850 --   263 C    1.692   265 C    1.167   286 H    0.999
   265   6 C    3.943 --   266 N    1.417   225 C    1.282   264 C    1.167
   266   7 N    2.551 --   265 C    1.417   262 C    1.350
   267   1 H    1.027 --   227 C    0.998
   268   1 H    1.031 --   228 C    0.998
   269   1 H    1.082 --   230 N    0.961
   270   1 H    1.047 --   233 C    0.994
   271   1 H    0.978 --   236 O    0.943
   272   1 H    1.016 --   238 C    0.987
   273   1 H    1.028 --   239 C    0.981
   274   1 H    1.047 --   240 C    0.988
   275   1 H    1.034 --   242 C    0.998
   276   1 H    1.031 --   243 C    0.999
   277   1 H    1.027 --   248 C    0.998
   278   1 H    1.027 --   249 C    0.998
   279   1 H    1.082 --   251 N    0.961
   280   1 H    1.050 --   254 C    0.989
   281   1 H    1.029 --   255 C    0.981
   282   1 H    1.025 --   256 C    0.986
   283   1 H    0.978 --   259 O    0.942
   284   1 H    1.035 --   261 C    0.995
   285   1 H    1.036 --   263 C    0.999
   286   1 H    1.032 --   264 C    0.999
   287   6 C    3.833 --   327 C    1.282   288 C    1.281   144 C    1.228
   288   6 C    3.904 --   287 C    1.281   289 C    1.271   292 N    1.251
   289   6 C    3.830 --   290 C    1.578   288 C    1.271   329 H    0.998
   290   6 C    3.820 --   289 C    1.578   291 C    1.263   330 H    0.998
   291   6 C    3.888 --   293 C    1.337   290 C    1.263   292 N    1.222
   292   7 N    3.251 --   288 C    1.251   291 C    1.222   331 H    0.961
   293   6 C    3.832 --   303 C    1.376   291 C    1.337   294 C    1.048
   294   6 C    3.896 --   295 C    1.439   302 C    1.419   293 C    1.048
   295   6 C    3.849 --   294 C    1.439   296 C    1.409   332 H    0.994
   296   6 C    3.909 --   295 C    1.409   300 C    1.402   297 C    1.034
   297   6 C    4.097 --   299 O    1.822   298 O    1.211   296 C    1.034
   298   8 O    2.366 --   297 C    1.211   333 H    0.943   299 O    0.185
   299   8 O    2.035 --   297 C    1.822   298 O    0.185
   300   6 C    3.888 --   301 C    1.454   296 C    1.402   334 H    0.987
   301   6 C    3.908 --   300 C    1.454   302 C    1.445   335 H    0.981
   302   6 C    3.863 --   301 C    1.445   294 C    1.419   336 H    0.988
   303   6 C    3.925 --   293 C    1.376   306 N    1.351   304 C    1.160
   304   6 C    3.837 --   305 C    1.694   303 C    1.160   337 H    0.998
   305   6 C    3.851 --   304 C    1.694   307 C    1.166   338 H    0.999
   306   7 N    2.552 --   307 C    1.417   303 C    1.351
   307   6 C    3.943 --   306 N    1.417   308 C    1.283   305 C    1.166
   308   6 C    3.833 --   307 C    1.283   309 C    1.280   148 C    1.228
   309   6 C    3.904 --   308 C    1.280   310 C    1.271   313 N    1.252
   310   6 C    3.830 --   311 C    1.579   309 C    1.271   339 H    0.998
   311   6 C    3.817 --   310 C    1.579   312 C    1.263   340 H    0.998
   312   6 C    3.886 --   314 C    1.338   311 C    1.263   313 N    1.222
   313   7 N    3.251 --   309 C    1.252   312 C    1.222   341 H    0.961
   314   6 C    3.831 --   324 C    1.375   312 C    1.338   315 C    1.048
   315   6 C    3.895 --   323 C    1.437   316 C    1.419   314 C    1.048
   316   6 C    3.867 --   317 C    1.444   315 C    1.419   342 H    0.989
   317   6 C    3.908 --   318 C    1.456   316 C    1.444   343 H    0.981
   318   6 C    3.892 --   317 C    1.456   319 C    1.403   344 H    0.986
   319   6 C    3.909 --   323 C    1.408   318 C    1.403   320 C    1.035
   320   6 C    4.097 --   322 O    1.819   321 O    1.212   319 C    1.035
   321   8 O    2.368 --   320 C    1.212   345 H    0.942   322 O    0.184
   322   8 O    2.032 --   320 C    1.819   321 O    0.184
   323   6 C    3.842 --   315 C    1.437   319 C    1.408   346 H    0.995
   324   6 C    3.926 --   314 C    1.375   328 N    1.351   325 C    1.161
   325   6 C    3.840 --   326 C    1.693   324 C    1.161   347 H    0.999
   326   6 C    3.851 --   325 C    1.693   327 C    1.167   348 H    0.999
   327   6 C    3.943 --   328 N    1.417   287 C    1.282   326 C    1.167
   328   7 N    2.551 --   327 C    1.417   324 C    1.351
   329   1 H    1.027 --   289 C    0.998
   330   1 H    1.031 --   290 C    0.998
   331   1 H    1.082 --   292 N    0.961
   332   1 H    1.047 --   295 C    0.994
   333   1 H    0.978 --   298 O    0.943
   334   1 H    1.016 --   300 C    0.987
   335   1 H    1.028 --   301 C    0.981
   336   1 H    1.047 --   302 C    0.988
   337   1 H    1.034 --   304 C    0.998
   338   1 H    1.031 --   305 C    0.999
   339   1 H    1.027 --   310 C    0.998
   340   1 H    1.027 --   311 C    0.998
   341   1 H    1.082 --   313 N    0.961
   342   1 H    1.050 --   316 C    0.989
   343   1 H    1.028 --   317 C    0.981
   344   1 H    1.025 --   318 C    0.986
   345   1 H    0.978 --   321 O    0.942
   346   1 H    1.035 --   323 C    0.995
   347   1 H    1.036 --   325 C    0.999
   348   1 H    1.031 --   326 C    0.999
   349   6 C    3.832 --   389 C    1.282   350 C    1.280   150 C    1.228
   350   6 C    3.904 --   349 C    1.280   351 C    1.271   354 N    1.251
   351   6 C    3.830 --   352 C    1.578   350 C    1.271   391 H    0.998
   352   6 C    3.820 --   351 C    1.578   353 C    1.263   392 H    0.998
   353   6 C    3.887 --   355 C    1.337   352 C    1.263   354 N    1.222
   354   7 N    3.251 --   350 C    1.251   353 C    1.222   393 H    0.961
   355   6 C    3.832 --   365 C    1.376   353 C    1.337   356 C    1.048
   356   6 C    3.896 --   357 C    1.439   364 C    1.418   355 C    1.048
   357   6 C    3.849 --   356 C    1.439   358 C    1.409   394 H    0.994
   358   6 C    3.909 --   357 C    1.409   362 C    1.402   359 C    1.034
   359   6 C    4.097 --   361 O    1.822   360 O    1.211   358 C    1.034
   360   8 O    2.366 --   359 C    1.211   395 H    0.943   361 O    0.185
   361   8 O    2.035 --   359 C    1.822   360 O    0.185
   362   6 C    3.888 --   363 C    1.454   358 C    1.402   396 H    0.987
   363   6 C    3.908 --   362 C    1.454   364 C    1.445   397 H    0.981
   364   6 C    3.863 --   363 C    1.445   356 C    1.418   398 H    0.988
   365   6 C    3.924 --   355 C    1.376   368 N    1.350   366 C    1.160
   366   6 C    3.837 --   367 C    1.694   365 C    1.160   399 H    0.998
   367   6 C    3.850 --   366 C    1.694   369 C    1.166   400 H    0.999
   368   7 N    2.551 --   369 C    1.417   365 C    1.350
   369   6 C    3.943 --   368 N    1.417   370 C    1.282   367 C    1.166
   370   6 C    3.832 --   369 C    1.282   371 C    1.280   154 C    1.229
   371   6 C    3.904 --   370 C    1.280   372 C    1.271   375 N    1.252
   372   6 C    3.830 --   373 C    1.578   371 C    1.271   401 H    0.998
   373   6 C    3.817 --   372 C    1.578   374 C    1.263   402 H    0.998
   374   6 C    3.886 --   376 C    1.337   373 C    1.263   375 N    1.222
   375   7 N    3.251 --   371 C    1.252   374 C    1.222   403 H    0.961
   376   6 C    3.831 --   386 C    1.375   374 C    1.337   377 C    1.048
   377   6 C    3.895 --   385 C    1.437   378 C    1.419   376 C    1.048
   378   6 C    3.867 --   379 C    1.444   377 C    1.419   404 H    0.989
   379   6 C    3.908 --   380 C    1.456   378 C    1.444   405 H    0.981
   380   6 C    3.892 --   379 C    1.456   381 C    1.402   406 H    0.986
   381   6 C    3.908 --   385 C    1.408   380 C    1.402   382 C    1.035
   382   6 C    4.097 --   384 O    1.819   383 O    1.212   381 C    1.035
   383   8 O    2.368 --   382 C    1.212   407 H    0.942   384 O    0.184
   384   8 O    2.032 --   382 C    1.819   383 O    0.184
   385   6 C    3.842 --   377 C    1.437   381 C    1.408   408 H    0.995
   386   6 C    3.926 --   376 C    1.375   390 N    1.351   387 C    1.161
   387   6 C    3.840 --   388 C    1.693   386 C    1.161   409 H    0.999
   388   6 C    3.850 --   387 C    1.693   389 C    1.167   410 H    0.999
   389   6 C    3.943 --   390 N    1.417   349 C    1.282   388 C    1.167
   390   7 N    2.551 --   389 C    1.417   386 C    1.351
   391   1 H    1.027 --   351 C    0.998
   392   1 H    1.031 --   352 C    0.998
   393   1 H    1.082 --   354 N    0.961
   394   1 H    1.047 --   357 C    0.994
   395   1 H    0.978 --   360 O    0.943
   396   1 H    1.016 --   362 C    0.987
   397   1 H    1.028 --   363 C    0.981
   398   1 H    1.047 --   364 C    0.988
   399   1 H    1.034 --   366 C    0.998
   400   1 H    1.031 --   367 C    0.999
   401   1 H    1.027 --   372 C    0.998
   402   1 H    1.027 --   373 C    0.998
   403   1 H    1.082 --   375 N    0.961
   404   1 H    1.050 --   378 C    0.989
   405   1 H    1.028 --   379 C    0.981
   406   1 H    1.025 --   380 C    0.986
   407   1 H    0.978 --   383 O    0.942
   408   1 H    1.035 --   385 C    0.995
   409   1 H    1.036 --   387 C    0.999
   410   1 H    1.031 --   388 C    0.999
   411   6 C    3.831 --   451 C    1.282   412 C    1.280   156 C    1.229
   412   6 C    3.904 --   411 C    1.280   413 C    1.271   416 N    1.251
   413   6 C    3.829 --   414 C    1.577   412 C    1.271   453 H    0.998
   414   6 C    3.819 --   413 C    1.577   415 C    1.263   454 H    0.998
   415   6 C    3.887 --   417 C    1.336   414 C    1.263   416 N    1.223
   416   7 N    3.251 --   412 C    1.251   415 C    1.223   455 H    0.961
   417   6 C    3.831 --   427 C    1.376   415 C    1.336   418 C    1.048
   418   6 C    3.896 --   419 C    1.439   426 C    1.418   417 C    1.048
   419   6 C    3.849 --   418 C    1.439   420 C    1.409   456 H    0.995
   420   6 C    3.909 --   419 C    1.409   424 C    1.402   421 C    1.034
   421   6 C    4.097 --   423 O    1.822   422 O    1.211   420 C    1.034
   422   8 O    2.366 --   421 C    1.211   457 H    0.943   423 O    0.185
   423   8 O    2.034 --   421 C    1.822   422 O    0.185
   424   6 C    3.888 --   425 C    1.454   420 C    1.402   458 H    0.986
   425   6 C    3.908 --   424 C    1.454   426 C    1.445   459 H    0.981
   426   6 C    3.863 --   425 C    1.445   418 C    1.418   460 H    0.988
   427   6 C    3.925 --   417 C    1.376   430 N    1.350   428 C    1.160
   428   6 C    3.837 --   429 C    1.695   427 C    1.160   461 H    0.998
   429   6 C    3.850 --   428 C    1.695   431 C    1.165   462 H    0.999
   430   7 N    2.550 --   431 C    1.417   427 C    1.350
   431   6 C    3.944 --   430 N    1.417   432 C    1.284   429 C    1.165
   432   6 C    3.831 --   431 C    1.284   433 C    1.281   160 C    1.225
   433   6 C    3.904 --   432 C    1.281   434 C    1.270   437 N    1.252
   434   6 C    3.829 --   435 C    1.579   433 C    1.270   463 H    0.998
   435   6 C    3.817 --   434 C    1.579   436 C    1.263   464 H    0.998
   436   6 C    3.885 --   438 C    1.338   435 C    1.263   437 N    1.221
   437   7 N    3.251 --   433 C    1.252   436 C    1.221   465 H    0.961
   438   6 C    3.832 --   448 C    1.374   436 C    1.338   439 C    1.048
   439   6 C    3.895 --   447 C    1.437   440 C    1.419   438 C    1.048
   440   6 C    3.867 --   441 C    1.444   439 C    1.419   466 H    0.989
   441   6 C    3.908 --   442 C    1.456   440 C    1.444   467 H    0.981
   442   6 C    3.892 --   441 C    1.456   443 C    1.402   468 H    0.986
   443   6 C    3.908 --   447 C    1.408   442 C    1.402   444 C    1.035
   444   6 C    4.097 --   446 O    1.819   445 O    1.213   443 C    1.035
   445   8 O    2.368 --   444 C    1.213   469 H    0.942   446 O    0.184
   446   8 O    2.031 --   444 C    1.819   445 O    0.184
   447   6 C    3.842 --   439 C    1.437   443 C    1.408   470 H    0.995
   448   6 C    3.925 --   438 C    1.374   452 N    1.351   449 C    1.161
   449   6 C    3.839 --   450 C    1.692   448 C    1.161   471 H    0.998
   450   6 C    3.850 --   449 C    1.692   451 C    1.167   472 H    0.999
   451   6 C    3.943 --   452 N    1.417   411 C    1.282   450 C    1.167
   452   7 N    2.551 --   451 C    1.417   448 C    1.351
   453   1 H    1.027 --   413 C    0.998
   454   1 H    1.031 --   414 C    0.998
   455   1 H    1.082 --   416 N    0.961
   456   1 H    1.047 --   419 C    0.995
   457   1 H    0.978 --   422 O    0.943
   458   1 H    1.016 --   424 C    0.986
   459   1 H    1.028 --   425 C    0.981
   460   1 H    1.047 --   426 C    0.988
   461   1 H    1.034 --   428 C    0.998
   462   1 H    1.031 --   429 C    0.999
   463   1 H    1.027 --   434 C    0.998
   464   1 H    1.028 --   435 C    0.998
   465   1 H    1.082 --   437 N    0.961
   466   1 H    1.050 --   440 C    0.989
   467   1 H    1.028 --   441 C    0.981
   468   1 H    1.025 --   442 C    0.986
   469   1 H    0.979 --   445 O    0.942
   470   1 H    1.035 --   447 C    0.995
   471   1 H    1.036 --   449 C    0.998
   472   1 H    1.031 --   450 C    0.999
 ---------------------------------------------------------------------------

Topologies differ in total number of bonds
Writing topology from bond orders to xtbtopo.mol

 dipole moment from electron density (au)
     X       Y       Z   
-260.3494   4.4002   1.6427  total (Debye):  661.850


           -------------------------------------------------
          | TOTAL ENERGY             -979.099743679844 Eh   |
          | GRADIENT NORM               0.148490967163 Eh/α |
          | HOMO-LUMO GAP               0.056904714414 eV   |
           -------------------------------------------------
########################################################################
[WARNING] Runtime exception occurred
-1- restart_readRestart: Dimension missmatch in restart file.
########################################################################

------------------------------------------------------------------------
 * finished run on 2022/07/27 at 23:09:53.810     
------------------------------------------------------------------------
 total:
 * wall-time:     0 d,  0 h,  1 min, 41.414 sec
 *  cpu-time:     0 d,  0 h,  1 min, 40.977 sec
 * ratio c/w:     0.996 speedup
 SCF:
 * wall-time:     0 d,  0 h,  1 min, 40.128 sec
 *  cpu-time:     0 d,  0 h,  1 min, 39.726 sec
 * ratio c/w:     0.996 speedup

