189
 energy: -374.488712372981 gnorm: 0.595222761387 xtb: 6.5.1 (b24c23e)
Co          35.24678700000000       -0.05235000000000       -0.02389800000000
C           31.91364700000000        0.09866200000000        0.08251100000000
C           32.58045900000000        1.25560800000000        0.06111200000000
C           31.93208800000000        2.56122600000000        0.05990800000000
C           32.87572900000000        3.48329700000000        0.05194700000000
C           34.18087500000000        2.80824700000000        0.04987900000000
N           34.00089299999999        1.39202100000000        0.05491400000000
C           35.37482500000000        3.43313800000000        0.07979600000000
C           35.41235000000000        4.91184200000000        0.08731100000000
C           35.20301000000000        5.62711600000000       -1.09966400000000
C           35.22466400000000        7.02545600000000       -1.09672600000000
O           35.01038799999999        7.70663300000000       -2.29511400000000
C           35.45772900000000        7.72111400000000        0.10342600000000
O           35.47335700000000        9.11664700000000        0.09936000000000
C           35.67150400000000        7.00510100000000        1.29551800000000
O           35.90434900000000        7.68779900000000        2.48815800000000
C           35.64902700000000        5.60387100000000        1.28212500000000
C           36.67303300000000        2.70903300000000        0.11815100000000
C           37.97230600000000        3.37855900000000        0.24957500000000
C           38.90663200000000        2.45139000000000        0.23492100000000
N           36.80765600000000        1.42125900000000        0.01756600000000
C           38.21352700000000        1.17748800000000        0.08339300000000
C           38.80873600000000       -0.02322100000000       -0.02500400000000
C           38.05577700000000       -1.28875200000000       -0.20515500000000
C           38.62106600000000       -2.45069300000000       -0.51028200000000
C           37.57357000000000       -3.44975300000000       -0.54048000000000
C           36.43188100000000       -2.83558600000000       -0.25442400000000
N           36.64563099999999       -1.43886800000000       -0.02813400000000
C           35.12277000000000       -3.52930000000000       -0.13595500000000
C           35.10395400000000       -5.00808100000000       -0.15456100000000
C           35.25058400000000       -5.72608400000000        1.03884800000000
C           35.22930000000000       -7.12454500000000        1.02999000000000
O           35.37102900000000       -7.80983000000000        2.23672200000000
C           35.06597300000000       -7.81651200000000       -0.18399500000000
O           35.04914200000000       -9.21194600000000       -0.18501100000000
C           34.92406900000000       -7.09673100000000       -1.38453900000000
O           34.76662900000000       -7.77613400000000       -2.59174800000000
C           34.94224200000000       -5.69541900000000       -1.36452500000000
C           33.96009599999999       -2.86412500000000       -0.01386000000000
C           32.63616600000000       -3.47229600000000        0.10485500000000
C           31.77715600000000       -2.47365200000000        0.15659000000000
C           32.54326600000000       -1.23102100000000        0.07659700000000
N           33.81799900000000       -1.44577400000000       -0.02384800000000
H           30.83076300000000        0.13144700000000        0.10713200000000
H           30.86746100000000        2.75698600000000        0.06902100000000
H           32.69204800000000        4.54994600000000        0.05850400000000
H           35.01927900000000        5.09679400000000       -2.02635500000000
H           35.01536100000000        8.71807300000000       -2.34808900000000
H           35.62373000000000        9.65690200000000        0.94236600000000
H           36.06066200000000        7.19547400000000        3.36008000000000
H           35.81175300000000        5.05327100000000        2.20078400000000
H           38.15587200000000        4.44111900000000        0.33948800000000
H           39.97042000000000        2.63456600000000        0.30967600000000
H           39.67071799999999       -2.63560100000000       -0.69225600000000
H           37.70846400000000       -4.50451900000000       -0.74342300000000
H           35.37775899999999       -5.19832800000000        1.97629700000000
H           35.35271200000000       -8.82089600000000        2.28708900000000
H           34.93524900000000       -9.75006300000000       -1.03543800000000
H           34.66679100000000       -7.28183500000000       -3.47116600000000
H           34.83190200000000       -5.14193600000000       -2.28956900000000
H           32.38427400000000       -4.52445500000000        0.13934800000000
H           30.70215700000000       -2.57145600000000        0.24003500000000
Co          58.20020399999999        0.00559600000000       -0.02060300000000
C           61.53334300000000       -0.15650400000000        0.06800400000000
C           60.86653100000000       -1.30356900000000       -0.08439300000000
C           61.51490200000000       -2.60063700000000       -0.23357500000000
C           60.57126200000000       -3.51586300000000       -0.34599700000000
C           59.26611500000000       -2.84492900000000       -0.27153800000000
N           59.44609699999999       -1.43840000000000       -0.10601300000000
C           58.07216500000000       -3.46918400000000       -0.31264300000000
C           58.03464100000000       -4.93921000000000       -0.47278100000000
C           58.24398000000000       -5.51533600000000       -1.73317900000000
C           58.22232600000000       -6.90499700000000       -1.88875500000000
O           58.43660300000000       -7.44595400000000       -3.15662900000000
C           57.98926200000000       -7.73220500000000       -0.77518800000000
O           57.97363400000000       -9.11828400000000       -0.93740500000000
C           57.77548700000000       -7.15592400000000        0.49037900000000
O           57.54264100000000       -7.96940300000000        1.59795300000000
C           57.79796300000000       -5.76220600000000        0.63589500000000
C           56.77395800000000       -2.75409300000000       -0.19246000000000
C           55.47468400000000       -3.43420000000000       -0.13777100000000
C           54.54035800000000       -2.51134500000000       -0.04724000000000
N           56.63933400000000       -1.46321600000000       -0.14643400000000
C           55.23346299999999       -1.22847700000000       -0.05340100000000
C           54.63825400000000       -0.02322100000000       -0.02500400000000
C           55.39121300000000        1.25457400000000       -0.06055100000000
C           54.82592400000000        2.44361300000000       -0.23201200000000
C           55.87342000000000        3.43965700000000       -0.14877600000000
C           57.01511000000000        2.79702500000000        0.06582400000000
N           56.80135899999999        1.38365900000000        0.13234300000000
C           58.32422000000000        3.47284000000000        0.26215900000000
C           58.34303600000000        4.94420000000000        0.41128600000000
C           58.19640600000000        5.52230800000000        1.67838600000000
C           58.21768999999999        6.91276200000000        1.82809500000000
O           58.07596200000000        7.45685200000000        3.10472400000000
C           58.38101700000000        7.73786900000000        0.70036500000000
O           58.39784800000000        9.12442500000000        0.85752100000000
C           58.52292100000000        7.15880300000000       -0.57402700000000
O           58.68036100000000        7.97066000000000       -1.69644900000000
C           58.50474899999999        5.76425200000000       -0.71297400000000
C           59.48689399999999        2.79811300000000        0.30807200000000
C           60.81082400000000        3.38890800000000        0.49495600000000
C           61.66983500000000        2.39083700000000        0.43316500000000
C           60.90372399999999        1.16528100000000        0.21284100000000
N           59.62899100000000        1.39003400000000        0.13738500000000
H           62.61622700000000       -0.19186800000000        0.08874900000000
H           62.57952900000000       -2.79616800000000       -0.24670900000000
H           60.75494199999999       -4.57638100000000       -0.46038200000000
H           58.42771200000000       -4.88339600000000       -2.59378800000000
H           58.43162899999999       -8.44487000000000       -3.32390500000000
H           57.82326000000000       -9.75060800000000       -0.16106700000000
H           57.38632800000000       -7.57907900000000        2.52005800000000
H           57.63523699999999       -5.31928100000000        1.61104200000000
H           55.29111800000000       -4.50010400000000       -0.16887400000000
H           53.47657000000000       -2.70181400000000        0.00627100000000
H           53.77627199999999        2.64795500000000       -0.39185400000000
H           55.73852700000000        4.51062800000000       -0.23085800000000
H           58.06923099999999        4.89169800000000        2.54997500000000
H           58.09427800000000        8.45569400000000        3.26936600000000
H           58.51174100000000        9.75546700000000        0.07356800000000
H           58.78020000000000        7.57922400000000       -2.62622600000000
H           58.61508800000000        5.31918600000000       -1.69479200000000
H           61.06271599999999        4.43037700000000        0.64848400000000
H           62.74483299999999        2.47855200000000        0.52715800000000
C           40.76767099999999       -0.02322100000000       -0.02500400000000
C           41.98958800000000       -0.02322100000000       -0.02500400000000
C           51.45740200000000       -0.02322100000000       -0.02500400000000
C           52.67931999999999       -0.02322100000000       -0.02500400000000
Co          46.68458200000000       -0.03614800000000       -0.04426000000000
C           43.27495100000000        0.04872500000000        0.05246700000000
C           43.93141799999999        1.21736200000000        0.17203700000000
C           43.28982800000000        2.51641900000000        0.38446800000000
C           44.22788700000000        3.44283100000000        0.40671800000000
C           45.52670000000000        2.79133800000000        0.20941900000000
N           45.34876800000000        1.37973000000000        0.06800000000000
C           46.71165400000000        3.43556200000000        0.15738300000000
C           46.74137399999999        4.91122500000000        0.26065500000000
C           47.20386999999999        5.52418200000000        1.43408600000000
C           47.24650500000000        6.92133600000000        1.53287600000000
O           47.69944399999999        7.53191500000000        2.70280000000000
C           46.83150100000000        7.71217200000000        0.45203300000000
O           46.88402100000000        9.10156500000000        0.56779100000000
C           46.36911600000000        7.10118000000000       -0.72906300000000
O           45.95765399999999        7.88421500000000       -1.80649500000000
C           46.32500500000000        5.70307900000000       -0.81937600000000
C           48.01271400000000        2.73712300000000        0.00414200000000
C           49.28609299999999        3.42883400000000       -0.23092300000000
C           50.23986900000000        2.52001500000000       -0.26040300000000
N           48.17883400000000        1.45526200000000        0.11003000000000
C           49.58122400000000        1.23772000000000       -0.04850300000000
C           50.19627000000000        0.04872500000000        0.05246700000000
C           49.44732199999999       -1.21011600000000        0.25085600000000
C           49.98550199999999       -2.34168600000000        0.68722700000000
C           48.95304099999999       -3.35864200000000        0.62810600000000
C           47.85479700000000       -2.77885800000000        0.15740900000000
N           48.07648000000000       -1.39361200000000       -0.10220300000000
C           46.59609999999999       -3.49728100000000       -0.15481000000000
C           46.65802600000000       -4.96215500000000       -0.37774700000000
C           47.39280200000000       -5.47621700000000       -1.45309400000000
C           47.46417599999999       -6.85488500000000       -1.66849100000000
O           48.19541500000000       -7.32503800000000       -2.75997100000000
C           46.80546700000000       -7.74360400000000       -0.79664300000000
O           46.89972700000000       -9.11465300000000       -1.04997600000000
C           46.07328600000000       -7.22713800000000        0.30101700000000
O           45.40154700000000       -8.04443100000000        1.21362300000000
C           46.00919900000000       -5.84320900000000        0.49846400000000
C           45.41978700000000       -2.84881200000000       -0.25841300000000
C           44.13836500000000       -3.45071600000000       -0.61211500000000
C           43.24910600000000       -2.48039800000000       -0.55412500000000
C           43.95117699999999       -1.25114900000000       -0.16916200000000
N           45.22028899999999       -1.45913800000000        0.00328300000000
H           42.23342700000000        2.71508500000000        0.50938100000000
H           44.04302700000000        4.49877400000000        0.55464600000000
H           47.52911300000000        4.91654000000000        2.27044200000000
H           47.99020100000000        6.98746200000000        3.51100300000000
H           46.59141099999999        9.71655500000000       -0.18540000000000
H           45.59781400000000        7.46999500000000       -2.65882000000000
H           45.97128400000000        5.23311500000000       -1.73075500000000
H           49.43759000000000        4.49305600000000       -0.35654000000000
H           51.29326500000000        2.71802200000000       -0.41002100000000
H           51.01055900000000       -2.49307800000000        0.99985200000000
H           49.07033200000000       -4.40349100000000        0.88502900000000
H           47.90610900000000       -4.80365100000000       -2.13099300000000
H           48.27837299999999       -8.31267600000000       -2.97067100000000
H           46.44966700000000       -9.82815300000000       -0.49287300000000
H           45.39262999999999       -9.05290700000000        1.17093500000000
H           45.45292499999999       -5.45240700000000        1.34265700000000
H           43.93115499999999       -4.47852100000000       -0.87886400000000
H           42.19420500000000       -2.59460500000000       -0.76758700000000
189
 energy: -374.700012540461 gnorm: 0.344083066766 xtb: 6.5.1 (b24c23e)
Co          35.26227837405101       -0.04182607405039       -0.01894519862861
C           31.91407038918073        0.07996296583287        0.08283535355002
C           32.58843206976522        1.25268114727707        0.06037783533540
C           31.93456139677993        2.55167104608681        0.05999595782645
C           32.88992051844253        3.48240109510658        0.05171260025622
C           34.18441820975449        2.79707074932163        0.04820024998892
N           33.98862276405415        1.39836979679457        0.05368452425508
C           35.39354807077972        3.42827913758315        0.07871081790088
C           35.41805207369644        4.91812030014363        0.08576633987243
C           35.20300738381590        5.63766495749787       -1.09633361260694
C           35.22526284688228        7.03959310470248       -1.09196744977643
O           35.01152036383903        7.70165459095195       -2.28784870238332
C           35.45999165962100        7.73063675105839        0.11564357883971
O           35.47229390464827        9.11728410639752        0.09393998190934
C           35.67303303184884        7.00366911941461        1.30312321449084
O           35.90314382538542        7.69361306546682        2.48318840777987
C           35.65069753325696        5.60671373070003        1.28031513947297
C           36.66561011755218        2.71922130447446        0.11808156520974
C           37.95667802282583        3.38813981815983        0.24832858084640
C           38.90473747240105        2.44383957271891        0.23383090089135
N           36.82077283362148        1.40774431172134        0.02326659132150
C           38.22984164391752        1.16824953024925        0.08275029936960
C           38.84406016624426       -0.04123174785206       -0.02880632851337
C           38.05908870898547       -1.27090151257907       -0.19658850708477
C           38.62505286129433       -2.47247147007523       -0.51192163013030
C           37.59511397427718       -3.44981619969227       -0.54104019330173
C           36.42091524158847       -2.81734960823417       -0.24679734631220
N           36.64913289883876       -1.43123738668302       -0.03963580210038
C           35.14090714895408       -3.51742308515976       -0.13466931256057
C           35.11405728932772       -5.01095070690187       -0.15440839632790
C           35.25120239363997       -5.73576781590146        1.03557972116827
C           35.22794299570121       -7.13817090019191        1.02512803391857
O           35.36981844650796       -7.80450106483690        2.22923532924989
C           35.06459411459080       -7.82557432099565       -0.19636278437741
O           35.04965287956680       -9.21240243853123       -0.17957044687518
C           34.92315726132264       -7.09430600793934       -1.39185719776573
O           34.76684181048631       -7.78131032637318       -2.58624480568215
C           34.94365927626594       -5.69656509947863       -1.36249392660680
C           33.96419290499581       -2.85682710559681       -0.01319726872328
C           32.64720179327345       -3.46748621377590        0.10381585663866
C           31.76904997575006       -2.45855494547413        0.15608251846223
C           32.52705822094393       -1.21877669978961        0.07671859006089
N           33.82443440925089       -1.44559718747646       -0.01993385275731
H           30.83122930045991        0.12317107914489        0.10754035549931
H           30.86956039899308        2.74527233765462        0.06895574802955
H           32.70752896726480        4.54904512862471        0.05793721476845
H           35.02029998848316        5.10321033363003       -2.02365439759410
H           35.01998613115023        8.69128531409325       -2.32159917093447
H           35.62179757072224        9.62233957819846        0.93166701221359
H           36.05403693839320        7.19384650762091        3.32461704133938
H           35.81163719215449        5.05442319479701        2.19941344091647
H           38.14290904932677        4.44664828386715        0.33921955504493
H           39.96827688708522        2.62289411105435        0.30881532123515
H           39.67285812216946       -2.64420543775565       -0.69373579917016
H           37.71510440267735       -4.50335167108612       -0.74472400516808
H           35.37767314306211       -5.20477267781916        1.97386501545996
H           35.35011126972583       -8.79393311992600        2.26039102954877
H           34.93704886952161       -9.71528170435441       -1.02452139482313
H           34.67123530443939       -7.28013184052243       -3.43508504276218
H           34.83231665130895       -5.14262443863256       -2.28794881609779
H           32.39876963933258       -4.52103774667804        0.13834826152021
H           30.69838489117185       -2.56084221588497        0.24026135793991
Co          58.18474256423317       -0.00540400379612       -0.01682536900766
C           61.53292271827966       -0.13794920700301        0.07044395915180
C           60.85856815377093       -1.30057517553147       -0.08480372257468
C           61.51243101876736       -2.59115601106792       -0.23240434910714
C           60.55706250589257       -3.51494706528022       -0.34612432458351
C           59.26256913361019       -2.83360079644682       -0.27195149549453
N           59.45845437398437       -1.44467750468452       -0.10791766181333
C           58.05333912945728       -3.46420347016858       -0.31317323837472
C           58.02891346653752       -4.94527625390073       -0.47503697262545
C           58.24399153267223       -5.52619023468535       -1.73106553824710
C           58.22170022481668       -6.91957490074366       -1.88566028843525
O           58.43557640589870       -7.44183179432920       -3.14878540317061
C           57.98696868784485       -7.74302322821194       -0.76414309763187
O           57.97472932126772       -9.11836192596322       -0.94285142221181
C           57.77393989949144       -7.15535532596137        0.49806087613474
O           57.54384570560818       -7.97468069544188        1.59241363437726
C           57.79630713264361       -5.76482954189712        0.63377585376569
C           56.78143430011491       -2.76415432088165       -0.19373112834222
C           55.49008291309702       -3.44341021064978       -0.14005250001825
C           54.54194436567016       -2.50368719676967       -0.04742260238119
N           56.62643452419729       -1.45033847763270       -0.13923904463890
C           55.21730152867772       -1.21891859621292       -0.05299731035954
C           54.60416984686692       -0.00387798261058       -0.02691350392721
C           55.38802480741588        1.23643552505663       -0.05415146170027
C           54.82191438621418        2.46583801434419       -0.23118746935073
C           55.85185087673233        3.43991375496350       -0.14932204650484
C           57.02606359093999        2.77810416511163        0.07131477567149
N           56.79783156587064        1.37745552474906        0.12014490625710
C           58.30606273925488        3.46091398481767        0.26208187798270
C           58.33292296118596        4.94705972848296        0.41175743546767
C           58.19578529137760        5.53231256003660        1.67624532700135
C           58.21902426267273        6.92689233481672        1.82482917601381
O           58.07726619325683        7.45235727564134        3.09665811031744
C           58.38237126039456        7.74834177391739        0.68909658108970
O           58.39749348825498        9.12413101384655        0.86297027333596
C           58.52380411863954        7.15724877698127       -0.58159137434006
O           58.68023648421408        7.97511776372613       -1.69036222707431
C           58.50333212635034        5.76516534904844       -0.71084358235485
C           59.48276516413598        2.79076165845651        0.30790485659912
C           60.79977146714254        3.38422759977064        0.49337562026837
C           61.67792473567042        2.37588546109510        0.43094840323148
C           60.91993509732616        1.15307197799289        0.21156427330931
N           59.62253084311095        1.38940016827739        0.14124622826334
H           62.61576223898280       -0.18368457148133        0.09009415512893
H           62.57743187160248       -2.78452568442803       -0.24544846141606
H           60.73945245535992       -4.57542366407438       -0.46084558873923
H           58.42667677177337       -4.89007864196352       -2.59183416941178
H           58.42694575646650       -8.42123009877415       -3.29458051606831
H           57.82519934932765       -9.71503005276799       -0.16776471302952
H           57.39295530139478       -7.57338895647188        2.48499588821797
H           57.63534721913924       -5.32027576013415        1.60955384616437
H           55.30400500559357       -4.50543725522305       -0.16977349199501
H           53.47840644178256       -2.68999920517485        0.00673365513454
H           53.77409061573426        2.65682749788679       -0.39237236989579
H           55.73188649687908        4.50967844217675       -0.23228411078581
H           58.06931799909884        4.89837537418874        2.54829307937580
H           58.09677987919900        8.43193660866276        3.23976774930254
H           58.50982004009767        9.71970216647263        0.08050740547223
H           58.77570954446861        7.57346446876682       -2.59058005464792
H           58.61467281664818        5.31967966612489       -1.69311401997603
H           61.04820691210872        4.42707890341278        0.64709916209382
H           62.74859276858918        2.46797746052881        0.52617721442320
C           40.67175252167559       -0.02051728703527       -0.02114420117602
C           41.90327570167870       -0.02692208038136       -0.02584216578835
C           51.54414764334192       -0.03551104412163       -0.02365390151831
C           52.77625679089374       -0.02274918713826       -0.02330720557073
Co          46.68596564614960       -0.02451852068190       -0.03614499586122
C           43.27474839043565        0.03095731206128        0.03952636498439
C           43.94469824319815        1.21932579954856        0.17203071708643
C           43.29252707209043        2.50434056939657        0.38340273868500
C           44.24164371771825        3.44219001062654        0.40584344613796
C           45.52903076989647        2.78177991358543        0.20867976557527
N           45.33836094157984        1.38708164882664        0.07514854445189
C           46.72703712673880        3.43325672628372        0.15507468074240
C           46.74705366826483        4.91612620410474        0.25924269369957
C           47.20498031760890        5.52968110263962        1.43030472600416
C           47.24720619924012        6.92433829469219        1.53602835406044
O           47.69608417319480        7.53353215417157        2.69534565098213
C           46.82919744934013        7.72278614941827        0.44668290338402
O           46.88455390389710        9.09952175408440        0.56957439213298
C           46.36675767125219        7.10009024842986       -0.73317506187599
O           45.96010459924313        7.88876435329071       -1.79900675546438
C           46.32489816146279        5.70551697771354       -0.81645619313741
C           48.00165403993570        2.75425406989323        0.00571114581855
C           49.26849181680135        3.44147419467623       -0.22692618671673
C           50.23222343626853        2.51247946857330       -0.25888210512941
N           48.17838806899632        1.44927283363738        0.09816158495739
C           49.56732493745361        1.24223844703443       -0.05126049662042
C           50.18227496859579        0.03334036580747        0.04994285343613
C           49.42717975178282       -1.20337184326458        0.24202560391881
C           49.98425104010842       -2.36330276418231        0.68793926899786
C           48.97233349369709       -3.36219325759417        0.62835717356968
C           47.84334994267265       -2.76853860164553        0.14557174531676
N           48.06486406377808       -1.39076992776057       -0.08389253858672
C           46.61053355625565       -3.49174963471958       -0.15545043390546
C           46.66707319485511       -4.96724146328789       -0.37383841648734
C           47.39488640749359       -5.48635356122156       -1.45148289391376
C           47.46304517330272       -6.86872907100287       -1.66932619608312
O           48.19149825008342       -7.32129801705045       -2.75431166963448
C           46.80126809843174       -7.75392736722971       -0.79230632448385
O           46.90309607994894       -9.11585607138120       -1.05450355785473
C           46.07367550558005       -7.23614324286715        0.29937483818054
O           45.40344555474341       -8.03969743239623        1.21065909755890
C           46.00938824467788       -5.84979573700866        0.49516378985687
C           45.42332317176117       -2.84653919090920       -0.25925829426360
C           44.14784223867557       -3.44745839031340       -0.60945340100926
C           43.24048803840790       -2.46598712678749       -0.55016556337822
C           43.94266844351485       -1.24640470258051       -0.16998683973438
N           45.23244729678821       -1.46219892576151       -0.01005714909421
H           42.23503889172693        2.70006638386718        0.50729625693374
H           44.05750364442277        4.49804428680895        0.55304781434844
H           47.52829317299046        4.91962256521752        2.26780754058729
H           47.97681930676045        6.98709147823694        3.47431210464539
H           46.59403013826524        9.67982173451389       -0.17866828129878
H           45.61194403870115        7.46528591892439       -2.62436064681098
H           45.97236024197527        5.23441250512542       -1.72833038899389
H           49.42551174535198        4.49982536694576       -0.35502702386266
H           51.28805903371596        2.70417595588677       -0.40847828460561
H           51.00867092290891       -2.49940143580870        1.00143507154381
H           49.07734158335010       -4.40379691518886        0.88771576133427
H           47.90540738057604       -4.80999049292259       -2.13006991940405
H           48.26178399429548       -8.29056991975327       -2.94476571062873
H           46.45419918148625       -9.79408984906334       -0.49601638853523
H           45.40537925079552       -9.02446678611185        1.15453872450809
H           45.45423250423520       -5.45657184373293        1.34058350136739
H           43.94384168895521       -4.47595122638208       -0.87597292964916
H           42.18964936279951       -2.58232036582247       -0.76482438011222
189
 energy: -374.839878239128 gnorm: 0.154005750381 xtb: 6.5.1 (b24c23e)
Co          35.28745171349169       -0.03223816731005       -0.01525090267410
C           31.91869567639978        0.05956319573498        0.08303253520493
C           32.60038330687214        1.25220091102912        0.05886029130638