      -----------------------------------------------------------      
     |                   =====================                   |     
     |                           x T B                           |     
     |                   =====================                   |     
     |                         S. Grimme                         |     
     |          Mulliken Center for Theoretical Chemistry        |     
     |                    University of Bonn                     |     
      -----------------------------------------------------------      

   * xtb version 6.5.1 (b24c23e) compiled by 'conda@728c89f4b128' on 2022-07-12

   xtb is free software: you can redistribute it and/or modify it under
   the terms of the GNU Lesser General Public License as published by
   the Free Software Foundation, either version 3 of the License, or
   (at your option) any later version.
   
   xtb is distributed in the hope that it will be useful,
   but WITHOUT ANY WARRANTY; without even the implied warranty of
   MERCHANTABILITY or FITNESS FOR A PARTICULAR PURPOSE.  See the
   GNU Lesser General Public License for more details.
   
   Cite this work as:
   * C. Bannwarth, E. Caldeweyher, S. Ehlert, A. Hansen, P. Pracht,
     J. Seibert, S. Spicher, S. Grimme, WIREs Comput. Mol. Sci., 2020, 11,
     e01493. DOI: 10.1002/wcms.1493
   
   for GFN2-xTB:
   * C. Bannwarth, S. Ehlert and S. Grimme., J. Chem. Theory Comput., 2019,
     15, 1652-1671. DOI: 10.1021/acs.jctc.8b01176
   for GFN1-xTB:
   * S. Grimme, C. Bannwarth, P. Shushkov, J. Chem. Theory Comput., 2017,
     13, 1989-2009. DOI: 10.1021/acs.jctc.7b00118
   for GFN0-xTB:
   * P. Pracht, E. Caldeweyher, S. Ehlert, S. Grimme, ChemRxiv, 2019, preprint.
     DOI: 10.26434/chemrxiv.8326202.v1
   for GFN-FF:
   * S. Spicher and S. Grimme, Angew. Chem. Int. Ed., 2020, 59, 15665-15673.
     DOI: 10.1002/anie.202004239
   
   for ALPB and GBSA implicit solvation:
   * S. Ehlert, M. Stahn, S. Spicher, S. Grimme, J. Chem. Theory Comput.,
     2021, 17, 4250-4261. DOI: 10.1021/acs.jctc.1c00471
   
   for DFT-D4:
   * E. Caldeweyher, C. Bannwarth and S. Grimme, J. Chem. Phys., 2017,
     147, 034112. DOI: 10.1063/1.4993215
   * E. Caldeweyher, S. Ehlert, A. Hansen, H. Neugebauer, S. Spicher,
     C. Bannwarth and S. Grimme, J. Chem. Phys., 2019, 150, 154122.
     DOI: 10.1063/1.5090222
   * E. Caldeweyher, J.-M. Mewes, S. Ehlert and S. Grimme, Phys. Chem. Chem. Phys.
     2020, 22, 8499-8512. DOI: 10.1039/D0CP00502A
   
   for sTDA-xTB:
   * S. Grimme and C. Bannwarth, J. Chem. Phys., 2016, 145, 054103.
     DOI: 10.1063/1.4959605
   
   in the mass-spec context:
   * V. Asgeirsson, C. Bauer and S. Grimme, Chem. Sci., 2017, 8, 4879.
     DOI: 10.1039/c7sc00601b
   * J. Koopman and S. Grimme, ACS Omega 2019, 4, 12, 15120-15133.
     DOI: 10.1021/acsomega.9b02011
   
   for metadynamics refer to:
   * S. Grimme, J. Chem. Theory Comput., 2019, 155, 2847-2862
     DOI: 10.1021/acs.jctc.9b00143
   
   for SPH calculations refer to:
   * S. Spicher and S. Grimme, J. Chem. Theory Comput., 2021, 17, 1701-1714
     DOI: 10.1021/acs.jctc.0c01306
   
   with help from (in alphabetical order)
   P. Atkinson, C. Bannwarth, F. Bohle, G. Brandenburg, E. Caldeweyher
   M. Checinski, S. Dohm, S. Ehlert, S. Ehrlich, I. Gerasimov, C. Hölzer
   A. Katbashev, J. Koopman, C. Lavigne, S. Lehtola, F. März, M. Müller,
   F. Musil, H. Neugebauer, J. Pisarek, C. Plett, P. Pracht, F. Pultar,
   J. Seibert, P. Shushkov, S. Spicher, M. Stahn, M. Steiner, T. Strunk,
   J. Stückrath, T. Rose, and J. Unsleber
   
 * started run on 2022/07/29 at 00:08:20.816     

           -------------------------------------------------
          |                Calculation Setup                |
           -------------------------------------------------

          program call               : xtb C2Py_C6_4.xyz --gfn 1 --opt -T 48
          hostname                   : cx3-14-14.cx3.hpc.ic.ac.uk
          coordinate file            : C2Py_C6_4.xyz
          omp threads                :                     1

   ID    Z sym.   atoms
    1    6 C      1-5, 7-12, 14-18, 20-25, 27-32, 34-39, 60-64, 66-71, 73-77,
                  79-84, 86-91, 93-98, 119-141, 143-148, 150-154, 156-161,
                  163-168, 170-175, 195-199, 201-206, 208-212, 214-219,
                  221-226, 228-233
    2    7 N      6, 13, 19, 26, 33, 40, 65, 72, 78, 85, 92, 99, 142, 149,
                  155, 162, 169, 176, 200, 207, 213, 220, 227, 234
    3    1 H      41-59, 100-118, 177-194, 235-252

molecular fragmentation (1/2 indicates fragments):
111111111111111111111111111111111111111111111111111111111112222222222222
222222222222222222222222222222222222222222222222222222222222222222222222
222222222222222222222222222222222222222222222222222222222222222222222222
222222222222222222222222222222222222
# atoms in fragment 1/2:    59   193
 fragment masses (1/2) :      511.56     1748.85
CMA distance (Bohr)    :  63.571
constraining FC (au)   :  0.0500
########################################################################
[WARNING] Please study the warnings concerning your input carefully
-1- prog_main_parseArguments: Unknown option '-T' provided
########################################################################

           -------------------------------------------------
          |                 G F N 1 - x T B                 |
           -------------------------------------------------

        Reference                      10.1021/acs.jctc.7b00118
      * Hamiltonian:
        H0-scaling (s, p, d)           1.850000    2.250000    2.000000
        zeta-weighting                 0.000000
      * Dispersion:
        s8                             2.400000
        a1                             0.630000
        a2                             5.000000
        s9                             0.000000
      * Repulsion:
        kExp                           1.500000
        rExp                           1.000000
      * Coulomb:
        alpha                          2.000000
        third order                    atomic
        anisotropic                    false
      * Halogen bond correction:
        rad-scale                      1.300000
        damping                        0.440000


          ...................................................
          :                      SETUP                      :
          :.................................................:
          :  # basis functions                 860          :
          :  # atomic orbitals                 860          :
          :  # shells                          504          :
          :  # electrons                       810          :
          :  # halogen bonds                     0          :
          :  max. iterations                   250          :
          :  Hamiltonian                  GFN1-xTB          :
          :  restarted?                      false          :
          :  GBSA solvation                  false          :
          :  PC potential                    false          :
          :  electronic temp.          300.0000000     K    :
          :  accuracy                    1.0000000          :
          :  -> integral cutoff          0.2500000E+02      :
          :  -> integral neglect         0.1000000E-07      :
          :  -> SCF convergence          0.1000000E-05 Eh   :
          :  -> wf. convergence          0.2000000E-04 e    :
          :  Broyden damping             0.4000000          :
          ...................................................

 iter      E             dE          RMSdq      gap      omega  full diag
   1   -447.1844141 -0.447184E+03  0.105E+01    0.00       0.0  T
   2   -444.9283804  0.225603E+01  0.655E+00    0.01       1.0  T
   3    -17.5432589  0.427385E+03  0.107E+01    0.04       1.0  T
   4    208.1420087  0.225685E+03  0.118E+01    0.00       1.0  T
   5   -417.9324696 -0.626074E+03  0.402E+00    0.02       1.0  T
   6   -418.9768674 -0.104440E+01  0.321E+00    0.09       1.0  T
   7   -443.7642968 -0.247874E+02  0.170E+00    0.29       1.0  T
   8   -446.9231600 -0.315886E+01  0.102E+00    0.13       1.0  T
   9   -446.8937567  0.294034E-01  0.866E-01    0.24       1.0  T
  10   -447.7289612 -0.835205E+00  0.438E-01    0.16       1.0  T
  11   -446.9752719  0.753689E+00  0.835E-01    0.15       1.0  T
  12   -447.7517259 -0.776454E+00  0.289E-01    0.16       1.0  T
  13   -447.7776950 -0.259691E-01  0.254E-01    0.16       1.0  T
  14   -447.7921197 -0.144248E-01  0.184E-01    0.16       1.0  T
  15   -447.7951142 -0.299447E-02  0.145E-01    0.10       1.0  T
  16   -447.8041956 -0.908135E-02  0.111E-01    0.22       1.0  T
  17   -447.8122500 -0.805448E-02  0.746E-02    0.16       1.0  T
  18   -447.8149960 -0.274594E-02  0.571E-02    0.15       1.0  T
  19   -447.8113220  0.367395E-02  0.856E-02    0.09       1.0  T
  20   -447.8166738 -0.535172E-02  0.415E-02    0.13       1.0  T
  21   -447.8151558  0.151792E-02  0.483E-02    0.11       1.0  T
  22   -447.8167936 -0.163778E-02  0.351E-02    0.12       1.0  T
  23   -447.8169941 -0.200495E-03  0.287E-02    0.12       1.0  T
  24   -447.8175759 -0.581806E-03  0.184E-02    0.12       1.0  T
  25   -447.8176934 -0.117437E-03  0.131E-02    0.12       1.0  T
  26   -447.8177023 -0.896796E-05  0.129E-02    0.12       1.0  T
  27   -447.8177816 -0.793158E-04  0.759E-03    0.12       1.0  T
  28   -447.8178008 -0.191669E-04  0.592E-03    0.12       1.1  T
  29   -447.8178192 -0.183874E-04  0.335E-03    0.12       1.9  T
  30   -447.8178218 -0.265321E-05  0.264E-03    0.12       2.4  T
  31   -447.8178261 -0.430092E-05  0.222E-03    0.12       2.8  T
  32   -447.8178294 -0.321244E-05  0.141E-03    0.12       4.5  T
  33   -447.8178309 -0.152941E-05  0.120E-03    0.12       5.3  T
  34   -447.8178319 -0.103418E-05  0.708E-04    0.12       8.9  T
  35   -447.8178324 -0.452222E-06  0.215E-04    0.12      29.2  T
  36   -447.8178324 -0.502109E-07  0.930E-05    0.12      67.8  T
  37   -447.8178324  0.115664E-07  0.136E-04    0.12      46.2  T

   *** convergence criteria satisfied after 37 iterations ***

         #    Occupation            Energy/Eh            Energy/eV
      -------------------------------------------------------------
         1        2.0000           -0.8090977             -22.0167
       ...           ...                  ...                  ...
       399        2.0000           -0.4147569             -11.2861
       400        2.0000           -0.4146707             -11.2838
       401        2.0000           -0.4146090             -11.2821
       402        1.9981           -0.3876732             -10.5491
       403        1.9975           -0.3874143             -10.5421
       404        1.9974           -0.3873451             -10.5402
       405        1.7747           -0.3830094             -10.4222 (HOMO)
       406        0.1182           -0.3784190             -10.2973 (LUMO)
       407        0.1142           -0.3783844             -10.2964
       408        0.0000           -0.3684866             -10.0270
       409                         -0.3648930              -9.9292
       410                         -0.3637878              -9.8992
       ...                                ...                  ...
       860                          1.5107190              41.1088
      -------------------------------------------------------------
                  HL-Gap            0.0045904 Eh            0.1249 eV
             Fermi-level           -0.3810487 Eh          -10.3689 eV

 SCC (total)                   0 d,  0 h,  0 min, 15.407 sec
 SCC setup                      ...        0 min,  0.029 sec (  0.189%)
 Dispersion                     ...        0 min,  0.019 sec (  0.121%)
 classical contributions        ...        0 min,  0.004 sec (  0.025%)
 integral evaluation            ...        0 min,  0.453 sec (  2.939%)
 iterations                     ...        0 min, 13.860 sec ( 89.957%)
 molecular gradient             ...        0 min,  0.967 sec (  6.278%)
 printout                       ...        0 min,  0.076 sec (  0.491%)

         :::::::::::::::::::::::::::::::::::::::::::::::::::::
         ::                     SUMMARY                     ::
         :::::::::::::::::::::::::::::::::::::::::::::::::::::
         :: total energy            -440.051122094256 Eh    ::
         :: gradient norm              0.574811053711 Eh/a0 ::
         :: HOMO-LUMO gap              0.124910707098 eV    ::
         ::.................................................::
         :: SCC energy              -447.817832414105 Eh    ::
         :: -> electrostatic           0.362860077238 Eh    ::
         :: repulsion energy           7.959966346544 Eh    ::
         :: dispersion energy         -0.193256026694 Eh    ::
         :: halogen bond corr.         0.000000000000 Eh    ::
         :: add. restraining           0.000000000000 Eh    ::
         :: total charge              -0.000000000000 e     ::
         :::::::::::::::::::::::::::::::::::::::::::::::::::::

      ----------------------------------------------------------- 
     |                   =====================                   |
     |                        A N C O P T                        |
     |                   =====================                   |
     |               Approximate Normal Coordinate               |
     |                Rational Function Optimizer                |
      ----------------------------------------------------------- 

          ...................................................
          :                      SETUP                      :
          :.................................................:
          :   optimization level            normal          :
          :   max. optcycles                   756          :
          :   ANC micro-cycles                  20          :
          :   degrees of freedom               750          :
          :.................................................:
          :   RF solver                   davidson          :
          :   write xtbopt.log                true          :
          :   linear?                        false          :
          :   energy convergence         0.5000000E-05 Eh   :
          :   grad. convergence          0.1000000E-02 Eh/α :
          :   maximium RF displ.         1.0000000          :
          :   Hlow (freq-cutoff)         0.1000000E-01      :
          :   Hmax (freq-cutoff)         5.0000000          :
          :   S6 in model hess.         20.0000000          :
          ...................................................

generating ANC from model Hessian ...
Using Lindh-Hessian (1995)
 Shifting diagonal of input Hessian by    1.0024396864290793E-002
 Lowest  eigenvalues of input Hessian
    0.010000    0.010007    0.010015    0.010018    0.010022    0.010024
    0.010024    0.000000    0.000000    0.000000    0.000000    0.000000
    0.000000    0.010025    0.010026    0.010028    0.010030    0.010034
 Highest eigenvalues
    2.635470    2.636205    2.636206    2.786708    2.802267    2.823492


........................................................................
.............................. CYCLE    1 ..............................
........................................................................
   1   -447.8178324 -0.447818E+03  0.509E-05    0.12       0.0  T
   2   -447.8178322  0.196657E-06  0.391E-04    0.12      16.1  T
   3   -447.8178324 -0.161695E-06  0.156E-04    0.12      40.3  T
   4   -447.8178324 -0.236503E-07  0.945E-05    0.12      66.7  T
     SCC iter.                  ...        0 min,  1.487 sec
     gradient                   ...        0 min,  0.958 sec
 * total energy  :  -440.0511221 Eh     change       -0.3949310E-08 Eh
   gradient norm :     0.5748108 Eh/α   predicted     0.0000000E+00 (-100.00%)
   displ. norm   :     0.4861230 α      lambda       -0.2139913E+00
   maximum displ.:     0.0869711 α      in ANC's #584, #664, #192, ...

........................................................................
.............................. CYCLE    2 ..............................
........................................................................
   1   -447.7123991 -0.447712E+03  0.896E-02    0.14       0.0  T
   2   -447.5670413  0.145358E+00  0.384E-01    0.01       1.0  T
   3   -447.7017132 -0.134672E+00  0.141E-01    0.23       1.0  T
   4   -447.7158153 -0.141021E-01  0.459E-02    0.11       1.0  T
   5   -447.6636037  0.522116E-01  0.200E-01    0.03       1.0  T
   6   -447.7113209 -0.477172E-01  0.712E-02    0.09       1.0  T
   7   -447.7153342 -0.401326E-02  0.360E-02    0.11       1.0  T
   8   -447.7163184 -0.984218E-03  0.202E-02    0.11       1.0  T
   9   -447.7168575 -0.539085E-03  0.663E-03    0.12       1.0  T
  10   -447.7168845 -0.270183E-04  0.415E-03    0.12       1.5  T
  11   -447.7168899 -0.535875E-05  0.311E-03    0.12       2.0  T
  12   -447.7169013 -0.114305E-04  0.140E-03    0.12       4.5  T
  13   -447.7169030 -0.173299E-05  0.722E-04    0.12       8.7  T
  14   -447.7169036 -0.604362E-06  0.289E-04    0.12      21.8  T
  15   -447.7169035  0.984921E-07  0.369E-04    0.12      17.1  T
  16   -447.7169037 -0.152223E-06  0.145E-04    0.12      43.5  T
  17   -447.7169037 -0.921875E-08  0.109E-04    0.12      57.9  T
     SCC iter.                  ...        0 min,  6.381 sec
     gradient                   ...        0 min,  0.964 sec
 * total energy  :  -440.2220586 Eh     change       -0.1709365E+00 Eh
   gradient norm :     0.3270618 Eh/α   predicted    -0.1323476E+00 ( -22.57%)
   displ. norm   :     0.5885060 α      lambda       -0.1560761E+00
   maximum displ.:     0.1120015 α      in ANC's #664, #584, #192, ...

........................................................................
.............................. CYCLE    3 ..............................
........................................................................
   1   -447.7080396 -0.447708E+03  0.134E-01    0.15       0.0  T
   2   -447.4978216  0.210218E+00  0.511E-01    0.02       1.0  T
   3   -447.6874360 -0.189614E+00  0.211E-01    0.25       1.0  T
   4   -447.7085279 -0.210919E-01  0.101E-01    0.07       1.0  T
   5   -447.6089382  0.995897E-01  0.292E-01    0.01       1.0  T
   6   -447.7170622 -0.108124E+00  0.493E-02    0.15       1.0  T
   7   -447.7177756 -0.713440E-03  0.502E-02    0.10       1.0  T
   8   -447.7087079  0.906778E-02  0.886E-02    0.06       1.0  T
   9   -447.7106760 -0.196810E-02  0.779E-02    0.07       1.0  T
  10   -447.7190257 -0.834974E-02  0.189E-02    0.13       1.0  T
  11   -447.7192702 -0.244484E-03  0.109E-02    0.13       1.0  T
  12   -447.7193398 -0.696382E-04  0.789E-03    0.12       1.0  T
  13   -447.7193817 -0.418597E-04  0.577E-03    0.12       1.1  T
  14   -447.7194137 -0.319731E-04  0.323E-03    0.12       1.9  T
  15   -447.7194239 -0.102270E-04  0.162E-03    0.12       3.9  T
  16   -447.7194262 -0.229178E-05  0.885E-04    0.12       7.1  T
  17   -447.7194272 -0.100731E-05  0.267E-04    0.12      23.6  T
  18   -447.7194273 -0.721079E-07  0.133E-04    0.12      47.3  T
  19   -447.7194273 -0.144512E-07  0.849E-05    0.12      74.2  T
     SCC iter.                  ...        0 min,  7.158 sec
     gradient                   ...        0 min,  0.961 sec
 * total energy  :  -440.3223941 Eh     change       -0.1003356E+00 Eh
   gradient norm :     0.0950009 Eh/α   predicted    -0.1050657E+00 (   4.71%)
   displ. norm   :     0.6762585 α      lambda       -0.4205546E-01
   maximum displ.:     0.2028477 α      in ANC's #92, #86, #192, ...

........................................................................
.............................. CYCLE    4 ..............................
........................................................................
   1   -447.8050944 -0.447805E+03  0.665E-02    0.15       0.0  T
   2   -447.5813450  0.223749E+00  0.452E-01    0.05       1.0  T
   3   -447.7892155 -0.207870E+00  0.160E-01    0.10       1.0  T
   4   -447.8059667 -0.167512E-01  0.470E-02    0.16       1.0  T
   5   -447.7956521  0.103146E-01  0.978E-02    0.07       1.0  T
   6   -447.8069485 -0.112964E-01  0.392E-02    0.11       1.0  T
   7   -447.8068187  0.129770E-03  0.352E-02    0.10       1.0  T
   8   -447.8081540 -0.133527E-02  0.149E-02    0.11       1.0  T
   9   -447.8080337  0.120278E-03  0.172E-02    0.11       1.0  T
  10   -447.8083909 -0.357208E-03  0.501E-03    0.12       1.3  T
  11   -447.8084161 -0.252446E-04  0.239E-03    0.12       2.6  T
  12   -447.8084204 -0.429902E-05  0.145E-03    0.12       4.3  T
  13   -447.8084232 -0.278899E-05  0.462E-04    0.12      13.6  T
  14   -447.8084235 -0.264370E-06  0.175E-04    0.12      36.1  T
  15   -447.8084235  0.185897E-07  0.214E-04    0.12      29.4  T
  16   -447.8084235 -0.420396E-07  0.994E-05    0.12      63.4  T
     SCC iter.                  ...        0 min,  6.036 sec
     gradient                   ...        0 min,  0.972 sec
 * total energy  :  -440.3550238 Eh     change       -0.3262964E-01 Eh
   gradient norm :     0.0600797 Eh/α   predicted    -0.3064446E-01 (  -6.08%)
   displ. norm   :     0.7682143 α      lambda       -0.2772464E-01
   maximum displ.:     0.2689895 α      in ANC's #92, #86, #67, ...

........................................................................
.............................. CYCLE    5 ..............................
........................................................................
   1   -447.9006595 -0.447901E+03  0.486E-02    0.16       0.0  T
   2   -447.6517826  0.248877E+00  0.450E-01    0.06       1.0  T
   3   -447.8887266 -0.236944E+00  0.120E-01    0.08       1.0  T
   4   -447.8996471 -0.109205E-01  0.488E-02    0.18       1.0  T
   5   -447.9011307 -0.148359E-02  0.330E-02    0.12       1.0  T
   6   -447.9021309 -0.100017E-02  0.161E-02    0.14       1.0  T
   7   -447.9023711 -0.240253E-03  0.104E-02    0.13       1.0  T
   8   -447.9024298 -0.586406E-04  0.616E-03    0.12       1.0  T
   9   -447.9022738  0.155968E-03  0.115E-02    0.12       1.0  T
  10   -447.9024395 -0.165730E-03  0.397E-03    0.13       1.6  T
  11   -447.9024614 -0.219123E-04  0.962E-04    0.13       6.5  T
  12   -447.9024621 -0.671380E-06  0.531E-04    0.13      11.9  T
  13   -447.9024625 -0.346930E-06  0.130E-04    0.13      48.3  T
  14   -447.9024624  0.150063E-07  0.157E-04    0.13      40.2  T
     SCC iter.                  ...        0 min,  5.244 sec
     gradient                   ...        0 min,  0.980 sec
 * total energy  :  -440.3781318 Eh     change       -0.2310804E-01 Eh
   gradient norm :     0.0341670 Eh/α   predicted    -0.2204324E-01 (  -4.61%)
   displ. norm   :     0.8442115 α      lambda       -0.2114385E-01
   maximum displ.:     0.3014661 α      in ANC's #92, #86, #67, ...

........................................................................
.............................. CYCLE    6 ..............................
........................................................................
   1   -447.9734657 -0.447973E+03  0.412E-02    0.18       0.0  T
   2   -447.7236755  0.249790E+00  0.440E-01    0.04       1.0  T
   3   -447.9710449 -0.247369E+00  0.594E-02    0.11       1.0  T
   4   -447.9733480 -0.230314E-02  0.367E-02    0.19       1.0  T
   5   -447.9742096 -0.861609E-03  0.258E-02    0.15       1.0  T
   6   -447.9744805 -0.270854E-03  0.208E-02    0.15       1.0  T
   7   -447.9747760 -0.295533E-03  0.132E-02    0.15       1.0  T
   8   -447.9749672 -0.191199E-03  0.605E-03    0.14       1.0  T
   9   -447.9748616  0.105640E-03  0.103E-02    0.13       1.0  T
  10   -447.9749735 -0.111908E-03  0.536E-03    0.13       1.2  T
  11   -447.9750042 -0.307170E-04  0.192E-03    0.14       3.3  T
  12   -447.9750078 -0.361727E-05  0.955E-04    0.14       6.6  T
  13   -447.9750090 -0.120448E-05  0.191E-04    0.14      33.0  T
  14   -447.9750090 -0.264395E-07  0.107E-04    0.14      58.7  T
  15   -447.9750090 -0.821927E-08  0.633E-05    0.14      99.5  T
     SCC iter.                  ...        0 min,  5.715 sec
     gradient                   ...        0 min,  1.012 sec
 * total energy  :  -440.3967852 Eh     change       -0.1865340E-01 Eh
   gradient norm :     0.0290705 Eh/α   predicted    -0.1810648E-01 (  -2.93%)
   displ. norm   :     0.9174553 α      lambda       -0.1967884E-01
   maximum displ.:     0.2894035 α      in ANC's #86, #92, #13, ...

........................................................................
.............................. CYCLE    7 ..............................
........................................................................
   1   -448.0223986 -0.448022E+03  0.460E-02    0.22       0.0  T
   2   -447.8816589  0.140740E+00  0.331E-01    0.01       1.0  T
   3   -448.0207426 -0.139084E+00  0.717E-02    0.20       1.0  T
   4   -448.0229067 -0.216404E-02  0.355E-02    0.22       1.0  T
   5   -448.0235565 -0.649793E-03  0.288E-02    0.20       1.0  T
   6   -448.0240411 -0.484651E-03  0.160E-02    0.19       1.0  T
   7   -448.0242905 -0.249385E-03  0.645E-03    0.16       1.0  T
   8   -448.0237940  0.496505E-03  0.206E-02    0.14       1.0  T
   9   -448.0239310 -0.136987E-03  0.170E-02    0.13       1.0  T
  10   -448.0242838 -0.352803E-03  0.522E-03    0.15       1.2  T
  11   -448.0243160 -0.321535E-04  0.114E-03    0.15       5.5  T
  12   -448.0243173 -0.135176E-05  0.317E-04    0.16      19.9  T
  13   -448.0243173 -0.332595E-07  0.230E-04    0.16      27.4  T
  14   -448.0243174 -0.622255E-07  0.489E-05    0.16     128.8  T
  15   -448.0243174  0.410398E-08  0.657E-05    0.16      95.9  T
     SCC iter.                  ...        0 min,  5.468 sec
     gradient                   ...        0 min,  0.980 sec
 * total energy  :  -440.4149337 Eh     change       -0.1814850E-01 Eh
   gradient norm :     0.0337136 Eh/α   predicted    -0.1812154E-01 (  -0.15%)
   displ. norm   :     0.9450944 α      lambda       -0.2037733E-01
   maximum displ.:     0.3323336 α      in ANC's #53, #13, #86, ...

........................................................................
.............................. CYCLE    8 ..............................
........................................................................
   1   -448.0516586 -0.448052E+03  0.548E-02    0.30       0.0  T
   2   -448.0252552  0.264034E-01  0.173E-01    0.07       1.0  T
   3   -448.0516929 -0.264377E-01  0.625E-02    0.27       1.0  T
   4   -448.0536581 -0.196525E-02  0.251E-02    0.26       1.0  T
   5   -448.0538638 -0.205677E-03  0.209E-02    0.19       1.0  T
   6   -448.0533801  0.483740E-03  0.255E-02    0.16       1.0  T
   7   -448.0539468 -0.566771E-03  0.942E-03    0.18       1.0  T
   8   -448.0540296 -0.827143E-04  0.297E-03    0.20       2.1  T
   9   -448.0540285  0.106385E-05  0.237E-03    0.19       2.7  T
  10   -448.0540344 -0.587496E-05  0.381E-04    0.20      16.5  T
  11   -448.0540345 -0.109341E-06  0.126E-04    0.20      49.9  T
  12   -448.0540345 -0.665625E-08  0.717E-05    0.20      87.8  T
     SCC iter.                  ...        0 min,  4.520 sec
     gradient                   ...        0 min,  0.969 sec
 * total energy  :  -440.4359296 Eh     change       -0.2099591E-01 Eh
   gradient norm :     0.0416931 Eh/α   predicted    -0.1928923E-01 (  -8.13%)
   displ. norm   :     0.9163646 α      lambda       -0.2275108E-01
   maximum displ.:     0.3485366 α      in ANC's #53, #13, #67, ...

........................................................................
.............................. CYCLE    9 ..............................
........................................................................
   1   -448.0651746 -0.448065E+03  0.493E-02    0.42       0.0  T
   2   -448.0634707  0.170398E-02  0.945E-02    0.28       1.0  T
   3   -448.0667263 -0.325564E-02  0.242E-02    0.31       1.0  T
   4   -448.0666902  0.360786E-04  0.193E-02    0.33       1.0  T
   5   -448.0668295 -0.139251E-03  0.731E-03    0.32       1.0  T
   6   -448.0668440 -0.145008E-04  0.370E-03    0.32       1.7  T
   7   -448.0668492 -0.524065E-05  0.907E-04    0.32       6.9  T
   8   -448.0668498 -0.549577E-06  0.465E-04    0.32      13.5  T
   9   -448.0668498 -0.739878E-07  0.159E-04    0.32      39.7  T
  10   -448.0668499 -0.764720E-08  0.883E-05    0.32      71.3  T
     SCC iter.                  ...        0 min,  3.777 sec
     gradient                   ...        0 min,  0.976 sec
 * total energy  :  -440.4607626 Eh     change       -0.2483292E-01 Eh
   gradient norm :     0.0564892 Eh/α   predicted    -0.2092788E-01 ( -15.73%)
   displ. norm   :     0.8714401 α      lambda       -0.2803359E-01
   maximum displ.:     0.3583508 α      in ANC's #53, #67, #13, ...

........................................................................
.............................. CYCLE   10 ..............................
........................................................................
   1   -448.0675859 -0.448068E+03  0.473E-02    0.63       0.0  T
   2   -448.0672568  0.329104E-03  0.697E-02    0.60       1.0  T
   3   -448.0688388 -0.158199E-02  0.187E-02    0.61       1.0  T
   4   -448.0688077  0.311232E-04  0.129E-02    0.64       1.0  T
   5   -448.0688695 -0.618215E-04  0.548E-03    0.63       1.2  T
   6   -448.0688780 -0.854387E-05  0.194E-03    0.64       3.2  T
   7   -448.0688796 -0.158529E-05  0.654E-04    0.64       9.6  T
   8   -448.0688799 -0.319721E-06  0.324E-04    0.64      19.4  T
   9   -448.0688800 -0.511452E-07  0.127E-04    0.64      49.7  T
  10   -448.0688800 -0.373467E-08  0.587E-05    0.63     107.3  T
     SCC iter.                  ...        0 min,  3.780 sec
     gradient                   ...        0 min,  0.978 sec
 * total energy  :  -440.4916708 Eh     change       -0.3090825E-01 Eh
   gradient norm :     0.0710364 Eh/α   predicted    -0.2466125E-01 ( -20.21%)
   displ. norm   :     0.8407963 α      lambda       -0.3492871E-01
   maximum displ.:     0.3570242 α      in ANC's #53, #67, #13, ...

........................................................................
.............................. CYCLE   11 ..............................
........................................................................
   1   -448.0654140 -0.448065E+03  0.464E-02    0.81       0.0  T
   2   -448.0656694 -0.255440E-03  0.544E-02    0.85       1.0  T
   3   -448.0664031 -0.733677E-03  0.185E-02    0.85       1.0  T
   4   -448.0663599  0.431636E-04  0.110E-02    0.85       1.0  T
   5   -448.0664043 -0.443461E-04  0.552E-03    0.85       1.1  T
   6   -448.0664187 -0.144227E-04  0.166E-03    0.85       3.8  T
   7   -448.0664202 -0.154762E-05  0.563E-04    0.85      11.2  T
   8   -448.0664204 -0.183362E-06  0.281E-04    0.85      22.4  T
   9   -448.0664204 -0.343139E-07  0.130E-04    0.85      48.6  T
  10   -448.0664205 -0.788060E-08  0.503E-05    0.85     125.2  T
     SCC iter.                  ...        0 min,  3.734 sec
     gradient                   ...        0 min,  0.976 sec
 * total energy  :  -440.5291975 Eh     change       -0.3752670E-01 Eh
   gradient norm :     0.0818754 Eh/α   predicted    -0.2981060E-01 ( -20.56%)
   displ. norm   :     0.8299115 α      lambda       -0.4091626E-01
   maximum displ.:     0.3649958 α      in ANC's #53, #67, #13, ...

........................................................................
.............................. CYCLE   12 ..............................
........................................................................
   1   -448.0629545 -0.448063E+03  0.446E-02    0.85       0.0  T
   2   -448.0632954 -0.340914E-03  0.461E-02    0.85       1.0  T
   3   -448.0636354 -0.339997E-03  0.199E-02    0.85       1.0  T
   4   -448.0635635  0.718615E-04  0.114E-02    0.85       1.0  T
   5   -448.0636257 -0.621487E-04  0.475E-03    0.85       1.3  T
   6   -448.0636438 -0.181164E-04  0.135E-03    0.85       4.7  T
   7   -448.0636449 -0.105036E-05  0.563E-04    0.85      11.2  T
   8   -448.0636451 -0.204018E-06  0.223E-04    0.85      28.3  T
   9   -448.0636451 -0.279334E-07  0.108E-04    0.85      58.5  T
  10   -448.0636451 -0.428571E-08  0.448E-05    0.85     140.5  T
     SCC iter.                  ...        0 min,  3.784 sec
     gradient                   ...        0 min,  0.982 sec
 * total energy  :  -440.5709429 Eh     change       -0.4174544E-01 Eh
   gradient norm :     0.0835904 Eh/α   predicted    -0.3454873E-01 ( -17.24%)
   displ. norm   :     0.8346401 α      lambda       -0.4195255E-01
   maximum displ.:     0.3786327 α      in ANC's #53, #13, #67, ...

........................................................................
.............................. CYCLE   13 ..............................
........................................................................
   1   -448.0671942 -0.448067E+03  0.418E-02    0.85       0.0  T
   2   -448.0674339 -0.239720E-03  0.425E-02    0.85       1.0  T
   3   -448.0676481 -0.214222E-03  0.206E-02    0.85       1.0  T
   4   -448.0675448  0.103345E-03  0.134E-02    0.85       1.0  T
   5   -448.0676466 -0.101796E-03  0.326E-03    0.85       1.9  T
   6   -448.0676539 -0.730152E-05  0.123E-03    0.85       5.1  T
   7   -448.0676549 -0.104401E-05  0.578E-04    0.85      10.9  T
   8   -448.0676552 -0.245449E-06  0.162E-04    0.85      38.9  T
   9   -448.0676552 -0.108099E-07  0.760E-05    0.85      82.9  T
     SCC iter.                  ...        0 min,  3.389 sec
     gradient                   ...        0 min,  0.980 sec
 * total energy  :  -440.6108475 Eh     change       -0.3990454E-01 Eh
   gradient norm :     0.0783836 Eh/α   predicted    -0.3558889E-01 ( -10.81%)
   displ. norm   :     0.9114943 α      lambda       -0.5022509E-01
   maximum displ.:     0.3698473 α      in ANC's #53, #13, #67, ...

........................................................................
.............................. CYCLE   14 ..............................
........................................................................
   1   -448.0684571 -0.448068E+03  0.599E-02    0.85       0.0  T
   2   -448.0688202 -0.363132E-03  0.622E-02    0.85       1.0  T
   3   -448.0692963 -0.476153E-03  0.317E-02    0.84       1.0  T
   4   -448.0689945  0.301818E-03  0.236E-02    0.84       1.0  T
   5   -448.0692942 -0.299642E-03  0.476E-03    0.84       1.3  T
   6   -448.0693073 -0.131322E-04  0.147E-03    0.84       4.3  T
   7   -448.0693084 -0.113213E-05  0.670E-04    0.84       9.4  T
   8   -448.0693088 -0.388209E-06  0.200E-04    0.84      31.5  T
   9   -448.0693088 -0.187604E-07  0.852E-05    0.84      74.0  T
     SCC iter.                  ...        0 min,  3.384 sec
     gradient                   ...        0 min,  0.989 sec
 * total energy  :  -440.6460844 Eh     change       -0.3523696E-01 Eh
   gradient norm :     0.0665667 Eh/α   predicted    -0.4597664E-01 (  30.48%)
   displ. norm   :     0.7880605 α      lambda       -0.2794057E-01
   maximum displ.:     0.3427938 α      in ANC's #13, #53, #67, ...

........................................................................
.............................. CYCLE   15 ..............................
........................................................................
   1   -448.1088979 -0.448109E+03  0.136E-02    0.85       0.0  T
   2   -448.1088983 -0.465995E-06  0.121E-02    0.85       1.0  T
   3   -448.1089471 -0.487832E-04  0.522E-03    0.85       1.2  T
   4   -448.1089411  0.604191E-05  0.492E-03    0.85       1.3  T
   5   -448.1089532 -0.120743E-04  0.968E-04    0.85       6.5  T
   6   -448.1089534 -0.249524E-06  0.359E-04    0.85      17.5  T
   7   -448.1089535 -0.773620E-07  0.161E-04    0.85      39.2  T
   8   -448.1089535 -0.156981E-07  0.670E-05    0.85      94.0  T
     SCC iter.                  ...        0 min,  3.039 sec
     gradient                   ...        0 min,  0.987 sec
 * total energy  :  -440.6695099 Eh     change       -0.2342545E-01 Eh
   gradient norm :     0.0515092 Eh/α   predicted    -0.2264641E-01 (  -3.33%)
   displ. norm   :     0.8732380 α      lambda       -0.3192895E-01
   maximum displ.:     0.3549820 α      in ANC's #13, #53, #67, ...

........................................................................
.............................. CYCLE   16 ..............................
........................................................................
   1   -448.1589370 -0.448159E+03  0.289E-02    0.85       0.0  T
   2   -448.1590927 -0.155639E-03  0.251E-02    0.85       1.0  T
   3   -448.1592279 -0.135235E-03  0.126E-02    0.85       1.0  T
   4   -448.1591502  0.776984E-04  0.108E-02    0.85       1.0  T
   5   -448.1592364 -0.862374E-04  0.262E-03    0.85       2.4  T
   6   -448.1592376 -0.113368E-05  0.518E-04    0.85      12.2  T
   7   -448.1592377 -0.111736E-06  0.236E-04    0.85      26.7  T
   8   -448.1592377 -0.246125E-07  0.125E-04    0.85      50.4  T
   9   -448.1592377 -0.851747E-08  0.462E-05    0.85     136.2  T
     SCC iter.                  ...        0 min,  3.393 sec
     gradient                   ...        0 min,  0.961 sec
 * total energy  :  -440.6874381 Eh     change       -0.1792820E-01 Eh
   gradient norm :     0.0775876 Eh/α   predicted    -0.2813810E-01 (  56.95%)
   displ. norm   :     0.7816365 α      lambda       -0.2539206E-01
   maximum displ.:     0.3733087 α      in ANC's #13, #53, #67, ...

........................................................................
.............................. CYCLE   17 ..............................
........................................................................
   1   -448.1970072 -0.448197E+03  0.254E-02    0.84       0.0  T
   2   -448.1970573 -0.500566E-04  0.244E-02    0.84       1.0  T
   3   -448.1971342 -0.769060E-04  0.115E-02    0.84       1.0  T
   4   -448.1970805  0.536379E-04  0.936E-03    0.84       1.0  T
   5   -448.1971347 -0.541423E-04  0.174E-03    0.84       3.6  T
   6   -448.1971369 -0.220150E-05  0.383E-04    0.84      16.4  T
   7   -448.1971369 -0.492847E-07  0.263E-04    0.84      23.9  T
   8   -448.1971370 -0.619067E-07  0.668E-05    0.84      94.3  T
   9   -448.1971370 -0.157979E-08  0.317E-05    0.84     198.7  T
     SCC iter.                  ...        0 min,  3.384 sec
     gradient                   ...        0 min,  0.983 sec
 * total energy  :  -440.7077216 Eh     change       -0.2028353E-01 Eh
   gradient norm :     0.0428531 Eh/α   predicted    -0.2045273E-01 (   0.83%)
   displ. norm   :     0.8542407 α      lambda       -0.1975047E-01
   maximum displ.:     0.4100012 α      in ANC's #13, #53, #28, ...

........................................................................
.............................. CYCLE   18 ..............................
........................................................................
   1   -448.2576529 -0.448258E+03  0.137E-02    0.83       0.0  T
   2   -448.2576603 -0.735138E-05  0.998E-03    0.83       1.0  T
   3   -448.2576805 -0.201870E-04  0.536E-03    0.83       1.2  T
   4   -448.2576867 -0.626308E-05  0.453E-03    0.83       1.4  T
   5   -448.2576979 -0.111491E-04  0.132E-03    0.83       4.8  T
   6   -448.2576989 -0.100943E-05  0.451E-04    0.83      14.0  T
   7   -448.2576991 -0.158213E-06  0.107E-04    0.83      58.6  T
   8   -448.2576991 -0.532020E-08  0.408E-05    0.83     154.3  T
     SCC iter.                  ...        0 min,  3.226 sec
     gradient                   ...        0 min,  0.994 sec
 * total energy  :  -440.7239986 Eh     change       -0.1627701E-01 Eh
   gradient norm :     0.0339751 Eh/α   predicted    -0.1708147E-01 (   4.94%)
   displ. norm   :     0.9170137 α      lambda       -0.1858266E-01
   maximum displ.:     0.4460164 α      in ANC's #13, #53, #28, ...

........................................................................
.............................. CYCLE   19 ..............................
........................................................................
   1   -448.3018431 -0.448302E+03  0.121E-02    0.83       0.0  T
   2   -448.3018520 -0.892899E-05  0.106E-02    0.83       1.0  T
   3   -448.3018763 -0.243289E-04  0.475E-03    0.83       1.3  T
   4   -448.3018619  0.144457E-04  0.489E-03    0.83       1.3  T
   5   -448.3018793 -0.174107E-04  0.101E-03    0.83       6.3  T
   6   -448.3018798 -0.512247E-06  0.288E-04    0.83      21.8  T
   7   -448.3018798 -0.430043E-07  0.142E-04    0.83      44.3  T
   8   -448.3018798 -0.118401E-07  0.569E-05    0.83     110.6  T
     SCC iter.                  ...        0 min,  3.007 sec
     gradient                   ...        0 min,  0.976 sec
 * total energy  :  -440.7376460 Eh     change       -0.1364738E-01 Eh
   gradient norm :     0.0363427 Eh/α   predicted    -0.1710453E-01 (  25.33%)
   displ. norm   :     0.8570270 α      lambda       -0.1713077E-01
   maximum displ.:     0.4322367 α      in ANC's #13, #28, #53, ...

........................................................................
.............................. CYCLE   20 ..............................
........................................................................
   1   -448.3354416 -0.448335E+03  0.161E-02    0.83       0.0  T
   2   -448.3354519 -0.102142E-04  0.142E-02    0.83       1.0  T
   3   -448.3354886 -0.367421E-04  0.640E-03    0.83       1.0  T
   4   -448.3354720  0.165592E-04  0.533E-03    0.83       1.2  T
   5   -448.3354909 -0.188565E-04  0.110E-03    0.83       5.7  T
   6   -448.3354918 -0.898629E-06  0.319E-04    0.83      19.7  T
   7   -448.3354918 -0.409750E-07  0.195E-04    0.83      32.3  T
   8   -448.3354919 -0.251077E-07  0.729E-05    0.83      86.5  T
     SCC iter.                  ...        0 min,  3.015 sec
     gradient                   ...        0 min,  0.991 sec
 * total energy  :  -440.7498033 Eh     change       -0.1215725E-01 Eh
   gradient norm :     0.0316103 Eh/α   predicted    -0.1485662E-01 (  22.20%)
   displ. norm   :     0.8361011 α      lambda       -0.1308727E-01
   maximum displ.:     0.4511601 α      in ANC's #13, #28, #53, ...
 * RMSD in coord.:     0.8505476 α      energy gain  -0.6986812E+00 Eh

generating ANC from model Hessian ...
Using Lindh-Hessian (1995)
 Shifting diagonal of input Hessian by    1.0000111254759296E-002
 Lowest  eigenvalues of input Hessian
    0.010000    0.000000    0.000000    0.000000    0.000000    0.000000
    0.000000    0.010001    0.010001    0.010004    0.010004    0.010005
    0.010006    0.010008    0.010010    0.010014    0.010021    0.010024
 Highest eigenvalues
    2.602309    2.602536    2.602883    2.731726    2.757451    2.826839


........................................................................
.............................. CYCLE   21 ..............................
........................................................................
   1   -448.3861639 -0.448386E+03  0.113E-02    0.83       0.0  T
   2   -448.3861656 -0.171118E-05  0.938E-03    0.83       1.0  T
   3   -448.3861928 -0.272435E-04  0.403E-03    0.83       1.6  T
   4   -448.3861880  0.486452E-05  0.416E-03    0.83       1.5  T
   5   -448.3861991 -0.111555E-04  0.106E-03    0.83       6.0  T
   6   -448.3861996 -0.438935E-06  0.286E-04    0.83      22.0  T
   7   -448.3861996 -0.545926E-07  0.928E-05    0.83      67.9  T
   8   -448.3861996 -0.569526E-08  0.363E-05    0.83     173.8  T
     SCC iter.                  ...        0 min,  3.030 sec
     gradient                   ...        0 min,  0.979 sec
 * total energy  :  -440.7592780 Eh     change       -0.9474717E-02 Eh
   gradient norm :     0.0259720 Eh/α   predicted     0.0000000E+00 (-100.00%)
   displ. norm   :     0.5774903 α      lambda       -0.7784144E-02
   maximum displ.:     0.2772170 α      in ANC's #40, #78, #66, ...

........................................................................
.............................. CYCLE   22 ..............................
........................................................................
   1   -448.4210724 -0.448421E+03  0.525E-03    0.83       0.0  T
   2   -448.4210704  0.200016E-05  0.459E-03    0.83       1.4  T
   3   -448.4210778 -0.734226E-05  0.205E-03    0.83       3.1  T
   4   -448.4210770  0.755269E-06  0.188E-03    0.83       3.4  T
   5   -448.4210792 -0.222275E-05  0.360E-04    0.83      17.5  T
   6   -448.4210793 -0.615611E-07  0.161E-04    0.83      39.1  T
   7   -448.4210793 -0.221107E-07  0.386E-05    0.83     163.3  T
     SCC iter.                  ...        0 min,  2.659 sec
     gradient                   ...        0 min,  0.991 sec
 * total energy  :  -440.7658923 Eh     change       -0.6614274E-02 Eh
   gradient norm :     0.0167722 Eh/α   predicted    -0.5190077E-02 ( -21.53%)
   displ. norm   :     0.8745882 α      lambda       -0.1021032E-01
   maximum displ.:     0.4076650 α      in ANC's #40, #50, #78, ...

........................................................................
.............................. CYCLE   23 ..............................
........................................................................
   1   -448.4659179 -0.448466E+03  0.813E-03    0.83       0.0  T
   2   -448.4659143  0.359116E-05  0.719E-03    0.83       1.0  T
   3   -448.4659330 -0.187149E-04  0.297E-03    0.83       2.1  T
   4   -448.4659296  0.334697E-05  0.302E-03    0.83       2.1  T
   5   -448.4659357 -0.600774E-05  0.582E-04    0.83      10.8  T
   6   -448.4659358 -0.137445E-06  0.251E-04    0.83      25.1  T
   7   -448.4659358 -0.546833E-07  0.689E-05    0.83      91.5  T
   8   -448.4659358 -0.319039E-08  0.188E-05    0.83     334.2  T
     SCC iter.                  ...        0 min,  3.010 sec
     gradient                   ...        0 min,  0.993 sec
 * total energy  :  -440.7738811 Eh     change       -0.7988875E-02 Eh
   gradient norm :     0.0215683 Eh/α   predicted    -0.9010133E-02 (  12.78%)
   displ. norm   :     0.8539565 α      lambda       -0.9275798E-02
   maximum displ.:     0.4327876 α      in ANC's #40, #66, #78, ...

........................................................................
.............................. CYCLE   24 ..............................
........................................................................
   1   -448.4987403 -0.448499E+03  0.728E-03    0.83       0.0  T
   2   -448.4987371  0.313572E-05  0.594E-03    0.83       1.1  T
   3   -448.4987487 -0.115894E-04  0.277E-03    0.83       2.3  T
   4   -448.4987491 -0.365963E-06  0.236E-03    0.83       2.7  T
   5   -448.4987524 -0.326897E-05  0.508E-04    0.83      12.4  T
   6   -448.4987525 -0.142018E-06  0.203E-04    0.83      31.0  T
   7   -448.4987525 -0.367597E-07  0.587E-05    0.83     107.4  T
   8   -448.4987525 -0.204750E-08  0.175E-05    0.83     360.8  T
     SCC iter.                  ...        0 min,  3.010 sec
     gradient                   ...        0 min,  0.991 sec
 * total energy  :  -440.7809197 Eh     change       -0.7038563E-02 Eh
   gradient norm :     0.0223545 Eh/α   predicted    -0.8020088E-02 (  13.94%)
   displ. norm   :     0.8289581 α      lambda       -0.7331562E-02
   maximum displ.:     0.4419158 α      in ANC's #40, #50, #24, ...

........................................................................
.............................. CYCLE   25 ..............................
........................................................................
   1   -448.5210122 -0.448521E+03  0.531E-03    0.83       0.0  T
   2   -448.5210115  0.727846E-06  0.403E-03    0.83       1.6  T
   3   -448.5210159 -0.440449E-05  0.210E-03    0.83       3.0  T
   4   -448.5210173 -0.139797E-05  0.155E-03    0.83       4.1  T
   5   -448.5210185 -0.125039E-05  0.343E-04    0.83      18.3  T
   6   -448.5210186 -0.595772E-07  0.165E-04    0.83      38.1  T
   7   -448.5210186 -0.236232E-07  0.534E-05    0.83     118.0  T
     SCC iter.                  ...        0 min,  2.616 sec
     gradient                   ...        0 min,  0.985 sec
 * total energy  :  -440.7871617 Eh     change       -0.6241976E-02 Eh
   gradient norm :     0.0180653 Eh/α   predicted    -0.6184808E-02 (  -0.92%)
   displ. norm   :     0.8612832 α      lambda       -0.6866245E-02
   maximum displ.:     0.4998480 α      in ANC's #40, #50, #24, ...

........................................................................
.............................. CYCLE   26 ..............................
........................................................................
   1   -448.5427838 -0.448543E+03  0.504E-03    0.83       0.0  T
   2   -448.5427852 -0.133523E-05  0.331E-03    0.83       1.9  T
   3   -448.5427866 -0.146148E-05  0.189E-03    0.83       3.3  T
   4   -448.5427873 -0.670197E-06  0.146E-03    0.83       4.3  T
   5   -448.5427886 -0.127375E-05  0.338E-04    0.83      18.6  T
   6   -448.5427887 -0.706767E-07  0.132E-04    0.83      47.8  T
   7   -448.5427887 -0.131628E-07  0.498E-05    0.83     126.5  T
     SCC iter.                  ...        0 min,  2.622 sec
     gradient                   ...        0 min,  1.002 sec
 * total energy  :  -440.7930466 Eh     change       -0.5884909E-02 Eh
   gradient norm :     0.0150952 Eh/α   predicted    -0.5979848E-02 (   1.61%)
   displ. norm   :     0.8678692 α      lambda       -0.6408647E-02
   maximum displ.:     0.5053893 α      in ANC's #40, #50, #24, ...

........................................................................
.............................. CYCLE   27 ..............................
........................................................................
   1   -448.5636906 -0.448564E+03  0.476E-03    0.84       0.0  T
   2   -448.5636926 -0.203154E-05  0.305E-03    0.84       2.1  T
   3   -448.5636942 -0.159897E-05  0.151E-03    0.84       4.2  T
   4   -448.5636941  0.128479E-06  0.131E-03    0.84       4.8  T
   5   -448.5636950 -0.899898E-06  0.355E-04    0.84      17.7  T
   6   -448.5636951 -0.932565E-07  0.110E-04    0.84      57.5  T
   7   -448.5636951 -0.821507E-08  0.434E-05    0.84     145.1  T
     SCC iter.                  ...        0 min,  2.605 sec
     gradient                   ...        0 min,  0.982 sec
 * total energy  :  -440.7982872 Eh     change       -0.5240670E-02 Eh
   gradient norm :     0.0186487 Eh/α   predicted    -0.5617827E-02 (   7.20%)
   displ. norm   :     0.8454385 α      lambda       -0.6348379E-02
   maximum displ.:     0.5165457 α      in ANC's #40, #50, #24, ...

........................................................................
.............................. CYCLE   28 ..............................
........................................................................
   1   -448.5856393 -0.448586E+03  0.495E-03    0.84       0.0  T
   2   -448.5856410 -0.168512E-05  0.315E-03    0.84       2.0  T
   3   -448.5856427 -0.177345E-05  0.165E-03    0.84       3.8  T
   4   -448.5856430 -0.273815E-06  0.124E-03    0.84       5.1  T
   5   -448.5856436 -0.648480E-06  0.335E-04    0.84      18.8  T
   6   -448.5856437 -0.687285E-07  0.100E-04    0.84      62.8  T
   7   -448.5856437 -0.740687E-08  0.384E-05    0.84     164.1  T
     SCC iter.                  ...        0 min,  2.665 sec
     gradient                   ...        0 min,  0.990 sec
 * total energy  :  -440.8036990 Eh     change       -0.5411760E-02 Eh
   gradient norm :     0.0188610 Eh/α   predicted    -0.5443008E-02 (   0.58%)
   displ. norm   :     0.8641233 α      lambda       -0.5516315E-02
   maximum displ.:     0.5351509 α      in ANC's #40, #50, #24, ...

........................................................................
.............................. CYCLE   29 ..............................
........................................................................
   1   -448.6027564 -0.448603E+03  0.387E-03    0.84       0.0  T
   2   -448.6027581 -0.173775E-05  0.254E-03    0.84       2.5  T
   3   -448.6027595 -0.143293E-05  0.117E-03    0.84       5.4  T
   4   -448.6027595  0.914092E-07  0.998E-04    0.84       6.3  T
   5   -448.6027599 -0.480081E-06  0.311E-04    0.84      20.3  T
   6   -448.6027600 -0.602396E-07  0.101E-04    0.84      62.5  T
   7   -448.6027600 -0.761059E-08  0.414E-05    0.84     152.2  T
     SCC iter.                  ...        0 min,  2.621 sec
     gradient                   ...        0 min,  0.989 sec
 * total energy  :  -440.8087392 Eh     change       -0.5040211E-02 Eh
   gradient norm :     0.0149600 Eh/α   predicted    -0.4817698E-02 (  -4.41%)
   displ. norm   :     0.8884920 α      lambda       -0.5468794E-02
   maximum displ.:     0.5596340 α      in ANC's #40, #50, #24, ...

........................................................................
.............................. CYCLE   30 ..............................
........................................................................
   1   -448.6177171 -0.448618E+03  0.385E-03    0.84       0.0  T
   2   -448.6177192 -0.203095E-05  0.285E-03    0.84       2.2  T
   3   -448.6177208 -0.166632E-05  0.122E-03    0.84       5.2  T
   4   -448.6177204  0.396613E-06  0.104E-03    0.84       6.1  T
   5   -448.6177210 -0.513468E-06  0.370E-04    0.84      17.0  T
   6   -448.6177211 -0.979485E-07  0.106E-04    0.84      59.2  T
   7   -448.6177211 -0.580496E-08  0.500E-05    0.84     126.1  T
     SCC iter.                  ...        0 min,  2.665 sec
     gradient                   ...        0 min,  0.995 sec
 * total energy  :  -440.8136955 Eh     change       -0.4956325E-02 Eh
   gradient norm :     0.0133419 Eh/α   predicted    -0.4892983E-02 (  -1.28%)
   displ. norm   :     0.9043070 α      lambda       -0.5053848E-02
   maximum displ.:     0.5762494 α      in ANC's #40, #50, #24, ...

........................................................................
.............................. CYCLE   31 ..............................
........................................................................
   1   -448.6310477 -0.448631E+03  0.330E-03    0.84       0.0  T
   2   -448.6310491 -0.141092E-05  0.202E-03    0.84       3.1  T
   3   -448.6310497 -0.609066E-06  0.111E-03    0.84       5.7  T
   4   -448.6310498 -0.799615E-07  0.618E-04    0.84      10.2  T
   5   -448.6310498 -0.792938E-07  0.285E-04    0.84      22.1  T
   6   -448.6310499 -0.593940E-07  0.902E-05    0.84      69.8  T
   7   -448.6310499 -0.365196E-08  0.424E-05    0.84     148.7  T
     SCC iter.                  ...        0 min,  2.611 sec
     gradient                   ...        0 min,  0.998 sec
 * total energy  :  -440.8184272 Eh     change       -0.4731685E-02 Eh
   gradient norm :     0.0103644 Eh/α   predicted    -0.4593377E-02 (  -2.92%)
   displ. norm   :     0.9226250 α      lambda       -0.4806416E-02
   maximum displ.:     0.5888819 α      in ANC's #40, #50, #24, ...

........................................................................
.............................. CYCLE   32 ..............................
........................................................................
   1   -448.6432719 -0.448643E+03  0.330E-03    0.84       0.0  T
   2   -448.6432730 -0.112958E-05  0.184E-03    0.84       3.4  T
   3   -448.6432734 -0.395497E-06  0.117E-03    0.84       5.4  T
   4   -448.6432737 -0.291924E-06  0.718E-04    0.84       8.8  T
   5   -448.6432739 -0.195349E-06  0.352E-04    0.84      17.9  T
   6   -448.6432740 -0.946057E-07  0.946E-05    0.84      66.6  T
   7   -448.6432740 -0.251521E-08  0.418E-05    0.84     150.6  T
     SCC iter.                  ...        0 min,  2.650 sec
     gradient                   ...        0 min,  1.002 sec
 * total energy  :  -440.8228513 Eh     change       -0.4424096E-02 Eh
   gradient norm :     0.0098444 Eh/α   predicted    -0.4448910E-02 (   0.56%)
   displ. norm   :     0.9166337 α      lambda       -0.4610049E-02
   maximum displ.:     0.6005821 α      in ANC's #40, #24, #50, ...

........................................................................
.............................. CYCLE   33 ..............................
........................................................................
   1   -448.6553903 -0.448655E+03  0.357E-03    0.84       0.0  T
   2   -448.6553915 -0.123695E-05  0.213E-03    0.84       3.0  T
   3   -448.6553923 -0.770149E-06  0.127E-03    0.84       5.0  T
   4   -448.6553927 -0.415074E-06  0.832E-04    0.84       7.6  T
   5   -448.6553930 -0.291486E-06  0.375E-04    0.84      16.8  T
   6   -448.6553931 -0.102190E-06  0.114E-04    0.84      55.1  T
   7   -448.6553931 -0.378606E-08  0.505E-05    0.84     124.8  T
     SCC iter.                  ...        0 min,  2.668 sec
     gradient                   ...        0 min,  1.057 sec
 * total energy  :  -440.8270650 Eh     change       -0.4213690E-02 Eh
   gradient norm :     0.0077589 Eh/α   predicted    -0.4241746E-02 (   0.67%)
   displ. norm   :     0.9144869 α      lambda       -0.4140025E-02
   maximum displ.:     0.5927401 α      in ANC's #40, #24, #50, ...

........................................................................
.............................. CYCLE   34 ..............................
........................................................................
   1   -448.6673898 -0.448667E+03  0.354E-03    0.84       0.0  T
   2   -448.6673910 -0.123396E-05  0.203E-03    0.84       3.1  T
   3   -448.6673918 -0.835533E-06  0.123E-03    0.84       5.1  T
   4   -448.6673922 -0.345243E-06  0.653E-04    0.84       9.6  T
   5   -448.6673922 -0.675112E-07  0.376E-04    0.84      16.8  T
   6   -448.6673924 -0.115280E-06  0.106E-04    0.84      59.2  T
   7   -448.6673924 -0.361342E-08  0.488E-05    0.84     129.0  T
     SCC iter.                  ...        0 min,  2.735 sec
     gradient                   ...        0 min,  1.007 sec
 * total energy  :  -440.8309321 Eh     change       -0.3867058E-02 Eh
   gradient norm :     0.0076890 Eh/α   predicted    -0.3801133E-02 (  -1.70%)
   displ. norm   :     0.9180691 α      lambda       -0.3929953E-02
   maximum displ.:     0.5958249 α      in ANC's #40, #24, #50, ...

........................................................................
.............................. CYCLE   35 ..............................
........................................................................
   1   -448.6800000 -0.448680E+03  0.345E-03    0.84       0.0  T
   2   -448.6800013 -0.131297E-05  0.208E-03    0.84       3.0  T
   3   -448.6800024 -0.111229E-05  0.114E-03    0.84       5.5  T
   4   -448.6800027 -0.277623E-06  0.641E-04    0.84       9.8  T
   5   -448.6800028 -0.861209E-07  0.350E-04    0.84      18.0  T
   6   -448.6800028 -0.833662E-07  0.968E-05    0.84      65.1  T
   7   -448.6800028 -0.253164E-08  0.423E-05    0.84     148.8  T
     SCC iter.                  ...        0 min,  2.651 sec
     gradient                   ...        0 min,  1.011 sec
 * total energy  :  -440.8345648 Eh     change       -0.3632778E-02 Eh
   gradient norm :     0.0076724 Eh/α   predicted    -0.3621167E-02 (  -0.32%)
   displ. norm   :     0.9152372 α      lambda       -0.3617364E-02
   maximum displ.:     0.5922061 α      in ANC's #40, #24, #50, ...

........................................................................
.............................. CYCLE   36 ..............................
........................................................................
   1   -448.6940103 -0.448694E+03  0.334E-03    0.84       0.0  T
   2   -448.6940114 -0.108611E-05  0.212E-03    0.84       3.0  T
   3   -448.6940126 -0.112424E-05  0.114E-03    0.84       5.5  T
   4   -448.6940128 -0.195789E-06  0.685E-04    0.84       9.2  T
   5   -448.6940129 -0.152390E-06  0.323E-04    0.84      19.5  T
   6   -448.6940130 -0.763613E-07  0.846E-05    0.84      74.5  T
   7   -448.6940130 -0.209980E-08  0.355E-05    0.84     177.5  T
     SCC iter.                  ...        0 min,  2.666 sec
     gradient                   ...        0 min,  1.016 sec
 * total energy  :  -440.8379740 Eh     change       -0.3409106E-02 Eh
   gradient norm :     0.0068336 Eh/α   predicted    -0.3323748E-02 (  -2.50%)
   displ. norm   :     0.9179332 α      lambda       -0.3398901E-02
   maximum displ.:     0.5947387 α      in ANC's #40, #24, #50, ...

........................................................................
.............................. CYCLE   37 ..............................
........................................................................
   1   -448.7077404 -0.448708E+03  0.320E-03    0.84       0.0  T
   2   -448.7077415 -0.109950E-05  0.187E-03    0.84       3.4  T
   3   -448.7077423 -0.759465E-06  0.109E-03    0.84       5.8  T
   4   -448.7077426 -0.257936E-06  0.642E-04    0.84       9.8  T
   5   -448.7077427 -0.127169E-06  0.297E-04    0.84      21.2  T
   6   -448.7077427 -0.662347E-07  0.832E-05    0.84      75.7  T
   7   -448.7077428 -0.267920E-08  0.394E-05    0.84     159.9  T
     SCC iter.                  ...        0 min,  2.633 sec
     gradient                   ...        0 min,  0.991 sec
 * total energy  :  -440.8411540 Eh     change       -0.3180019E-02 Eh
   gradient norm :     0.0066952 Eh/α   predicted    -0.3131413E-02 (  -1.53%)
   displ. norm   :     0.9219607 α      lambda       -0.3220488E-02
   maximum displ.:     0.5901943 α      in ANC's #40, #24, #50, ...

........................................................................
.............................. CYCLE   38 ..............................
........................................................................
   1   -448.7199869 -0.448720E+03  0.311E-03    0.84       0.0  T
   2   -448.7199881 -0.121846E-05  0.167E-03    0.84       3.8  T
   3   -448.7199886 -0.500930E-06  0.105E-03    0.84       6.0  T
   4   -448.7199889 -0.280684E-06  0.598E-04    0.84      10.5  T
   5   -448.7199890 -0.977083E-07  0.273E-04    0.84      23.1  T
   6   -448.7199891 -0.547398E-07  0.827E-05    0.84      76.2  T
   7   -448.7199891 -0.338338E-08  0.388E-05    0.84     162.3  T
     SCC iter.                  ...        0 min,  2.666 sec
     gradient                   ...        0 min,  1.001 sec
 * total energy  :  -440.8441657 Eh     change       -0.3011741E-02 Eh
   gradient norm :     0.0062986 Eh/α   predicted    -0.2978972E-02 (  -1.09%)
   displ. norm   :     0.9239882 α      lambda       -0.2984524E-02
   maximum displ.:     0.5983790 α      in ANC's #40, #24, #50, ...

........................................................................
.............................. CYCLE   39 ..............................
........................................................................
   1   -448.7326217 -0.448733E+03  0.292E-03    0.84       0.0  T
   2   -448.7326226 -0.921586E-06  0.170E-03    0.84       3.7  T
   3   -448.7326231 -0.446114E-06  0.103E-03    0.84       6.1  T
   4   -448.7326233 -0.170320E-06  0.604E-04    0.84      10.4  T
   5   -448.7326234 -0.120380E-06  0.243E-04    0.84      25.9  T
   6   -448.7326234 -0.431304E-07  0.706E-05    0.84      89.2  T
   7   -448.7326234 -0.192551E-08  0.320E-05    0.84     197.1  T
     SCC iter.                  ...        0 min,  2.661 sec
     gradient                   ...        0 min,  1.012 sec
 * total energy  :  -440.8469816 Eh     change       -0.2815886E-02 Eh
   gradient norm :     0.0056748 Eh/α   predicted    -0.2766301E-02 (  -1.76%)
   displ. norm   :     0.9363286 α      lambda       -0.2788636E-02
   maximum displ.:     0.5986096 α      in ANC's #40, #24, #50, ...

........................................................................
.............................. CYCLE   40 ..............................
........................................................................
   1   -448.7450134 -0.448745E+03  0.267E-03    0.84       0.0  T
   2   -448.7450142 -0.789519E-06  0.145E-03    0.84       4.3  T
   3   -448.7450145 -0.297342E-06  0.913E-04    0.84       6.9  T
   4   -448.7450146 -0.119309E-06  0.478E-04    0.84      13.2  T
   5   -448.7450146 -0.496670E-07  0.224E-04    0.84      28.1  T
   6   -448.7450147 -0.393312E-07  0.630E-05    0.84     100.0  T
   7   -448.7450147 -0.154955E-08  0.250E-05    0.84     251.6  T
     SCC iter.                  ...        0 min,  2.627 sec
     gradient                   ...        0 min,  0.996 sec
 * total energy  :  -440.8496166 Eh     change       -0.2634980E-02 Eh
   gradient norm :     0.0051246 Eh/α   predicted    -0.2616750E-02 (  -0.69%)
   displ. norm   :     0.9351604 α      lambda       -0.2562593E-02
   maximum displ.:     0.6017253 α      in ANC's #40, #24, #50, ...

........................................................................
.............................. CYCLE   41 ..............................
........................................................................
   1   -448.7553085 -0.448755E+03  0.263E-03    0.84       0.0  T
   2   -448.7553093 -0.711900E-06  0.134E-03    0.84       4.7  T
   3   -448.7553095 -0.192273E-06  0.880E-04    0.84       7.2  T
   4   -448.7553095 -0.690536E-07  0.460E-04    0.84      13.7  T
   5   -448.7553096 -0.493840E-07  0.233E-04    0.84      27.0  T
   6   -448.7553096 -0.475131E-07  0.672E-05    0.84      93.8  T
   7   -448.7553096 -0.196042E-08  0.252E-05    0.84     250.2  T
     SCC iter.                  ...        0 min,  2.615 sec
     gradient                   ...        0 min,  1.004 sec
 * total energy  :  -440.8520381 Eh     change       -0.2421521E-02 Eh
   gradient norm :     0.0044199 Eh/α   predicted    -0.2401834E-02 (  -0.81%)
   displ. norm   :     0.9413009 α      lambda       -0.2359896E-02
   maximum displ.:     0.5974488 α      in ANC's #40, #24, #50, ...

........................................................................
.............................. CYCLE   42 ..............................
........................................................................
   1   -448.7661660 -0.448766E+03  0.251E-03    0.84       0.0  T
   2   -448.7661667 -0.646174E-06  0.136E-03    0.84       4.6  T
   3   -448.7661669 -0.257546E-06  0.872E-04    0.84       7.2  T
   4   -448.7661670 -0.733179E-07  0.461E-04    0.84      13.7  T
   5   -448.7661670 -0.511284E-07  0.246E-04    0.84      25.6  T
   6   -448.7661671 -0.538811E-07  0.593E-05    0.84     106.3  T
   7   -448.7661671 -0.139727E-08  0.244E-05    0.84     258.0  T
     SCC iter.                  ...        0 min,  2.616 sec
     gradient                   ...        0 min,  1.009 sec
 * total energy  :  -440.8542657 Eh     change       -0.2227599E-02 Eh
   gradient norm :     0.0039848 Eh/α   predicted    -0.2225448E-02 (  -0.10%)
   displ. norm   :     0.9378520 α      lambda       -0.2141791E-02
   maximum displ.:     0.5956605 α      in ANC's #40, #24, #50, ...
 * RMSD in coord.:     1.1641616 α      energy gain  -0.1044624E+00 Eh

generating ANC from model Hessian ...
Using Lindh-Hessian (1995)
 Shifting diagonal of input Hessian by    1.0005893181792774E-002
 Lowest  eigenvalues of input Hessian
    0.010000    0.010002    0.010005    0.010006    0.000000    0.000000
    0.000000    0.000000    0.000000    0.000000    0.010007    0.010008
    0.010011    0.010012    0.010012    0.010019    0.010025    0.010026
 Highest eigenvalues
    2.628759    2.631169    2.631917    2.920261    2.935769    2.936420


........................................................................
.............................. CYCLE   43 ..............................
........................................................................
   1   -448.7766230 -0.448777E+03  0.264E-03    0.83       0.0  T
   2   -448.7766235 -0.589789E-06  0.137E-03    0.83       4.6  T
   3   -448.7766238 -0.209982E-06  0.913E-04    0.83       6.9  T
   4   -448.7766239 -0.103510E-06  0.518E-04    0.83      12.2  T
   5   -448.7766240 -0.107054E-06  0.236E-04    0.83      26.7  T
   6   -448.7766240 -0.473259E-07  0.587E-05    0.83     107.3  T
   7   -448.7766240 -0.109463E-08  0.215E-05    0.83     292.6  T
     SCC iter.                  ...        0 min,  2.622 sec
     gradient                   ...        0 min,  1.001 sec
 * total energy  :  -440.8562843 Eh     change       -0.2018626E-02 Eh
   gradient norm :     0.0036749 Eh/α   predicted     0.0000000E+00 (-100.00%)
   displ. norm   :     0.1935970 α      lambda       -0.4258353E-03
   maximum displ.:     0.1339644 α      in ANC's #24, #40, #42, ...

........................................................................
.............................. CYCLE   44 ..............................
........................................................................
   1   -448.7791965 -0.448779E+03  0.764E-04    0.83       0.0  T
   2   -448.7791966 -0.652373E-07  0.400E-04    0.83      15.7  T
   3   -448.7791966 -0.137691E-07  0.273E-04    0.83      23.0  T
   4   -448.7791966 -0.193002E-07  0.161E-04    0.83      39.2  T
   5   -448.7791967 -0.992651E-08  0.645E-05    0.83      97.7  T
     SCC iter.                  ...        0 min,  2.123 sec
     gradient                   ...        0 min,  1.011 sec
 * total energy  :  -440.8566889 Eh     change       -0.4045927E-03 Eh
   gradient norm :     0.0027709 Eh/α   predicted    -0.2210057E-03 ( -45.38%)
   displ. norm   :     0.5357927 α      lambda       -0.1104220E-02
   maximum displ.:     0.3261932 α      in ANC's #24, #40, #42, ...

........................................................................
.............................. CYCLE   45 ..............................
........................................................................
   1   -448.7854352 -0.448785E+03  0.197E-03    0.84       0.0  T
   2   -448.7854356 -0.454115E-06  0.107E-03    0.84       5.9  T
   3   -448.7854358 -0.209646E-06  0.688E-04    0.84       9.2  T
   4   -448.7854360 -0.144539E-06  0.401E-04    0.84      15.7  T
   5   -448.7854360 -0.538123E-07  0.173E-04    0.84      36.4  T
   6   -448.7854360 -0.175972E-07  0.465E-05    0.84     135.4  T
     SCC iter.                  ...        0 min,  2.269 sec
     gradient                   ...        0 min,  0.999 sec
 * total energy  :  -440.8577162 Eh     change       -0.1027299E-02 Eh
   gradient norm :     0.0046018 Eh/α   predicted    -0.7106074E-03 ( -30.83%)
   displ. norm   :     0.7724559 α      lambda       -0.1508327E-02
   maximum displ.:     0.4604283 α      in ANC's #24, #40, #42, ...

........................................................................
.............................. CYCLE   46 ..............................
........................................................................
   1   -448.7922874 -0.448792E+03  0.221E-03    0.84       0.0  T
   2   -448.7922880 -0.601470E-06  0.129E-03    0.84       4.9  T
   3   -448.7922885 -0.467534E-06  0.731E-04    0.84       8.6  T
   4   -448.7922886 -0.134627E-06  0.449E-04    0.84      14.0  T
   5   -448.7922887 -0.599685E-07  0.201E-04    0.84      31.3  T
   6   -448.7922887 -0.260545E-07  0.557E-05    0.84     113.1  T
   7   -448.7922887 -0.114409E-08  0.230E-05    0.84     274.5  T
     SCC iter.                  ...        0 min,  2.653 sec
     gradient                   ...        0 min,  1.007 sec
 * total energy  :  -440.8590767 Eh     change       -0.1360497E-02 Eh
   gradient norm :     0.0062781 Eh/α   predicted    -0.1204169E-02 ( -11.49%)
   displ. norm   :     0.8323803 α      lambda       -0.1584764E-02
   maximum displ.:     0.4980626 α      in ANC's #24, #40, #42, ...

........................................................................
.............................. CYCLE   47 ..............................
........................................................................
   1   -448.7981697 -0.448798E+03  0.229E-03    0.84       0.0  T
   2   -448.7981701 -0.432546E-06  0.138E-03    0.84       4.6  T
   3   -448.7981705 -0.391930E-06  0.839E-04    0.84       7.5  T
   4   -448.7981706 -0.812443E-07  0.483E-04    0.84      13.0  T
   5   -448.7981707 -0.875173E-07  0.208E-04    0.84      30.3  T
   6   -448.7981707 -0.345168E-07  0.501E-05    0.84     125.8  T
   7   -448.7981707 -0.783757E-09  0.219E-05    0.84     287.3  T
     SCC iter.                  ...        0 min,  2.664 sec
     gradient                   ...        0 min,  1.010 sec
 * total energy  :  -440.8604087 Eh     change       -0.1332018E-02 Eh
   gradient norm :     0.0062856 Eh/α   predicted    -0.1341394E-02 (   0.70%)
   displ. norm   :     0.8106970 α      lambda       -0.1488160E-02
   maximum displ.:     0.4903602 α      in ANC's #24, #40, #42, ...

........................................................................
.............................. CYCLE   48 ..............................
........................................................................
   1   -448.8045722 -0.448805E+03  0.227E-03    0.83       0.0  T
   2   -448.8045725 -0.344915E-06  0.126E-03    0.83       5.0  T
   3   -448.8045727 -0.206433E-06  0.834E-04    0.83       7.6  T
   4   -448.8045728 -0.716577E-07  0.367E-04    0.83      17.1  T
   5   -448.8045729 -0.402467E-07  0.186E-04    0.83      33.9  T
   6   -448.8045729 -0.291676E-07  0.418E-05    0.83     150.9  T
     SCC iter.                  ...        0 min,  2.278 sec
     gradient                   ...        0 min,  1.012 sec
 * total energy  :  -440.8616465 Eh     change       -0.1237810E-02 Eh
   gradient norm :     0.0054944 Eh/α   predicted    -0.1233112E-02 (  -0.38%)
   displ. norm   :     0.7930238 α      lambda       -0.1321136E-02
   maximum displ.:     0.4844881 α      in ANC's #24, #40, #42, ...

........................................................................
.............................. CYCLE   49 ..............................
........................................................................
   1   -448.8113232 -0.448811E+03  0.200E-03    0.83       0.0  T
   2   -448.8113236 -0.336068E-06  0.101E-03    0.83       6.2  T
   3   -448.8113237 -0.171939E-06  0.678E-04    0.83       9.3  T
   4   -448.8113238 -0.675228E-07  0.304E-04    0.83      20.8  T
   5   -448.8113238 -0.123879E-07  0.155E-04    0.83      40.5  T
   6   -448.8113238 -0.213248E-07  0.380E-05    0.83     165.7  T
     SCC iter.                  ...        0 min,  2.272 sec
     gradient                   ...        0 min,  1.012 sec
 * total energy  :  -440.8627001 Eh     change       -0.1053566E-02 Eh
   gradient norm :     0.0057006 Eh/α   predicted    -0.1075991E-02 (   2.13%)
   displ. norm   :     0.7634946 α      lambda       -0.1176928E-02
   maximum displ.:     0.4673661 α      in ANC's #24, #40, #42, ...

........................................................................
.............................. CYCLE   50 ..............................
........................................................................
   1   -448.8187053 -0.448819E+03  0.179E-03    0.83       0.0  T
   2   -448.8187057 -0.349671E-06  0.964E-04    0.83       6.5  T
   3   -448.8187059 -0.215117E-06  0.572E-04    0.83      11.0  T
   4   -448.8187059 -0.495688E-07  0.272E-04    0.83      23.2  T
   5   -448.8187059 -0.224736E-08  0.133E-04    0.83      47.3  T
   6   -448.8187059 -0.165569E-07  0.371E-05    0.83     170.0  T
     SCC iter.                  ...        0 min,  2.261 sec
     gradient                   ...        0 min,  0.961 sec
 * total energy  :  -440.8636891 Eh     change       -0.9890396E-03 Eh
   gradient norm :     0.0049712 Eh/α   predicted    -0.9314954E-03 (  -5.82%)
   displ. norm   :     0.7835903 α      lambda       -0.1115804E-02
   maximum displ.:     0.4873021 α      in ANC's #24, #40, #42, ...

........................................................................
.............................. CYCLE   51 ..............................
........................................................................
   1   -448.8246450 -0.448825E+03  0.178E-03    0.83       0.0  T
   2   -448.8246455 -0.416924E-06  0.101E-03    0.83       6.3  T
   3   -448.8246457 -0.281085E-06  0.524E-04    0.83      12.0  T
   4   -448.8246458 -0.372077E-07  0.274E-04    0.83      23.0  T
   5   -448.8246458 -0.175999E-08  0.149E-04    0.83      42.2  T
   6   -448.8246458 -0.185472E-07  0.380E-05    0.83     165.6  T
     SCC iter.                  ...        0 min,  2.189 sec
     gradient                   ...        0 min,  0.962 sec
 * total energy  :  -440.8644901 Eh     change       -0.8010016E-03 Eh
   gradient norm :     0.0060720 Eh/α   predicted    -0.9004615E-03 (  12.42%)
   displ. norm   :     0.6911978 α      lambda       -0.9978276E-03
   maximum displ.:     0.4344717 α      in ANC's #24, #40, #42, ...

........................................................................
.............................. CYCLE   52 ..............................
........................................................................
   1   -448.8288031 -0.448829E+03  0.160E-03    0.83       0.0  T
   2   -448.8288034 -0.297406E-06  0.813E-04    0.83       7.8  T
   3   -448.8288035 -0.153084E-06  0.525E-04    0.83      12.0  T
   4   -448.8288036 -0.511387E-07  0.255E-04    0.83      24.7  T
   5   -448.8288036 -0.647253E-08  0.122E-04    0.83      51.7  T
   6   -448.8288036 -0.126865E-07  0.326E-05    0.83     193.2  T
     SCC iter.                  ...        0 min,  2.264 sec
     gradient                   ...        0 min,  1.005 sec
 * total energy  :  -440.8652857 Eh     change       -0.7955699E-03 Eh
   gradient norm :     0.0050122 Eh/α   predicted    -0.7372727E-03 (  -7.33%)
   displ. norm   :     0.6944397 α      lambda       -0.8089684E-03
   maximum displ.:     0.4433626 α      in ANC's #24, #40, #42, ...

........................................................................
.............................. CYCLE   53 ..............................
........................................................................
   1   -448.8333541 -0.448833E+03  0.149E-03    0.83       0.0  T
   2   -448.8333543 -0.267703E-06  0.802E-04    0.83       7.9  T
   3   -448.8333545 -0.162683E-06  0.463E-04    0.83      13.6  T
   4   -448.8333545 -0.262640E-07  0.232E-04    0.83      27.1  T
   5   -448.8333545 -0.401633E-08  0.124E-04    0.83      50.9  T
   6   -448.8333545 -0.125369E-07  0.328E-05    0.83     192.2  T
     SCC iter.                  ...        0 min,  2.276 sec
     gradient                   ...        0 min,  1.026 sec
 * total energy  :  -440.8659626 Eh     change       -0.6768936E-03 Eh
   gradient norm :     0.0044835 Eh/α   predicted    -0.5995464E-03 ( -11.43%)
   displ. norm   :     0.6690734 α      lambda       -0.6576281E-03
   maximum displ.:     0.4329231 α      in ANC's #24, #40, #34, ...

........................................................................
.............................. CYCLE   54 ..............................
........................................................................
   1   -448.8383843 -0.448838E+03  0.133E-03    0.83       0.0  T
   2   -448.8383846 -0.223027E-06  0.712E-04    0.83       8.9  T
   3   -448.8383847 -0.111111E-06  0.437E-04    0.83      14.4  T
   4   -448.8383847 -0.214968E-07  0.213E-04    0.83      29.6  T
   5   -448.8383847 -0.389286E-08  0.116E-04    0.83      54.4  T
   6   -448.8383847 -0.108556E-07  0.304E-05    0.83     206.9  T
     SCC iter.                  ...        0 min,  2.263 sec
     gradient                   ...        0 min,  1.007 sec
 * total energy  :  -440.8665646 Eh     change       -0.6020380E-03 Eh
   gradient norm :     0.0036394 Eh/α   predicted    -0.4760145E-03 ( -20.93%)
   displ. norm   :     0.6571397 α      lambda       -0.6172012E-03
   maximum displ.:     0.4333262 α      in ANC's #24, #40, #34, ...
[...]
     5   6 C        7   6 C                                       1.4063763
     8   6 C        9   6 C                                       1.2135391
    10   6 C       11   6 C                                       1.3999699
    11   6 C       12   6 C                                       1.3834454
    12   6 C       13   7 N                                       1.3306899
    13   7 N       14   6 C                                       1.3307509
    10   6 C       15   6 C                                       1.3999267
    14   6 C       15   6 C                                       1.3834193
     7   6 C       16   6 C                                       1.4044581
    16   6 C       17   6 C                                       1.4498432
    17   6 C       18   6 C                                       1.3496256
    16   6 C       19   7 N                                       1.3550349
    18   6 C       20   6 C                                       1.4502144
    19   7 N       20   6 C                                       1.3523690
    20   6 C       21   6 C                                       1.4071472
    21   6 C       22   6 C                                       1.4083605
    22   6 C       23   6 C                                       1.4192050
    23   6 C       24   6 C                                       1.3689450
    24   6 C       25   6 C                                       1.4190692
    22   6 C       26   7 N                                       1.3642651
    25   6 C       26   7 N                                       1.3657744
    25   6 C       27   6 C                                       1.4057900
    28   6 C       29   6 C                                       1.2137991
    30   6 C       31   6 C                                       1.3999889
    31   6 C       32   6 C                                       1.3834259
    32   6 C       33   7 N                                       1.3306852
    33   7 N       34   6 C                                       1.3307117
    30   6 C       35   6 C                                       1.4000490
    34   6 C       35   6 C                                       1.3833593
    27   6 C       36   6 C                                       1.4066558
    36   6 C       37   6 C                                       1.4526209 (max)
    37   6 C       38   6 C                                       1.3486021
     1   6 C       39   6 C                                       1.3865872
    38   6 C       39   6 C                                       1.4525781
    36   6 C       40   7 N                                       1.3476483
    39   6 C       40   7 N                                       1.3598434
     1   6 C       41   1 H                                       1.0852758
     3   6 C       42   1 H                                       1.0782705
     4   6 C       43   1 H                                       1.0782473
     6   7 N       44   1 H                                       1.0144922 (min)
    11   6 C       45   1 H                                       1.0834209
    12   6 C       46   1 H                                       1.0862847
    14   6 C       47   1 H                                       1.0862589
    15   6 C       48   1 H                                       1.0833210
    17   6 C       49   1 H                                       1.0783037
    18   6 C       50   1 H                                       1.0782354
    23   6 C       51   1 H                                       1.0780380
    24   6 C       52   1 H                                       1.0781078
    26   7 N       53   1 H                                       1.0146697
    31   6 C       54   1 H                                       1.0833435
    32   6 C       55   1 H                                       1.0862380
    34   6 C       56   1 H                                       1.0862371
    35   6 C       57   1 H                                       1.0833166
    37   6 C       58   1 H                                       1.0784773
    38   6 C       59   1 H                                       1.0786721
    60   6 C       61   6 C                                       1.3901962
    61   6 C       62   6 C                                       1.4221064
    62   6 C       63   6 C                                       1.3680649
    63   6 C       64   6 C                                       1.4207609
    61   6 C       65   7 N                                       1.3676808
    64   6 C       65   7 N                                       1.3619124
    64   6 C       66   6 C                                       1.4063435
    67   6 C       68   6 C                                       1.2135178
    69   6 C       70   6 C                                       1.3999347
    70   6 C       71   6 C                                       1.3834637
    71   6 C       72   7 N                                       1.3306709
    72   7 N       73   6 C                                       1.3307679
    69   6 C       74   6 C                                       1.3999528
    73   6 C       74   6 C                                       1.3834180
    66   6 C       75   6 C                                       1.4043821
    75   6 C       76   6 C                                       1.4497277
    76   6 C       77   6 C                                       1.3496007
    75   6 C       78   7 N                                       1.3553002
    77   6 C       79   6 C                                       1.4502854
    78   7 N       79   6 C                                       1.3520964
    79   6 C       80   6 C                                       1.4075322
    80   6 C       81   6 C                                       1.4083963
    81   6 C       82   6 C                                       1.4191023
    82   6 C       83   6 C                                       1.3690291
    83   6 C       84   6 C                                       1.4190535
    81   6 C       85   7 N                                       1.3642289
    84   6 C       85   7 N                                       1.3657732
    84   6 C       86   6 C                                       1.4058052
    87   6 C       88   6 C                                       1.2138654
    89   6 C       90   6 C                                       1.3999736
    90   6 C       91   6 C                                       1.3834310
    91   6 C       92   7 N                                       1.3306850
    92   7 N       93   6 C                                       1.3307141
    89   6 C       94   6 C                                       1.4000542
    93   6 C       94   6 C                                       1.3833582
    86   6 C       95   6 C                                       1.4066912
    95   6 C       96   6 C                                       1.4525980
    96   6 C       97   6 C                                       1.3486015
    60   6 C       98   6 C                                       1.3866070
    97   6 C       98   6 C                                       1.4525793
    95   6 C       99   7 N                                       1.3477199
    98   6 C       99   7 N                                       1.3598360
    60   6 C      100   1 H                                       1.0852770
    62   6 C      101   1 H                                       1.0782706
    63   6 C      102   1 H                                       1.0782475
    65   7 N      103   1 H                                       1.0145080
    70   6 C      104   1 H                                       1.0833828
    71   6 C      105   1 H                                       1.0863100
    73   6 C      106   1 H                                       1.0862476
    74   6 C      107   1 H                                       1.0833716
    76   6 C      108   1 H                                       1.0782943
    77   6 C      109   1 H                                       1.0782020
    82   6 C      110   1 H                                       1.0780541
    83   6 C      111   1 H                                       1.0781130
    85   7 N      112   1 H                                       1.0146772
    90   6 C      113   1 H                                       1.0833441
    91   6 C      114   1 H                                       1.0862378
    93   6 C      115   1 H                                       1.0862398
    94   6 C      116   1 H                                       1.0833219
    96   6 C      117   1 H                                       1.0784772
    97   6 C      118   1 H                                       1.0786698
   119   6 C      120   6 C                                       1.2278846
   121   6 C      122   6 C                                       1.2234093
   123   6 C      124   6 C                                       1.2235537
   125   6 C      126   6 C                                       1.2287143
   127   6 C      128   6 C                                       1.2242692
   129   6 C      130   6 C                                       1.2242822
   131   6 C      132   6 C                                       1.2280370
   133   6 C      134   6 C                                       1.2237002
   135   6 C      136   6 C                                       1.2235634
   137   6 C      138   6 C                                       1.4088417
   138   6 C      139   6 C                                       1.4179446
   139   6 C      140   6 C                                       1.3696978
   140   6 C      141   6 C                                       1.4181572
   138   6 C      142   7 N                                       1.3643591
   141   6 C      142   7 N                                       1.3650251
   141   6 C      143   6 C                                       1.4072733
   144   6 C      145   6 C                                       1.2135618
   146   6 C      147   6 C                                       1.3999421
   147   6 C      148   6 C                                       1.3834944
   148   6 C      149   7 N                                       1.3306470
   149   7 N      150   6 C                                       1.3307767
   146   6 C      151   6 C                                       1.3999480
   150   6 C      151   6 C                                       1.3834441
   143   6 C      152   6 C                                       1.4032618
   152   6 C      153   6 C                                       1.4497526
   153   6 C      154   6 C                                       1.3496741
   152   6 C      155   7 N                                       1.3556818
   154   6 C      156   6 C                                       1.4497770
   155   7 N      156   6 C                                       1.3515913
   156   6 C      157   6 C                                       1.4078607
   157   6 C      158   6 C                                       1.4094942
   158   6 C      159   6 C                                       1.4178231
   159   6 C      160   6 C                                       1.3697891
   160   6 C      161   6 C                                       1.4181468
   158   6 C      162   7 N                                       1.3639798
   161   6 C      162   7 N                                       1.3653617
   161   6 C      163   6 C                                       1.4069504
   164   6 C      165   6 C                                       1.2135892
   166   6 C      167   6 C                                       1.3998884
   167   6 C      168   6 C                                       1.3834689
   168   6 C      169   7 N                                       1.3306563
   169   7 N      170   6 C                                       1.3306301
   166   6 C      171   6 C                                       1.3998866
   170   6 C      171   6 C                                       1.3834726
   163   6 C      172   6 C                                       1.4038375
   172   6 C      173   6 C                                       1.4498940
   173   6 C      174   6 C                                       1.3495826
   137   6 C      175   6 C                                       1.4066885
   174   6 C      175   6 C                                       1.4497389
   172   6 C      176   7 N                                       1.3548992
   175   6 C      176   7 N                                       1.3525193
   139   6 C      177   1 H                                       1.0779914
   140   6 C      178   1 H                                       1.0780621
   142   7 N      179   1 H                                       1.0145752
   147   6 C      180   1 H                                       1.0833296
   148   6 C      181   1 H                                       1.0862572
   150   6 C      182   1 H                                       1.0862384
   151   6 C      183   1 H                                       1.0833950
   153   6 C      184   1 H                                       1.0782920
   154   6 C      185   1 H                                       1.0782116
   159   6 C      186   1 H                                       1.0780037
   160   6 C      187   1 H                                       1.0780721
   162   7 N      188   1 H                                       1.0145656
   167   6 C      189   1 H                                       1.0833032
   168   6 C      190   1 H                                       1.0862163
   170   6 C      191   1 H                                       1.0862234
   171   6 C      192   1 H                                       1.0833406
   173   6 C      193   1 H                                       1.0782721
   174   6 C      194   1 H                                       1.0781886
   195   6 C      196   6 C                                       1.4094652
   196   6 C      197   6 C                                       1.4177993
   197   6 C      198   6 C                                       1.3697890
   198   6 C      199   6 C                                       1.4181019
   196   6 C      200   7 N                                       1.3639780
   199   6 C      200   7 N                                       1.3653196
   199   6 C      201   6 C                                       1.4070312
   202   6 C      203   6 C                                       1.2135845
   204   6 C      205   6 C                                       1.4000010
   205   6 C      206   6 C                                       1.3834092
   206   6 C      207   7 N                                       1.3307362
   207   7 N      208   6 C                                       1.3306829
   204   6 C      209   6 C                                       1.3999099
   208   6 C      209   6 C                                       1.3835024
   201   6 C      210   6 C                                       1.4036906
   210   6 C      211   6 C                                       1.4498210
   211   6 C      212   6 C                                       1.3496337
   210   6 C      213   7 N                                       1.3550464
   212   6 C      214   6 C                                       1.4497055
   213   7 N      214   6 C                                       1.3523859
   214   6 C      215   6 C                                       1.4069887
   215   6 C      216   6 C                                       1.4089531
   216   6 C      217   6 C                                       1.4179219
   217   6 C      218   6 C                                       1.3697269
   218   6 C      219   6 C                                       1.4181480
   216   6 C      220   7 N                                       1.3643018
   219   6 C      220   7 N                                       1.3650651
   219   6 C      221   6 C                                       1.4073021
   222   6 C      223   6 C                                       1.2135707
   224   6 C      225   6 C                                       1.3998014
   225   6 C      226   6 C                                       1.3835343
   226   6 C      227   7 N                                       1.3305885
   227   7 N      228   6 C                                       1.3306829
   224   6 C      229   6 C                                       1.3999644
   228   6 C      229   6 C                                       1.3834059
   221   6 C      230   6 C                                       1.4032723
   230   6 C      231   6 C                                       1.4497135
   231   6 C      232   6 C                                       1.3496804
   195   6 C      233   6 C                                       1.4078561
   232   6 C      233   6 C                                       1.4497295
   230   6 C      234   7 N                                       1.3557017
   233   6 C      234   7 N                                       1.3515927
   197   6 C      235   1 H                                       1.0779904
   198   6 C      236   1 H                                       1.0780644
   200   7 N      237   1 H                                       1.0145600
   205   6 C      238   1 H                                       1.0833558
   206   6 C      239   1 H                                       1.0863105
   208   6 C      240   1 H                                       1.0862874
   209   6 C      241   1 H                                       1.0834410
   211   6 C      242   1 H                                       1.0782753
   212   6 C      243   1 H                                       1.0781956
   217   6 C      244   1 H                                       1.0779948
   218   6 C      245   1 H                                       1.0780684
   220   7 N      246   1 H                                       1.0145770
   225   6 C      247   1 H                                       1.0832853
   226   6 C      248   1 H                                       1.0862180
   228   6 C      249   1 H                                       1.0862233
   229   6 C      250   1 H                                       1.0833485
   231   6 C      251   1 H                                       1.0782781
   232   6 C      252   1 H                                       1.0781991

 * 4 distinct bonds (by element types)

   Z      Z             #   av. dist./Å        max./Å        min./Å
   1 H    6 C          66     1.0816219     1.0863105     1.0779904
   6 C    6 C         129     1.3788672     1.4526209     1.2135178
   1 H    7 N           8     1.0145781     1.0146772     1.0144922
   6 C    7 N          48     1.3497294     1.3677271     1.3305885


optimized geometry written to: xtbopt.xyz


           -------------------------------------------------
          | TOTAL ENERGY             -440.878065922873 Eh   |
          | GRADIENT NORM               0.000897018763 Eh/α |
          | HOMO-LUMO GAP               0.825484513050 eV   |
           -------------------------------------------------

------------------------------------------------------------------------
 * finished run on 2022/07/29 at 00:17:58.908     
------------------------------------------------------------------------
 total:
 * wall-time:     0 d,  0 h,  9 min, 38.092 sec
 *  cpu-time:     0 d,  0 h,  8 min,  5.036 sec
 * ratio c/w:     0.839 speedup
 SCF:
 * wall-time:     0 d,  0 h,  0 min, 15.410 sec
 *  cpu-time:     0 d,  0 h,  0 min, 15.306 sec
 * ratio c/w:     0.993 speedup
 ANC optimizer:
 * wall-time:     0 d,  0 h,  9 min, 22.249 sec
 *  cpu-time:     0 d,  0 h,  7 min, 49.319 sec
 * ratio c/w:     0.835 speedup

