286
 energy: -442.033867115690 gnorm: 0.000652134013 xtb: 6.5.1 (b24c23e)
C           41.90744420096583        0.07869791668318       -0.00335877618730
C           42.52095349303973        1.27738226348954        0.33719097794527
C           41.87482648710024        2.49138184403678        0.70372243534769
C           42.84143189515501        3.42529305494338        0.95070901440089
C           44.10944264738225        2.81485019052419        0.73254849428265
N           43.86518967978798        1.51913142697740        0.37471092162123
C           45.37434230389966        3.39801024242662        0.86465883315441
C           46.58689113518209        2.73454531846836        0.66537305337437
C           47.88531709230799        3.37956865602374        0.74335219297647
C           48.80334411456251        2.42242597358219        0.49589606196113
N           46.73784318610746        1.41669114655445        0.35778945043090
C           48.06443264692261        1.19680896646575        0.26095095358994
C           48.69725512623460       -0.03414207858019       -0.00516309266541
C           48.05723891723164       -1.25922114490642       -0.27092423111466
C           48.69616626507801       -2.50424280764991       -0.51251101252548
C           47.72564982598461       -3.43619985437635       -0.75684434682023
C           46.46305784022992       -2.78552571827279       -0.68017206739321
C           45.19982127374840       -3.35795516481839       -0.86201850151097
C           45.16413224420540       -4.79335175436602       -1.23494636746241
C           44.53244902389736       -5.72085278200813       -0.40751467534955
C           44.49925471859263       -7.06802438508757       -0.75170928873323
C           43.80218219916603       -8.05994555399595        0.13986649421025
C           45.09941272447766       -7.48462512477546       -1.93612367610540
C           45.73368799446897       -6.57135145638554       -2.77302615333831
C           46.36180767196065       -7.02724674048402       -4.06240120923932
C           45.76413247846018       -5.22741959503308       -2.41661546844502
C           43.98609758930697       -2.67702101812118       -0.72178766956326
C           42.68110336832255       -3.27233281022999       -0.96376308378039
C           41.76995156053881       -2.30928793062358       -0.71807332426240
C           42.51729927267911       -1.12329297242252       -0.33852726702562
N           43.84830391981380       -1.37901540497677       -0.36064643797330
N           46.71539215449192       -1.47451161192292       -0.37241646616861
C           45.41157609077374        4.83176823470224        1.24688320360827
C           46.01697148131170        5.22296501476431        2.43945332614319
C           46.04958046542816        6.56401738473116        2.80951474790372
C           46.71722000442459        6.97372757709333        4.09444502707049
C           45.47554104991638        7.51556755223890        1.97339449219393
C           44.86887830247282        7.14083152628240        0.77721707144624
C           44.27238141763747        8.18493905887378       -0.12767895836772
C           44.83798793025561        5.79777175569957        0.42019779376354
H           40.82212386946944        0.09223835702386       -0.00636048543150
H           40.80611974850399        2.61866968923652        0.77172774650829
H           42.69601672548518        4.44662800140491        1.26338749690731
H           44.58731353768019        0.83655793524802        0.17014698718245
H           48.04880853418462        4.42557932104458        0.94633909392447
H           49.87743559979443        2.51212448795436        0.46405377765233
H           49.76312493297971       -2.65812668239813       -0.49472683733632
H           47.86782920181105       -4.48445191924535       -0.96335224493766
H           44.08226682755107       -5.38728375358208        0.52103182182294
H           42.74251525252901       -8.11134061806981       -0.12080183786173
H           44.22938100652606       -9.05604404458330        0.02299356432469
H           43.87912444989854       -7.76248886952947        1.18592301011612
H           45.07556739065032       -8.53467363266140       -2.20896847749220
H           47.22063202918095       -6.40563778837022       -4.31675579852607
H           46.68560265600907       -8.06577806282355       -3.99142096070330
H           45.63605372332973       -6.95204330959082       -4.87544542646250
H           46.24307207425236       -4.50493848405327       -3.06856588310343
H           42.51092114990682       -4.28612924780132       -1.28889522075223
H           40.69463299044089       -2.36303628731324       -0.78698595470128
H           45.99667734693463       -0.77070078556808       -0.23933665225056
H           46.44876255450634        4.47045808851559        3.09016248729800
H           46.49371856910498        6.26160285625402        4.88957489043296
H           46.38954002211432        7.96536611483206        4.40633683826114
H           47.80075141905093        6.99793027431344        3.95815733184512
H           45.49786644481907        8.56293110695651        2.25656450676445
H           43.78468508771088        8.96765374083625        0.45428143059246
H           45.05850577293645        8.64969441081203       -0.72707762175340
H           43.54275599813573        7.74259518585232       -0.80599790942681
H           44.38075192336660        5.49540981096911       -0.51569987236116
C           89.01349699633779       -0.08634123366374       -0.04180050405716
C           88.40020071413799       -1.29998147362708       -0.32493500226105
C           89.04772702268879       -2.53930763466794       -0.59012717512417
C           88.08212021965413       -3.47804157462201       -0.82224221115857
C           86.81325693095462       -2.84036002335422       -0.71529808745142
N           87.05617585411609       -1.53173618036196       -0.40678367830115
C           85.54875679987563       -3.42009864598274       -0.86672028486885
C           84.33532729775273       -2.74685503416686       -0.70956459135550
C           83.03579445079102       -3.35806800443088       -0.92300649338862
C           82.11787393870144       -2.39872700200609       -0.68372313342524
N           84.18463924586253       -1.43801710791357       -0.36479957529742
C           82.85774731256137       -1.20115344129493       -0.33486384837147
C           82.22510747877999        0.01982918112059       -0.02515632273931
C           82.86391072530982        1.23486458314081        0.28595940118457
C           82.22272656916142        2.45381455970007        0.63233304933577
C           83.19247557111372        3.38833626683379        0.86955169294825
C           84.45707163471172        2.77004552289504        0.66519299911581
C           85.72071728431575        3.35172872903106        0.80938263810389
C           85.75875132078185        4.78778070345892        1.18063657003717
C           86.35529106527238        5.18625352349353        2.37627700824160
C           86.39047278593870        6.52920237028900        2.73578733776862
C           87.04790173838032        6.95170782669432        4.02185693976958
C           85.82899553685898        7.47757560403607        1.88600139330889
C           85.23104026631030        7.09620571386407        0.68871046032024
C           84.64574881071493        8.13068818967934       -0.23443833410783
C           85.19704260951782        5.74959583581804        0.34200409718126
C           86.93476923275034        2.68015858924937        0.63256909037678
C           88.24083201676595        3.31282999103625        0.73183606362169
C           89.15214016016975        2.34795072593310        0.49415194139749
C           88.40402454219391        1.12922840351807        0.24062220843644
N           87.07244949425053        1.36854595141821        0.32468885750489
N           84.20615240923713        1.46786898700780        0.32038599953735
C           85.51574074114092       -4.86022421061597       -1.22486396021691
C           84.92435019142926       -5.78556137232582       -0.36715262839993
C           84.89780798859633       -7.13771839700823       -0.69521544642176
C           84.24593732079676       -8.12487777163457        0.23498999750203
C           85.46387843841977       -7.55967194431611       -1.89342178655373
C           86.05776697521729       -6.64727067775638       -2.76167334952193
C           86.64821692806127       -7.11535759463974       -4.06441845548820
C           86.08228124425206       -5.29971315171108       -2.42144034847560
H           90.09884269293777       -0.09862919988255       -0.04403933147934
H           90.11664997045224       -2.68197281064131       -0.59367688782197
H           88.22915163487095       -4.52339776463817       -1.04052064816833
H           86.33315349402710       -0.83637838240403       -0.25522339804151
H           82.87060740386534       -4.37880023466718       -1.22773611336063
H           81.04317052459112       -2.46683334021455       -0.73958440450293
H           81.15474648772773        2.58652102818959        0.69708306761001
H           83.04836574055467        4.41355466482438        1.16929431757808
H           86.77622264791445        4.43665486144556        3.03738223399775
H           88.11329302198820        7.12532321725194        3.85372168054442
H           86.60863199351869        7.87562039687203        4.39846350482407
H           86.94722339718842        6.17663548385658        4.78194342904480
H           85.85476731914355        8.52677299358978        2.16197329440051
H           83.79560605931736        7.72466470228251       -0.78317335740070
H           84.32004217755699        9.00936901959258        0.32256966965816
H           85.39788339278201        8.44770713510664       -0.96054995293059
H           84.74559629318877        5.44277221666321       -0.59525039110099
H           88.41125480383596        4.35653808604436        0.94188952450867
H           90.22816928589677        2.42423378640916        0.47720951065046
H           84.92650029502335        0.77872497140263        0.13111365415734
H           84.49923873679840       -5.44744933899064        0.57150710207604
H           84.47876033101721       -7.88774257925588        1.27366942508886
H           84.57839165834248       -9.14078294350678        0.02185418458976
H           83.16084459239022       -8.08722753952939        0.11548501916760
H           85.44580535581642       -8.61281044118869       -2.15460678366692
H           87.11687073469786       -8.09299311815733       -3.94764351972380
H           85.86201436818874       -7.20497736213555       -4.81752370756708
H           87.39240558204175       -6.40843684907808       -4.43141540825865
H           86.52994640823032       -4.57805615892066       -3.09614193568575
C           51.32570073366492       -0.06762954942534       -0.01885637695133
C           50.10376701185616       -0.05355283707294       -0.00972586504142
C           52.67541525487963       -0.07479679448275       -0.02250337252616
C           53.89755158248293       -0.07186338761462       -0.03200697985016
C           64.78767633704479       -0.03194041830624       -0.06093692211670
C           63.56496856267813       -0.03987757365231       -0.06686411268806
C           66.13575531840102       -0.02743103773556       -0.05430298361733
C           67.35845593107798       -0.01545321550705       -0.05027086278104
C           78.24687070517876        0.06925447889167       -0.02676982073125
C           77.02461444576618        0.07182758532807       -0.02645874951670
C           79.59656323249631        0.05837718987493       -0.02485611657517
C           80.81851523192711        0.04050767801079       -0.02403306001611
C           55.30331812242615       -0.07068174074954       -0.04367781164253
C           55.93323093357488       -1.25715903845408        0.37799712205553
C           55.28756834386962       -2.43391331740353        0.83802220840318
C           56.25508190582987       -3.34735162054644        1.15727036044174
C           57.52028922175023       -2.75659826879663        0.89224322316948
N           57.27481165984164       -1.49163689042976        0.42853643303307
C           58.78152432575968       -3.33255440282129        1.08612502388146
C           60.00429376478022       -2.70396701321867        0.84924430303620
C           61.29218070359006       -3.35451880918670        1.01013082347521
C           62.22726092430055       -2.43658956335064        0.68847310021323
N           60.17830751594964       -1.42250836588604        0.42126435851110
C           61.50886309005048       -1.23151925874800        0.32402253610870
C           62.16097739162969       -0.04515285857734       -0.06969090136230
C           61.53049902221878        1.14879637799893       -0.47080021605472
C           62.17591261097210        2.35406837900418       -0.84973354885955
C           61.20804669615247        3.26579144586094       -1.17289086881185
C           59.94293624075448        2.63952755114969       -1.00731890766491
C           58.68206819818681        3.21068029772539       -1.21644945179197
C           58.66795382215506        4.60842078293510       -1.71768666548064
C           58.10392592956826        5.62672217441272       -0.95006037220546
C           58.09117384544535        6.93674288809823       -1.41539342481284
C           57.50311576969128        8.03864473751103       -0.57599615787622
C           58.64509260963944        7.22452004984476       -2.65990883481961
C           59.20830581759992        6.21899899797121       -3.43897144544345
C           59.81767762541213        6.54044695590335       -4.77692949770568
C           59.22068193244580        4.91273392463107       -2.96051476118572
C           57.45869487307334        2.57682662199400       -0.99585628752029
C           56.17013103928210        3.18847866891660       -1.26691695116585
C           55.23517775785441        2.27473056085637       -0.93355064741365
C           55.95402352889437        1.10393325438126       -0.47089718882855
N           57.28531806119895        1.31094019084908       -0.52463232866102
N           60.18899001620050        1.36357386048558       -0.57476308110173
C           58.80004651493977       -4.72927864267943        1.58983022881000
C           58.24393203875761       -5.75931573248181        0.83363729529904
C           58.26494165683236       -7.06975267818443        1.30105756740533
C           57.65259561784963       -8.17272355086985        0.48047267145400
C           58.84069473774063       -7.34345364496136        2.53739405173762
C           59.39848063040677       -6.32491222952050        3.30537462153716
C           60.00120290294298       -6.63030559362574        4.64999046771516
C           59.37621507370408       -5.02013923694816        2.82598290619471
H           54.21929448688179       -2.55503356709470        0.91802311314431
H           56.10774777608147       -4.34000353859763        1.55039610301366
H           57.99416556623698       -0.82376113023765        0.17211936003264
H           61.43856814808839       -4.37813792955974        1.31468222308922
H           63.30042650270670       -2.54186001467873        0.68276662172261
H           63.24417949658788        2.49833979909880       -0.86517954056888
H           61.35491030687482        4.28556782992839       -1.48925641388856
H           57.68563339383648        5.39146763996076        0.02241860917114
H           58.29839940748612        8.56301412141934       -0.04131257420992
H           56.98160189191543        8.76416555074025       -1.20110571471220
H           56.80443501239365        7.63852625110203        0.15869480638981
H           58.63376299615628        8.24542313139510       -3.02773021609709
H           59.71235700278147        5.69980129417917       -5.46311641073530
H           60.88333152446081        6.74977584820165       -4.65830733226622
H           59.34619866901109        7.41854248031427       -5.21851464247216
H           59.64411804343452        4.11809250072197       -3.56517503485572
H           56.02323380055809        4.17773028706154       -1.66913605760254
H           54.16170240822289        2.35654738012548       -0.99423701716730
H           59.46994807410633        0.68185069647541       -0.35683139599354
H           57.81165351395850       -5.53688849066917       -0.13592183177015
H           58.06738694091454       -9.14173014046277        0.75810693813318
H           57.82637778413760       -8.00552662494778       -0.58294431613470
H           56.57319683803928       -8.20303873712011        0.64590694739605
H           58.85934248666912       -8.36375108173646        2.90654530826950
H           60.75765193765736       -5.89111056500505        4.91394637765896
H           60.45760017758587       -7.62047397254088        4.65448463739324
H           59.22432929011294       -6.61161788141904        5.41781752871358
H           59.79776646628812       -4.21624643412491        3.41938379901109
C           68.76236886869333       -0.00525649410697       -0.04731743605135
C           69.39724651411349       -1.17540823374028        0.41254305725766
C           68.75705088276750       -2.34371431338109        0.90024136039139
C           69.72848297647934       -3.25155145924731        1.22390639356400
C           70.99040922963218       -2.66544091934961        0.93394849773566
N           70.73929767171099       -1.40658465205556        0.45667803376505
C           72.25336561280804       -3.24434145539157        1.10632471101514
C           73.47322145447110       -2.61704741749291        0.85006210185126
C           74.76238180754295       -3.27197946266940        0.97991603107270
C           75.69387692159501       -2.34995404617903        0.65966231739111
N           73.64210067837226       -1.32995312617651        0.43862179971125
C           74.97206642332822       -1.13727298840085        0.32802587611183
C           75.61892733474747        0.06232403605511       -0.03053619289798
C           74.98384360037385        1.26425014352249       -0.39746206610255
C           75.62303513670430        2.48422639839774       -0.73828658958699
C           74.65185778588061        3.39069479406477       -1.06678100848465
C           73.39102284157441        2.74648224221379       -0.94332471111867
C           72.12867262038489        3.29973093334179       -1.19027065157956
C           72.10474970033812        4.69700579550039       -1.69132020118849
C           71.47867550094084        5.69942638083183       -0.95092417926452
C           71.44624952232232        7.00783031928265       -1.41955861142402
C           70.78726604003867        8.09038927813167       -0.60814381302173
C           72.04460548879098        7.31083750241944       -2.63973070666505
C           72.67135968224081        6.32199058083352       -3.39074223459826
C           73.32608129827098        6.65593125800067       -4.70402218182686
C           72.70189314756931        5.01681396180646       -2.90934669469396
C           70.90913319566977        2.64641373058240       -1.00908914174927
C           69.62076112461133        3.23343806573468       -1.33067356035912
C           68.68929487246436        2.31229327664706       -1.00763171594213
C           69.41063070850163        1.16179170113277       -0.50072256874780
N           70.73952860835536        1.38512511776346       -0.52335095533229
N           73.64207255062070        1.46736285290819       -0.52373749453653
C           72.27426209064981       -4.64364054496661        1.60214685113163
C           71.69166647398403       -5.66361363199837        0.85174928546520
C           71.70758476455758       -6.97671565568367        1.31102256413812
C           71.06578643123336       -8.06887449818237        0.49858340941333
C           72.30446399271722       -7.26348890129299        2.53445198148605
C           72.88963436181309       -6.25560528805472        3.29603581348357
C           73.51396052809913       -6.57650127511074        4.62713825040785
C           72.87338368358640       -4.94791846556468        2.82399504538990
H           67.68976200867347       -2.46408147243580        0.99324796763740
H           69.58571632399922       -4.23755805726110        1.63499106196181
H           71.45544979071971       -0.74291207374725        0.18116414434032
H           74.91153063637449       -4.30083726560059        1.26495518133373
H           76.76662903113726       -2.45652334902893        0.63609741987111
H           76.68968491569365        2.64068228726042       -0.72769817468234
H           74.79361939452686        4.41773805810231       -1.36132898595113
H           71.02534135080921        5.45282579377438        0.00287230333573
H           71.53233065857589        8.59733306813266        0.00932354304289
H           70.32406941376252        8.83365190137379       -1.25765250838534
H           70.02582852864144        7.67351472282246        0.05114275660319
H           72.01727251147784        8.33027117535002       -3.01073408453628
H           73.17801099654707        5.85124211461675       -5.42490079231813
H           74.40100389475236        6.78728466343473       -4.56053214490233
H           72.92162079958052        7.57958127443213       -5.11795396459919
H           73.17329763860356        4.23477151186954       -3.49466305547405
H           69.47146892168280        4.21203100175691       -1.75730591647029
H           67.61701581059738        2.37705372016850       -1.10158134872658
H           72.92648195576865        0.77322937844921       -0.33568148479755
H           71.24167571482472       -5.43054374397292       -0.10718761074124
H           71.51176182869230       -9.03713744910582        0.72617854143018
H           71.17342713210508       -7.87200029185190       -0.56838655331819
H           69.99883252317662       -8.12286739080175        0.72693649053204
H           72.31777708008670       -8.28575295761720        2.89839367665997
H           74.26913243292222       -5.83626303727265        4.89158033009261
H           73.97694497773119       -7.56351803872020        4.60995994354560
H           72.74799622448006       -6.57532608568815        5.40606767072128
H           73.31611871455171       -4.15230145237732        3.41311674158036
