      -----------------------------------------------------------      
     |                   =====================                   |     
     |                           x T B                           |     
     |                   =====================                   |     
     |                         S. Grimme                         |     
     |          Mulliken Center for Theoretical Chemistry        |     
     |                    University of Bonn                     |     
      -----------------------------------------------------------      

   * xtb version 6.5.1 (b24c23e) compiled by 'conda@728c89f4b128' on 2022-07-12

   xtb is free software: you can redistribute it and/or modify it under
   the terms of the GNU Lesser General Public License as published by
   the Free Software Foundation, either version 3 of the License, or
   (at your option) any later version.
   
   xtb is distributed in the hope that it will be useful,
   but WITHOUT ANY WARRANTY; without even the implied warranty of
   MERCHANTABILITY or FITNESS FOR A PARTICULAR PURPOSE.  See the
   GNU Lesser General Public License for more details.
   
   Cite this work as:
   * C. Bannwarth, E. Caldeweyher, S. Ehlert, A. Hansen, P. Pracht,
     J. Seibert, S. Spicher, S. Grimme, WIREs Comput. Mol. Sci., 2020, 11,
     e01493. DOI: 10.1002/wcms.1493
   
   for GFN2-xTB:
   * C. Bannwarth, S. Ehlert and S. Grimme., J. Chem. Theory Comput., 2019,
     15, 1652-1671. DOI: 10.1021/acs.jctc.8b01176
   for GFN1-xTB:
   * S. Grimme, C. Bannwarth, P. Shushkov, J. Chem. Theory Comput., 2017,
     13, 1989-2009. DOI: 10.1021/acs.jctc.7b00118
   for GFN0-xTB:
   * P. Pracht, E. Caldeweyher, S. Ehlert, S. Grimme, ChemRxiv, 2019, preprint.
     DOI: 10.26434/chemrxiv.8326202.v1
   for GFN-FF:
   * S. Spicher and S. Grimme, Angew. Chem. Int. Ed., 2020, 59, 15665-15673.
     DOI: 10.1002/anie.202004239
   
   for ALPB and GBSA implicit solvation:
   * S. Ehlert, M. Stahn, S. Spicher, S. Grimme, J. Chem. Theory Comput.,
     2021, 17, 4250-4261. DOI: 10.1021/acs.jctc.1c00471
   
   for DFT-D4:
   * E. Caldeweyher, C. Bannwarth and S. Grimme, J. Chem. Phys., 2017,
     147, 034112. DOI: 10.1063/1.4993215
   * E. Caldeweyher, S. Ehlert, A. Hansen, H. Neugebauer, S. Spicher,
     C. Bannwarth and S. Grimme, J. Chem. Phys., 2019, 150, 154122.
     DOI: 10.1063/1.5090222
   * E. Caldeweyher, J.-M. Mewes, S. Ehlert and S. Grimme, Phys. Chem. Chem. Phys.
     2020, 22, 8499-8512. DOI: 10.1039/D0CP00502A
   
   for sTDA-xTB:
   * S. Grimme and C. Bannwarth, J. Chem. Phys., 2016, 145, 054103.
     DOI: 10.1063/1.4959605
   
   in the mass-spec context:
   * V. Asgeirsson, C. Bauer and S. Grimme, Chem. Sci., 2017, 8, 4879.
     DOI: 10.1039/c7sc00601b
   * J. Koopman and S. Grimme, ACS Omega 2019, 4, 12, 15120-15133.
     DOI: 10.1021/acsomega.9b02011
   
   for metadynamics refer to:
   * S. Grimme, J. Chem. Theory Comput., 2019, 155, 2847-2862
     DOI: 10.1021/acs.jctc.9b00143
   
   for SPH calculations refer to:
   * S. Spicher and S. Grimme, J. Chem. Theory Comput., 2021, 17, 1701-1714
     DOI: 10.1021/acs.jctc.0c01306
   
   with help from (in alphabetical order)
   P. Atkinson, C. Bannwarth, F. Bohle, G. Brandenburg, E. Caldeweyher
   M. Checinski, S. Dohm, S. Ehlert, S. Ehrlich, I. Gerasimov, C. Hölzer
   A. Katbashev, J. Koopman, C. Lavigne, S. Lehtola, F. März, M. Müller,
   F. Musil, H. Neugebauer, J. Pisarek, C. Plett, P. Pracht, F. Pultar,
   J. Seibert, P. Shushkov, S. Spicher, M. Stahn, M. Steiner, T. Strunk,
   J. Stückrath, T. Rose, and J. Unsleber
   
 * started run on 2022/07/30 at 09:51:46.535     

           -------------------------------------------------
          |                Calculation Setup                |
           -------------------------------------------------

          program call               : xtb Ni_Ph2OMe_C4_4.xyz --gfn 1 --opt -T 48
          hostname                   : cx3-15-13.cx3.hpc.ic.ac.uk
          coordinate file            : Ni_Ph2OMe_C4_4.xyz
          omp threads                :                     1

   ID    Z sym.   atoms
    1   28 Ni     1, 73, 157, 228
    2    6 C      2-6, 8-11, 13-21, 23-27, 29-33, 36, 37, 39-43, 45, 74-78,
                  80-83, 85-93, 95-99, 101-105, 108, 109, 111-115, 117,
                  145-156, 158-162, 164-167, 169-177, 179-183, 185-189, 192,
                  193, 195-199, 201, 229-233, 235-238, 240-248, 250-254,
                  256-260, 263, 264, 266-270, 272
    3    7 N      7, 12, 34, 35, 79, 84, 106, 107, 163, 168, 190, 191, 234,
                  239, 261, 262
    4    8 O      22, 28, 38, 44, 94, 100, 110, 116, 178, 184, 194, 200, 249,
                  255, 265, 271
    5    1 H      46-72, 118-144, 202-227, 273-298

molecular fragmentation (1/2 indicates fragments):
111111111111111111111111111111111111111111111111111111111111111111111111
222222222222222222222222222222222222222222222222222222222222222222222222
222222222222222222222222222222222222222222222222222222222222222222222222
222222222222222222222222222222222222222222222222222222222222222222222222
2222222222
# atoms in fragment 1/2:    72   226
 fragment masses (1/2) :      638.32     2057.07
CMA distance (Bohr)    :  54.632
constraining FC (au)   :  0.0500
########################################################################
[WARNING] Please study the warnings concerning your input carefully
-1- prog_main_parseArguments: Unknown option '-T' provided
########################################################################

           -------------------------------------------------
          |                 G F N 1 - x T B                 |
           -------------------------------------------------

        Reference                      10.1021/acs.jctc.7b00118
      * Hamiltonian:
        H0-scaling (s, p, d)           1.850000    2.250000    2.000000
        zeta-weighting                 0.000000
      * Dispersion:
        s8                             2.400000
        a1                             0.630000
        a2                             5.000000
        s9                             0.000000
      * Repulsion:
        kExp                           1.500000
        rExp                           1.000000
      * Coulomb:
        alpha                          2.000000
        third order                    atomic
        anisotropic                    false
      * Halogen bond correction:
        rad-scale                      1.300000
        damping                        0.440000


          ...................................................
          :                      SETUP                      :
          :.................................................:
          :  # basis functions                1004          :
          :  # atomic orbitals                1000          :
          :  # shells                          600          :
          :  # electrons                       946          :
          :  # halogen bonds                     0          :
          :  max. iterations                   250          :
          :  Hamiltonian                  GFN1-xTB          :
          :  restarted?                      false          :
          :  GBSA solvation                  false          :
          :  PC potential                    false          :
          :  electronic temp.          300.0000000     K    :
          :  accuracy                    1.0000000          :
          :  -> integral cutoff          0.2500000E+02      :
          :  -> integral neglect         0.1000000E-07      :
          :  -> SCF convergence          0.1000000E-05 Eh   :
          :  -> wf. convergence          0.2000000E-04 e    :
          :  Broyden damping             0.4000000          :
          ...................................................

 iter      E             dE          RMSdq      gap      omega  full diag
   1   -533.7883330 -0.533788E+03  0.101E+01    0.22       0.0  T
   2   -463.7975741  0.699908E+02  0.928E+00    0.18       1.0  T
   3   -256.0303259  0.207767E+03  0.110E+01    0.02       1.0  T
   4    673.1173132  0.929148E+03  0.138E+01    0.01       1.0  T
   5   3456.3835803  0.278327E+04  0.205E+01    0.04       1.0  T
   6     94.3133527 -0.336207E+04  0.105E+01    0.04       1.0  T
   7    494.0107331  0.399697E+03  0.112E+01    0.03       1.0  T
   8     30.0602048 -0.463951E+03  0.980E+00    0.01       1.0  T
   9   -433.2517163 -0.463312E+03  0.674E+00    0.13       1.0  T
  10   -510.2183707 -0.769667E+02  0.436E+00    0.06       1.0  T
  11   -528.4175109 -0.181991E+02  0.354E+00    0.01       1.0  T
  12   -530.9388475 -0.252134E+01  0.313E+00    0.02       1.0  T
  13   -530.8944200  0.444274E-01  0.289E+00    0.05       1.0  T
  14   -531.3784934 -0.484073E+00  0.285E+00    0.26       1.0  T
  15   -532.8292730 -0.145078E+01  0.250E+00    0.08       1.0  T
  16   -532.1422873  0.686986E+00  0.247E+00    0.25       1.0  T
  17   -533.8359969 -0.169371E+01  0.193E+00    0.04       1.0  T
  18   -534.7786540 -0.942657E+00  0.163E+00    0.13       1.0  T
  19   -534.4187494  0.359905E+00  0.160E+00    0.14       1.0  T
  20   -534.6691157 -0.250366E+00  0.154E+00    0.17       1.0  T
  21   -534.5858838  0.832319E-01  0.102E+00    0.04       1.0  T
  22   -534.7401696 -0.154286E+00  0.875E-01    0.04       1.0  T
  23   -535.1630255 -0.422856E+00  0.722E-01    0.15       1.0  T
  24   -535.1939184 -0.308929E-01  0.595E-01    0.11       1.0  T
  25   -535.0033012  0.190617E+00  0.551E-01    0.02       1.0  T
  26   -535.3016752 -0.298374E+00  0.386E-01    0.18       1.0  T
  27   -535.3413919 -0.397167E-01  0.284E-01    0.19       1.0  T
  28   -535.3572637 -0.158718E-01  0.251E-01    0.21       1.0  T
  29   -535.3735393 -0.162756E-01  0.207E-01    0.17       1.0  T
  30   -535.3768331 -0.329374E-02  0.183E-01    0.10       1.0  T
  31   -535.3826811 -0.584806E-02  0.172E-01    0.11       1.0  T
  32   -535.3241575  0.585237E-01  0.225E-01    0.02       1.0  T
  33   -535.3928724 -0.687150E-01  0.119E-01    0.08       1.0  T
  34   -535.3818234  0.110490E-01  0.135E-01    0.06       1.0  T
  35   -535.3904302 -0.860675E-02  0.967E-02    0.06       1.0  T
  36   -535.4021208 -0.116906E-01  0.720E-02    0.09       1.0  T
  37   -535.4037312 -0.161039E-02  0.722E-02    0.11       1.0  T
  38   -535.4042427 -0.511561E-03  0.693E-02    0.12       1.0  T
  39   -535.4049499 -0.707196E-03  0.607E-02    0.12       1.0  T
  40   -535.4059835 -0.103354E-02  0.416E-02    0.11       1.0  T
  41   -535.4057536  0.229832E-03  0.315E-02    0.10       1.0  T
  42   -535.4057638 -0.101934E-04  0.261E-02    0.10       1.0  T
  43   -535.4062482 -0.484376E-03  0.214E-02    0.10       1.0  T
  44   -535.4064385 -0.190340E-03  0.174E-02    0.11       1.0  T
  45   -535.4066564 -0.217882E-03  0.140E-02    0.11       1.0  T
  46   -535.4067336 -0.771883E-04  0.125E-02    0.11       1.0  T
  47   -535.4067764 -0.427734E-04  0.107E-02    0.11       1.0  T
  48   -535.4068100 -0.336480E-04  0.874E-03    0.11       1.0  T
  49   -535.4068415 -0.315005E-04  0.625E-03    0.12       1.0  T
  50   -535.4068582 -0.166797E-04  0.371E-03    0.12       1.6  T
  51   -535.4068649 -0.670829E-05  0.221E-03    0.12       2.6  T
  52   -535.4068681 -0.322992E-05  0.158E-03    0.12       3.7  T
  53   -535.4068698 -0.164584E-05  0.995E-04    0.12       5.8  T
  54   -535.4068703 -0.525070E-06  0.736E-04    0.12       7.9  T
  55   -535.4068707 -0.349544E-06  0.471E-04    0.12      12.3  T
  56   -535.4068708 -0.949985E-07  0.309E-04    0.12      18.8  T
  57   -535.4068708 -0.320199E-08  0.204E-04    0.11      28.4  T
  58   -535.4068708 -0.294607E-07  0.144E-04    0.12      40.1  T
  59   -535.4068708 -0.192349E-07  0.117E-04    0.12      49.6  T

   *** convergence criteria satisfied after 59 iterations ***

         #    Occupation            Energy/Eh            Energy/eV
      -------------------------------------------------------------
         1        2.0000           -0.7980045             -21.7148
       ...           ...                  ...                  ...
       467        2.0000           -0.3747013             -10.1961
       468        2.0000           -0.3734007             -10.1608
       469        2.0000           -0.3726928             -10.1415
       470        2.0000           -0.3724821             -10.1358
       471        2.0000           -0.3716029             -10.1118
       472        1.9999           -0.3642281              -9.9112
       473        1.7300           -0.3569176              -9.7122 (HOMO)
       474        0.1389           -0.3526876              -9.5971 (LUMO)
       475        0.1312           -0.3526295              -9.5955
       476                         -0.3274269              -8.9097
       477                         -0.3264461              -8.8831
       478                         -0.3262171              -8.8768
       ...                                ...                  ...
      1000                          1.2777887              34.7704
      -------------------------------------------------------------
                  HL-Gap            0.0042300 Eh            0.1151 eV
             Fermi-level           -0.3551530 Eh           -9.6642 eV

 SCC (total)                   0 d,  0 h,  0 min, 41.995 sec
 SCC setup                      ...        0 min,  0.036 sec (  0.086%)
 Dispersion                     ...        0 min,  0.028 sec (  0.067%)
 classical contributions        ...        0 min,  0.007 sec (  0.016%)
 integral evaluation            ...        0 min,  0.710 sec (  1.692%)
 iterations                     ...        0 min, 39.397 sec ( 93.814%)
 molecular gradient             ...        0 min,  1.676 sec (  3.992%)
 printout                       ...        0 min,  0.140 sec (  0.333%)

         :::::::::::::::::::::::::::::::::::::::::::::::::::::
         ::                     SUMMARY                     ::
         :::::::::::::::::::::::::::::::::::::::::::::::::::::
         :: total energy            -528.595414437866 Eh    ::
         :: gradient norm              0.763983403721 Eh/a0 ::
         :: HOMO-LUMO gap              0.115105270968 eV    ::
         ::.................................................::
         :: SCC energy              -535.406870815988 Eh    ::
         :: -> electrostatic           0.784467328013 Eh    ::
         :: repulsion energy           7.069116218453 Eh    ::
         :: dispersion energy         -0.257659840330 Eh    ::
         :: halogen bond corr.         0.000000000000 Eh    ::
         :: add. restraining           0.000000000000 Eh    ::
         :: total charge              -0.000000000003 e     ::
         :::::::::::::::::::::::::::::::::::::::::::::::::::::

      ----------------------------------------------------------- 
     |                   =====================                   |
     |                        A N C O P T                        |
     |                   =====================                   |
     |               Approximate Normal Coordinate               |
     |                Rational Function Optimizer                |
      ----------------------------------------------------------- 

          ...................................................
          :                      SETUP                      :
          :.................................................:
          :   optimization level            normal          :
          :   max. optcycles                   894          :
          :   ANC micro-cycles                  20          :
          :   degrees of freedom               888          :
          :.................................................:
          :   RF solver                   davidson          :
          :   write xtbopt.log                true          :
          :   linear?                        false          :
          :   energy convergence         0.5000000E-05 Eh   :
          :   grad. convergence          0.1000000E-02 Eh/α :
          :   maximium RF displ.         1.0000000          :
          :   Hlow (freq-cutoff)         0.1000000E-01      :
          :   Hmax (freq-cutoff)         5.0000000          :
          :   S6 in model hess.         20.0000000          :
          ...................................................

generating ANC from model Hessian ...
Using Lindh-Hessian (1995)
 Shifting diagonal of input Hessian by    1.0027440632819002E-002
 Lowest  eigenvalues of input Hessian
    0.010000    0.010001    0.010006    0.010008    0.010012    0.010013
    0.010016    0.010020    0.010022    0.010022    0.010023    0.010025
    0.010026    0.000000    0.000000    0.000000    0.000000    0.000000
 Highest eigenvalues
    2.101290    2.102790    2.102791    2.440046    2.538067    2.543900


........................................................................
.............................. CYCLE    1 ..............................
........................................................................
   1   -535.4068708 -0.535407E+03  0.964E-05    0.12       0.0  T
   2   -535.4068705  0.286541E-06  0.413E-04    0.11      14.0  T
   3   -535.4068705  0.608336E-07  0.466E-04    0.12      12.4  T
   4   -535.4068708 -0.323456E-06  0.150E-04    0.12      38.7  T
   5   -535.4068708 -0.215749E-07  0.862E-05    0.12      67.2  T
     SCC iter.                  ...        0 min,  3.018 sec
     gradient                   ...        0 min,  1.783 sec
 * total energy  :  -528.5954144 Eh     change       -0.2547608E-08 Eh
   gradient norm :     0.7639874 Eh/α   predicted     0.0000000E+00 (-100.00%)
   displ. norm   :     0.5361015 α      lambda       -0.3490326E+00
   maximum displ.:     0.1252537 α      in ANC's #747, #759, #254, ...

........................................................................
.............................. CYCLE    2 ..............................
........................................................................
   1   -535.5926870 -0.535593E+03  0.137E-01    0.18       0.0  T
   2   -535.4711927  0.121494E+00  0.313E-01    0.01       1.0  T
   3   -535.5857805 -0.114588E+00  0.136E-01    0.33       1.0  T
   4   -535.5976748 -0.118943E-01  0.782E-02    0.16       1.0  T
   5   -535.5970458  0.629045E-03  0.608E-02    0.26       1.0  T
   6   -535.5996829 -0.263711E-02  0.418E-02    0.13       1.0  T
   7   -535.5990349  0.647965E-03  0.505E-02    0.15       1.0  T
   8   -535.6009929 -0.195800E-02  0.240E-02    0.16       1.0  T
   9   -535.6015091 -0.516147E-03  0.107E-02    0.14       1.0  T
  10   -535.6015045  0.455913E-05  0.817E-03    0.14       1.0  T
  11   -535.6015190 -0.144599E-04  0.600E-03    0.15       1.0  T
  12   -535.6015692 -0.502300E-04  0.153E-03    0.14       3.8  T
  13   -535.6015694 -0.221072E-06  0.113E-03    0.14       5.1  T
  14   -535.6015708 -0.133633E-05  0.650E-04    0.14       8.9  T
  15   -535.6015710 -0.237391E-06  0.530E-04    0.14      10.9  T
  16   -535.6015715 -0.455129E-06  0.904E-05    0.14      64.1  T
  17   -535.6015715 -0.115563E-08  0.711E-05    0.14      81.4  T
     SCC iter.                  ...        0 min, 10.937 sec
     gradient                   ...        0 min,  1.810 sec
 * total energy  :  -528.8872472 Eh     change       -0.2918328E+00 Eh
   gradient norm :     0.4894150 Eh/α   predicted    -0.2246971E+00 ( -23.00%)
   displ. norm   :     0.6314734 α      lambda       -0.2745077E+00
   maximum displ.:     0.1333339 α      in ANC's #747, #254, #541, ...

........................................................................
.............................. CYCLE    3 ..............................
........................................................................
   1   -535.9157755 -0.535916E+03  0.165E-01    0.24       0.0  T
   2   -535.8972195  0.185561E-01  0.212E-01    0.15       1.0  T
   3   -535.9179351 -0.207156E-01  0.124E-01    0.23       1.0  T
   4   -535.9266896 -0.875449E-02  0.578E-02    0.21       1.0  T
   5   -535.9248243  0.186534E-02  0.573E-02    0.12       1.0  T
   6   -535.9278026 -0.297828E-02  0.301E-02    0.21       1.0  T
   7   -535.9285186 -0.716016E-03  0.146E-02    0.21       1.0  T
   8   -535.9285168  0.181255E-05  0.122E-02    0.20       1.0  T
   9   -535.9287049 -0.188101E-03  0.274E-03    0.19       2.1  T
  10   -535.9287108 -0.592136E-05  0.110E-03    0.19       5.3  T
  11   -535.9287102  0.610075E-06  0.138E-03    0.19       4.2  T
  12   -535.9287116 -0.139207E-05  0.368E-04    0.19      15.7  T
  13   -535.9287117 -0.875320E-07  0.200E-04    0.19      29.0  T
  14   -535.9287117 -0.353895E-07  0.806E-05    0.19      71.9  T
     SCC iter.                  ...        0 min,  8.815 sec
     gradient                   ...        0 min,  1.775 sec
 * total energy  :  -529.0169419 Eh     change       -0.1296947E+00 Eh
   gradient norm :     0.3474757 Eh/α   predicted    -0.1920082E+00 (  48.05%)
   displ. norm   :     0.5205955 α      lambda       -0.1007395E+00
   maximum displ.:     0.1614517 α      in ANC's #190, #254, #243, ...

........................................................................
.............................. CYCLE    4 ..............................
........................................................................
   1   -535.9572536 -0.535957E+03  0.822E-02    0.21       0.0  T
   2   -535.9293080  0.279456E-01  0.219E-01    0.12       1.0  T
   3   -535.9609994 -0.316914E-01  0.307E-02    0.20       1.0  T
   4   -535.9437249  0.172745E-01  0.108E-01    0.08       1.0  T
   5   -535.9611192 -0.173944E-01  0.246E-02    0.23       1.0  T
   6   -535.9610867  0.325042E-04  0.203E-02    0.19       1.0  T
   7   -535.9613806 -0.293924E-03  0.128E-02    0.22       1.0  T
   8   -535.9615448 -0.164192E-03  0.646E-03    0.20       1.0  T
   9   -535.9615923 -0.474337E-04  0.330E-03    0.19       1.8  T
  10   -535.9616031 -0.107941E-04  0.140E-03    0.19       4.1  T
  11   -535.9615992  0.389948E-05  0.206E-03    0.18       2.8  T
  12   -535.9616038 -0.467516E-05  0.369E-04    0.18      15.7  T
  13   -535.9616039 -0.710006E-07  0.213E-04    0.18      27.2  T
  14   -535.9616039 -0.260355E-07  0.129E-04    0.18      45.0  T
  15   -535.9616039 -0.170634E-07  0.608E-05    0.18      95.3  T
     SCC iter.                  ...        0 min,  7.944 sec
     gradient                   ...        0 min,  1.242 sec
 * total energy  :  -529.0741423 Eh     change       -0.5720044E-01 Eh
   gradient norm :     0.1222417 Eh/α   predicted    -0.6402147E-01 (  11.92%)
   displ. norm   :     0.6721909 α      lambda       -0.4460642E-01
   maximum displ.:     0.2602149 α      in ANC's #190, #254, #124, ...

........................................................................
.............................. CYCLE    5 ..............................
........................................................................
   1   -536.0649035 -0.536065E+03  0.456E-02    0.18       0.0  T
   2   -536.0640079  0.895599E-03  0.441E-02    0.19       1.0  T
   3   -536.0634106  0.597275E-03  0.479E-02    0.14       1.0  T
   4   -536.0651825 -0.177188E-02  0.208E-02    0.24       1.0  T
   5   -536.0656714 -0.488910E-03  0.766E-03    0.19       1.0  T
   6   -536.0656653  0.611018E-05  0.685E-03    0.19       1.0  T
   7   -536.0656704 -0.512143E-05  0.478E-03    0.18       1.2  T
   8   -536.0656871 -0.167133E-04  0.170E-03    0.19       3.4  T
   9   -536.0656892 -0.213579E-05  0.111E-03    0.19       5.2  T
  10   -536.0656900 -0.714478E-06  0.424E-04    0.19      13.7  T
  11   -536.0656901 -0.145005E-06  0.256E-04    0.19      22.7  T
  12   -536.0656901 -0.336596E-07  0.113E-04    0.19      51.2  T
  13   -536.0656902 -0.886371E-08  0.618E-05    0.19      93.7  T
     SCC iter.                  ...        0 min,  5.879 sec
     gradient                   ...        0 min,  1.816 sec
 * total energy  :  -529.1081431 Eh     change       -0.3400081E-01 Eh
   gradient norm :     0.0735008 Eh/α   predicted    -0.3238064E-01 (  -4.77%)
   displ. norm   :     0.7519765 α      lambda       -0.3094718E-01
   maximum displ.:     0.2672113 α      in ANC's #190, #17, #124, ...

........................................................................
.............................. CYCLE    6 ..............................
........................................................................
   1   -536.1476581 -0.536148E+03  0.322E-02    0.22       0.0  T
   2   -536.1467130  0.945042E-03  0.370E-02    0.15       1.0  T
   3   -536.1473568 -0.643810E-03  0.288E-02    0.27       1.0  T
   4   -536.1480579 -0.701006E-03  0.103E-02    0.21       1.0  T
   5   -536.1481009 -0.430589E-04  0.747E-03    0.20       1.0  T
   6   -536.1481188 -0.179086E-04  0.412E-03    0.20       1.4  T
   7   -536.1481099  0.890838E-05  0.371E-03    0.19       1.6  T
   8   -536.1481267 -0.167815E-04  0.899E-04    0.20       6.4  T
   9   -536.1481270 -0.313066E-06  0.514E-04    0.20      11.3  T
  10   -536.1481272 -0.150440E-06  0.212E-04    0.20      27.3  T
  11   -536.1481272 -0.405340E-07  0.712E-05    0.20      81.4  T
  12   -536.1481272 -0.187697E-08  0.362E-05    0.20     160.2  T
     SCC iter.                  ...        0 min,  8.066 sec
     gradient                   ...        0 min,  1.809 sec
 * total energy  :  -529.1317462 Eh     change       -0.2360307E-01 Eh
   gradient norm :     0.0475503 Eh/α   predicted    -0.2422339E-01 (   2.63%)
   displ. norm   :     0.7986034 α      lambda       -0.2151563E-01
   maximum displ.:     0.2710517 α      in ANC's #17, #48, #64, ...

........................................................................
.............................. CYCLE    7 ..............................
........................................................................
   1   -536.1783137 -0.536178E+03  0.338E-02    0.25       0.0  T
   2   -536.1759882  0.232549E-02  0.758E-02    0.19       1.0  T
   3   -536.1791588 -0.317061E-02  0.139E-02    0.22       1.0  T
   4   -536.1791205  0.383179E-04  0.138E-02    0.22       1.0  T
   5   -536.1792031 -0.826010E-04  0.586E-03    0.22       1.0  T
   6   -536.1792150 -0.119073E-04  0.350E-03    0.23       1.7  T
   7   -536.1792226 -0.763797E-05  0.155E-03    0.22       3.7  T
   8   -536.1792241 -0.146382E-05  0.694E-04    0.22       8.4  T
   9   -536.1792246 -0.515967E-06  0.173E-04    0.22      33.6  T
  10   -536.1792246 -0.155753E-07  0.644E-05    0.22      90.0  T
     SCC iter.                  ...        0 min,  6.546 sec
     gradient                   ...        0 min,  1.707 sec
 * total energy  :  -529.1500671 Eh     change       -0.1832090E-01 Eh
   gradient norm :     0.0413057 Eh/α   predicted    -0.1761882E-01 (  -3.83%)
   displ. norm   :     0.9004728 α      lambda       -0.2093687E-01
   maximum displ.:     0.3424544 α      in ANC's #17, #48, #64, ...

........................................................................
.............................. CYCLE    8 ..............................
........................................................................
   1   -536.1906045 -0.536191E+03  0.428E-02    0.34       0.0  T
   2   -536.1888198  0.178471E-02  0.811E-02    0.26       1.0  T
   3   -536.1919005 -0.308073E-02  0.184E-02    0.28       1.0  T
   4   -536.1918694  0.310886E-04  0.160E-02    0.30       1.0  T
   5   -536.1919910 -0.121555E-03  0.488E-03    0.29       1.2  T
   6   -536.1919973 -0.634959E-05  0.326E-03    0.30       1.8  T
   7   -536.1920042 -0.688727E-05  0.593E-04    0.29       9.8  T
   8   -536.1920045 -0.281002E-06  0.349E-04    0.29      16.6  T
   9   -536.1920046 -0.616282E-07  0.124E-04    0.29      46.9  T
  10   -536.1920046 -0.669604E-08  0.805E-05    0.29      72.0  T
     SCC iter.                  ...        0 min,  6.297 sec
     gradient                   ...        0 min,  1.596 sec
 * total energy  :  -529.1691516 Eh     change       -0.1908449E-01 Eh
   gradient norm :     0.0582482 Eh/α   predicted    -0.1895682E-01 (  -0.67%)
   displ. norm   :     0.9134170 α      lambda       -0.2396511E-01
   maximum displ.:     0.3590247 α      in ANC's #17, #48, #64, ...

........................................................................
.............................. CYCLE    9 ..............................
........................................................................
   1   -536.1926059 -0.536193E+03  0.486E-02    0.51       0.0  T
   2   -536.1920019  0.603921E-03  0.718E-02    0.46       1.0  T
   3   -536.1940665 -0.206455E-02  0.198E-02    0.47       1.0  T
   4   -536.1940187  0.477752E-04  0.159E-02    0.49       1.0  T
   5   -536.1941217 -0.102980E-03  0.558E-03    0.48       1.0  T
   6   -536.1941303 -0.857795E-05  0.282E-03    0.49       2.1  T
   7   -536.1941373 -0.706719E-05  0.658E-04    0.49       8.8  T
   8   -536.1941377 -0.366364E-06  0.337E-04    0.49      17.2  T
   9   -536.1941378 -0.786680E-07  0.129E-04    0.49      44.8  T
  10   -536.1941378 -0.661373E-08  0.687E-05    0.49      84.3  T
     SCC iter.                  ...        0 min,  6.389 sec
     gradient                   ...        0 min,  1.785 sec
 * total energy  :  -529.1938425 Eh     change       -0.2469094E-01 Eh
   gradient norm :     0.0593066 Eh/α   predicted    -0.2197996E-01 ( -10.98%)
   displ. norm   :     0.8960151 α      lambda       -0.2673058E-01
   maximum displ.:     0.3600641 α      in ANC's #17, #64, #48, ...

........................................................................
.............................. CYCLE   10 ..............................
........................................................................
   1   -536.1907770 -0.536191E+03  0.435E-02    0.80       0.0  T
   2   -536.1907220  0.550699E-04  0.560E-02    0.77       1.0  T
   3   -536.1917515 -0.102951E-02  0.190E-02    0.78       1.0  T
   4   -536.1916823  0.692109E-04  0.137E-02    0.80       1.0  T
   5   -536.1917547 -0.723969E-04  0.586E-03    0.79       1.0  T
   6   -536.1917731 -0.184451E-04  0.189E-03    0.80       3.1  T
   7   -536.1917761 -0.302527E-05  0.517E-04    0.80      11.2  T
   8   -536.1917763 -0.158432E-06  0.255E-04    0.80      22.7  T
   9   -536.1917763 -0.489703E-07  0.139E-04    0.80      41.6  T
  10   -536.1917763 -0.119763E-07  0.510E-05    0.80     113.6  T
     SCC iter.                  ...        0 min,  6.304 sec
     gradient                   ...        0 min,  1.814 sec
 * total energy  :  -529.2211506 Eh     change       -0.2730809E-01 Eh
   gradient norm :     0.0710366 Eh/α   predicted    -0.2409551E-01 ( -11.76%)
   displ. norm   :     0.8638134 α      lambda       -0.2953655E-01
   maximum displ.:     0.3702855 α      in ANC's #17, #64, #48, ...

........................................................................
.............................. CYCLE   11 ..............................
........................................................................
   1   -536.1863929 -0.536186E+03  0.402E-02    1.11       0.0  T
   2   -536.1865035 -0.110626E-03  0.465E-02    1.11       1.0  T
   3   -536.1870424 -0.538869E-03  0.187E-02    1.11       1.0  T
   4   -536.1869650  0.774252E-04  0.111E-02    1.11       1.0  T
   5   -536.1870280 -0.630578E-04  0.483E-03    1.11       1.2  T
   6   -536.1870527 -0.246580E-04  0.130E-03    1.11       4.5  T
   7   -536.1870538 -0.108551E-05  0.392E-04    1.11      14.8  T
   8   -536.1870539 -0.112916E-06  0.204E-04    1.11      28.4  T
   9   -536.1870539 -0.424371E-07  0.991E-05    1.11      58.4  T
  10   -536.1870539 -0.644491E-08  0.307E-05    1.11     188.5  T
     SCC iter.                  ...        0 min,  7.093 sec
     gradient                   ...        0 min,  1.765 sec
 * total energy  :  -529.2466290 Eh     change       -0.2547835E-01 Eh
   gradient norm :     0.0760340 Eh/α   predicted    -0.2578796E-01 (   1.22%)
   displ. norm   :     0.8546990 α      lambda       -0.4001225E-01
   maximum displ.:     0.2972483 α      in ANC's #17, #64, #48, ...

........................................................................
.............................. CYCLE   12 ..............................
........................................................................
   1   -536.1974748 -0.536197E+03  0.588E-02    1.12       0.0  T
   2   -536.1979869 -0.512049E-03  0.601E-02    1.12       1.0  T
   3   -536.1987266 -0.739754E-03  0.254E-02    1.12       1.0  T
   4   -536.1984126  0.314013E-03  0.192E-02    1.12       1.0  T
   5   -536.1987281 -0.315496E-03  0.436E-03    1.12       1.3  T
   6   -536.1987475 -0.193659E-04  0.121E-03    1.12       4.8  T
   7   -536.1987483 -0.827954E-06  0.608E-04    1.12       9.5  T
   8   -536.1987486 -0.333211E-06  0.214E-04    1.12      27.1  T
   9   -536.1987487 -0.301101E-07  0.118E-04    1.12      48.9  T
  10   -536.1987487 -0.113952E-07  0.404E-05    1.12     143.4  T
     SCC iter.                  ...        0 min,  6.557 sec
     gradient                   ...        0 min,  1.765 sec
 * total energy  :  -529.2729672 Eh     change       -0.2633827E-01 Eh
   gradient norm :     0.0861038 Eh/α   predicted    -0.3462076E-01 (  31.45%)
   displ. norm   :     0.7161025 α      lambda       -0.3234786E-01
   maximum displ.:     0.2539060 α      in ANC's #17, #64, #48, ...

........................................................................
.............................. CYCLE   13 ..............................
........................................................................
   1   -536.2291736 -0.536229E+03  0.398E-02    1.14       0.0  T
   2   -536.2294207 -0.247047E-03  0.396E-02    1.14       1.0  T
   3   -536.2296969 -0.276258E-03  0.176E-02    1.14       1.0  T
   4   -536.2295629  0.134057E-03  0.142E-02    1.14       1.0  T
   5   -536.2296942 -0.131372E-03  0.349E-03    1.14       1.7  T
   6   -536.2297056 -0.113090E-04  0.776E-04    1.14       7.5  T
   7   -536.2297059 -0.350533E-06  0.432E-04    1.14      13.4  T
   8   -536.2297061 -0.148862E-06  0.145E-04    1.14      40.0  T
   9   -536.2297061 -0.142023E-07  0.748E-05    1.14      77.5  T
     SCC iter.                  ...        0 min,  6.065 sec
     gradient                   ...        0 min,  1.687 sec
 * total energy  :  -529.2982429 Eh     change       -0.2527562E-01 Eh
   gradient norm :     0.0824215 Eh/α   predicted    -0.2446796E-01 (  -3.20%)
   displ. norm   :     0.8718527 α      lambda       -0.3378620E-01
   maximum displ.:     0.3633299 α      in ANC's #17, #64, #48, ...

........................................................................
.............................. CYCLE   14 ..............................
........................................................................
   1   -536.2262150 -0.536226E+03  0.353E-02    1.12       0.0  T
   2   -536.2263204 -0.105422E-03  0.362E-02    1.12       1.0  T
   3   -536.2265584 -0.237930E-03  0.177E-02    1.12       1.0  T
   4   -536.2263892  0.169140E-03  0.148E-02    1.12       1.0  T
   5   -536.2265594 -0.170174E-03  0.282E-03    1.12       2.1  T
   6   -536.2265656 -0.623646E-05  0.650E-04    1.12       8.9  T
   7   -536.2265659 -0.234204E-06  0.367E-04    1.12      15.8  T
   8   -536.2265660 -0.137271E-06  0.105E-04    1.12      55.3  T
   9   -536.2265660 -0.811258E-08  0.486E-05    1.12     119.2  T
     SCC iter.                  ...        0 min,  5.517 sec
     gradient                   ...        0 min,  1.804 sec
 * total energy  :  -529.3234146 Eh     change       -0.2517178E-01 Eh
   gradient norm :     0.0581948 Eh/α   predicted    -0.2973399E-01 (  18.12%)
   displ. norm   :     0.8500350 α      lambda       -0.2187926E-01
   maximum displ.:     0.4071704 α      in ANC's #17, #64, #48, ...

........................................................................
.............................. CYCLE   15 ..............................
........................................................................
   1   -536.2493788 -0.536249E+03  0.172E-02    1.10       0.0  T
   2   -536.2493801 -0.135810E-05  0.169E-02    1.10       1.0  T
   3   -536.2494508 -0.706450E-04  0.735E-03    1.10       1.0  T
   4   -536.2494123  0.384254E-04  0.690E-03    1.10       1.0  T
   5   -536.2494530 -0.406978E-04  0.106E-03    1.10       5.5  T
   6   -536.2494537 -0.676915E-06  0.192E-04    1.10      30.2  T
   7   -536.2494537 -0.235401E-07  0.836E-05    1.10      69.3  T
     SCC iter.                  ...        0 min,  4.535 sec
     gradient                   ...        0 min,  1.826 sec
 * total energy  :  -529.3397201 Eh     change       -0.1630543E-01 Eh
   gradient norm :     0.0589428 Eh/α   predicted    -0.1884417E-01 (  15.57%)
   displ. norm   :     0.8036249 α      lambda       -0.2458785E-01
   maximum displ.:     0.3970211 α      in ANC's #17, #64, #48, ...

........................................................................
.............................. CYCLE   16 ..............................
........................................................................
   1   -536.2781214 -0.536278E+03  0.244E-02    1.09       0.0  T
   2   -536.2782197 -0.983789E-04  0.211E-02    1.09       1.0  T
   3   -536.2783165 -0.967743E-04  0.100E-02    1.09       1.0  T
   4   -536.2782302  0.863213E-04  0.935E-03    1.09       1.0  T
   5   -536.2783206 -0.903715E-04  0.246E-03    1.09       2.4  T
   6   -536.2783249 -0.429503E-05  0.627E-04    1.09       9.2  T
   7   -536.2783252 -0.299331E-06  0.226E-04    1.09      25.7  T
   8   -536.2783252 -0.542808E-07  0.919E-05    1.09      63.0  T
   9   -536.2783252 -0.501268E-08  0.336E-05    1.09     172.5  T
     SCC iter.                  ...        0 min,  5.832 sec
     gradient                   ...        0 min,  1.730 sec
 * total energy  :  -529.3546616 Eh     change       -0.1494156E-01 Eh
   gradient norm :     0.0928848 Eh/α   predicted    -0.2023349E-01 (  35.42%)
   displ. norm   :     0.7753694 α      lambda       -0.2055384E-01
   maximum displ.:     0.4204333 α      in ANC's #17, #48, #64, ...

........................................................................
.............................. CYCLE   17 ..............................
........................................................................
   1   -536.3227847 -0.536323E+03  0.240E-02    1.10       0.0  T
   2   -536.3228489 -0.641894E-04  0.212E-02    1.10       1.0  T
   3   -536.3229316 -0.827736E-04  0.911E-03    1.10       1.0  T
   4   -536.3228842  0.474633E-04  0.794E-03    1.10       1.0  T
   5   -536.3229328 -0.485912E-04  0.176E-03    1.10       3.3  T
   6   -536.3229361 -0.332913E-05  0.365E-04    1.10      15.9  T
   7   -536.3229362 -0.949836E-07  0.204E-04    1.10      28.5  T
   8   -536.3229363 -0.502451E-07  0.681E-05    1.10      85.1  T
   9   -536.3229363 -0.308262E-08  0.272E-05    1.10     213.0  T
     SCC iter.                  ...        0 min,  6.128 sec
     gradient                   ...        0 min,  1.773 sec
 * total energy  :  -529.3695853 Eh     change       -0.1492365E-01 Eh
   gradient norm :     0.0506729 Eh/α   predicted    -0.1645538E-01 (  10.26%)
   displ. norm   :     0.7982056 α      lambda       -0.2020061E-01
   maximum displ.:     0.4181528 α      in ANC's #17, #48, #64, ...

........................................................................
.............................. CYCLE   18 ..............................
........................................................................
   1   -536.3627009 -0.536363E+03  0.149E-02    1.11       0.0  T
   2   -536.3627135 -0.125400E-04  0.124E-02    1.11       1.0  T
   3   -536.3627716 -0.581255E-04  0.540E-03    1.11       1.1  T
   4   -536.3627579  0.136598E-04  0.590E-03    1.11       1.0  T
   5   -536.3627865 -0.285628E-04  0.163E-03    1.11       3.5  T
   6   -536.3627873 -0.857258E-06  0.536E-04    1.11      10.8  T
   7   -536.3627877 -0.324595E-06  0.158E-04    1.11      36.6  T
   8   -536.3627877 -0.262955E-07  0.451E-05    1.11     128.4  T
     SCC iter.                  ...        0 min,  5.246 sec
     gradient                   ...        0 min,  1.784 sec
 * total energy  :  -529.3805015 Eh     change       -0.1091621E-01 Eh
   gradient norm :     0.1010212 Eh/α   predicted    -0.1653553E-01 (  51.48%)
   displ. norm   :     0.7396523 α      lambda       -0.1884880E-01
   maximum displ.:     0.4245462 α      in ANC's #17, #48, #64, ...

........................................................................
.............................. CYCLE   19 ..............................
........................................................................
   1   -536.3740864 -0.536374E+03  0.115E-02    1.09       0.0  T
   2   -536.3741052 -0.188508E-04  0.866E-03    1.09       1.0  T
   3   -536.3741194 -0.141962E-04  0.446E-03    1.09       1.3  T
   4   -536.3741144  0.502696E-05  0.374E-03    1.09       1.5  T
   5   -536.3741242 -0.980596E-05  0.124E-03    1.09       4.7  T
   6   -536.3741258 -0.160279E-05  0.456E-04    1.09      12.7  T
   7   -536.3741261 -0.236121E-06  0.124E-04    1.09      46.7  T
   8   -536.3741261 -0.177346E-07  0.284E-05    1.09     204.2  T
     SCC iter.                  ...        0 min,  5.458 sec
     gradient                   ...        0 min,  1.699 sec
 * total energy  :  -529.3953796 Eh     change       -0.1487810E-01 Eh
   gradient norm :     0.0270488 Eh/α   predicted    -0.1458036E-01 (  -2.00%)
   displ. norm   :     0.8846325 α      lambda       -0.1472617E-01
   maximum displ.:     0.5309947 α      in ANC's #17, #48, #64, ...

........................................................................
.............................. CYCLE   20 ..............................
........................................................................
   1   -536.3954490 -0.536395E+03  0.798E-03    1.08       0.0  T
   2   -536.3954404  0.856209E-05  0.690E-03    1.08       1.0  T
   3   -536.3954657 -0.253387E-04  0.328E-03    1.08       1.8  T
   4   -536.3954672 -0.145958E-05  0.285E-03    1.08       2.0  T
   5   -536.3954726 -0.536923E-05  0.789E-04    1.08       7.3  T
   6   -536.3954732 -0.587887E-06  0.300E-04    1.08      19.3  T
   7   -536.3954733 -0.978438E-07  0.586E-05    1.08      98.8  T
   8   -536.3954733 -0.264788E-08  0.195E-05    1.08     296.7  T
     SCC iter.                  ...        0 min,  4.898 sec
     gradient                   ...        0 min,  1.809 sec
 * total energy  :  -529.4079191 Eh     change       -0.1253948E-01 Eh
   gradient norm :     0.0308147 Eh/α   predicted    -0.1312525E-01 (   4.67%)
   displ. norm   :     0.9108042 α      lambda       -0.1490079E-01
   maximum displ.:     0.5475814 α      in ANC's #17, #48, #64, ...
 * RMSD in coord.:     0.6926732 α      energy gain  -0.8125046E+00 Eh

generating ANC from model Hessian ...
Using Lindh-Hessian (1995)
 Shifting diagonal of input Hessian by    1.0026101430057884E-002
 Lowest  eigenvalues of input Hessian
    0.010000    0.010005    0.010012    0.010014    0.010018    0.010020
    0.010020    0.010021    0.010022    0.000000    0.000000    0.000000
    0.000000    0.000000    0.000000    0.010032    0.010041    0.010054
 Highest eigenvalues
    2.133908    2.141035    2.141798    2.517682    2.543810    2.566676


........................................................................
.............................. CYCLE   21 ..............................
........................................................................
   1   -536.4211228 -0.536421E+03  0.931E-03    1.08       0.0  T
   2   -536.4211100  0.128484E-04  0.926E-03    1.08       1.0  T
   3   -536.4211557 -0.457412E-04  0.361E-03    1.08       1.6  T
   4   -536.4211448  0.109239E-04  0.398E-03    1.08       1.5  T
   5   -536.4211585 -0.137318E-04  0.880E-04    1.08       6.6  T
   6   -536.4211591 -0.545661E-06  0.310E-04    1.08      18.7  T
   7   -536.4211592 -0.111497E-06  0.569E-05    1.08     101.7  T
   8   -536.4211592 -0.271302E-08  0.212E-05    1.08     273.9  T
     SCC iter.                  ...        0 min,  5.177 sec
     gradient                   ...        0 min,  1.790 sec
 * total energy  :  -529.4196648 Eh     change       -0.1174577E-01 Eh
   gradient norm :     0.0310286 Eh/α   predicted     0.0000000E+00 (-100.00%)
   displ. norm   :     0.6305035 α      lambda       -0.9433645E-02
   maximum displ.:     0.3233054 α      in ANC's #47, #24, #62, ...

........................................................................
.............................. CYCLE   22 ..............................
........................................................................
   1   -536.4464537 -0.536446E+03  0.489E-03    1.08       0.0  T
   2   -536.4464503  0.340093E-05  0.409E-03    1.08       1.4  T
   3   -536.4464612 -0.108849E-04  0.190E-03    1.08       3.0  T
   4   -536.4464623 -0.112110E-05  0.157E-03    1.08       3.7  T
   5   -536.4464638 -0.152659E-05  0.445E-04    1.08      13.0  T
   6   -536.4464640 -0.187793E-06  0.159E-04    1.08      36.5  T
   7   -536.4464641 -0.267831E-07  0.398E-05    1.08     145.5  T
     SCC iter.                  ...        0 min,  4.492 sec
     gradient                   ...        0 min,  1.758 sec
 * total energy  :  -529.4281504 Eh     change       -0.8485571E-02 Eh
   gradient norm :     0.0184846 Eh/α   predicted    -0.6592387E-02 ( -22.31%)
   displ. norm   :     0.9133831 α      lambda       -0.1264031E-01
   maximum displ.:     0.4540461 α      in ANC's #47, #24, #62, ...

........................................................................
.............................. CYCLE   23 ..............................
........................................................................
   1   -536.4768790 -0.536477E+03  0.773E-03    1.08       0.0  T
   2   -536.4768712  0.781813E-05  0.644E-03    1.08       1.0  T
   3   -536.4769015 -0.302484E-04  0.281E-03    1.08       2.1  T
   4   -536.4769047 -0.324436E-05  0.230E-03    1.08       2.5  T
   5   -536.4769077 -0.299467E-05  0.708E-04    1.08       8.2  T
   6   -536.4769082 -0.483483E-06  0.262E-04    1.08      22.1  T
   7   -536.4769083 -0.711613E-07  0.649E-05    1.08      89.2  T
   8   -536.4769083 -0.248656E-08  0.241E-05    1.08     239.9  T
     SCC iter.                  ...        0 min,  5.828 sec
     gradient                   ...        0 min,  1.753 sec
 * total energy  :  -529.4378114 Eh     change       -0.9660988E-02 Eh
   gradient norm :     0.0300010 Eh/α   predicted    -0.1159286E-01 (  20.00%)
   displ. norm   :     0.8487927 α      lambda       -0.1205541E-01
   maximum displ.:     0.4245110 α      in ANC's #47, #24, #62, ...

........................................................................
.............................. CYCLE   24 ..............................
........................................................................
   1   -536.5008704 -0.536501E+03  0.699E-03    1.08       0.0  T
   2   -536.5008589  0.115161E-04  0.607E-03    1.08       1.0  T
   3   -536.5008913 -0.324717E-04  0.262E-03    1.08       2.2  T
   4   -536.5008952 -0.385632E-05  0.193E-03    1.08       3.0  T
   5   -536.5008965 -0.134083E-05  0.729E-04    1.08       7.9  T
   6   -536.5008971 -0.589698E-06  0.248E-04    1.08      23.3  T
   7   -536.5008972 -0.633099E-07  0.625E-05    1.08      92.6  T
   8   -536.5008972 -0.187822E-08  0.214E-05    1.08     271.3  T
     SCC iter.                  ...        0 min,  5.281 sec
     gradient                   ...        0 min,  1.817 sec
 * total energy  :  -529.4479584 Eh     change       -0.1014702E-01 Eh
   gradient norm :     0.0283298 Eh/α   predicted    -0.1037036E-01 (   2.20%)
   displ. norm   :     0.8939239 α      lambda       -0.1050246E-01
   maximum displ.:     0.4683676 α      in ANC's #47, #24, #29, ...

........................................................................
.............................. CYCLE   25 ..............................
........................................................................
   1   -536.5175921 -0.536518E+03  0.644E-03    1.08       0.0  T
   2   -536.5175808  0.112975E-04  0.594E-03    1.08       1.0  T
   3   -536.5176151 -0.343756E-04  0.222E-03    1.08       2.6  T
   4   -536.5176171 -0.192566E-05  0.178E-03    1.08       3.3  T
   5   -536.5176183 -0.126373E-05  0.660E-04    1.08       8.8  T
   6   -536.5176188 -0.423906E-06  0.276E-04    1.08      21.0  T
   7   -536.5176188 -0.811493E-07  0.629E-05    1.08      92.1  T
   8   -536.5176188 -0.219450E-08  0.200E-05    1.08     289.0  T
     SCC iter.                  ...        0 min,  5.417 sec
     gradient                   ...        0 min,  1.707 sec
 * total energy  :  -529.4565058 Eh     change       -0.8547432E-02 Eh
   gradient norm :     0.0235463 Eh/α   predicted    -0.9447491E-02 (  10.53%)
   displ. norm   :     0.8772844 α      lambda       -0.1085720E-01
   maximum displ.:     0.4463693 α      in ANC's #47, #24, #29, ...

........................................................................
.............................. CYCLE   26 ..............................
........................................................................
   1   -536.5339049 -0.536534E+03  0.619E-03    1.07       0.0  T
   2   -536.5338973  0.761584E-05  0.551E-03    1.07       1.1  T
   3   -536.5339237 -0.264759E-04  0.240E-03    1.07       2.4  T
   4   -536.5339257 -0.196917E-05  0.172E-03    1.07       3.4  T
   5   -536.5339268 -0.106691E-05  0.695E-04    1.07       8.3  T
   6   -536.5339273 -0.521646E-06  0.267E-04    1.07      21.7  T
   7   -536.5339274 -0.739972E-07  0.543E-05    1.07     106.6  T
   8   -536.5339274 -0.164823E-08  0.191E-05    1.07     303.1  T
     SCC iter.                  ...        0 min,  4.811 sec
     gradient                   ...        0 min,  1.776 sec
 * total energy  :  -529.4649165 Eh     change       -0.8410697E-02 Eh
   gradient norm :     0.0240959 Eh/α   predicted    -0.9606597E-02 (  14.22%)
   displ. norm   :     0.8567332 α      lambda       -0.1012018E-01
   maximum displ.:     0.4496855 α      in ANC's #47, #24, #29, ...

........................................................................
.............................. CYCLE   27 ..............................
........................................................................
   1   -536.5583944 -0.536558E+03  0.621E-03    1.07       0.0  T
   2   -536.5583870  0.733651E-05  0.550E-03    1.07       1.1  T
   3   -536.5584069 -0.199254E-04  0.269E-03    1.07       2.2  T
   4   -536.5584094 -0.241645E-05  0.158E-03    1.07       3.7  T
   5   -536.5584099 -0.534563E-06  0.714E-04    1.07       8.1  T
   6   -536.5584105 -0.647051E-06  0.195E-04    1.07      29.6  T
   7   -536.5584106 -0.428289E-07  0.445E-05    1.07     130.1  T
     SCC iter.                  ...        0 min,  4.528 sec
     gradient                   ...        0 min,  1.833 sec
 * total energy  :  -529.4730284 Eh     change       -0.8111901E-02 Eh
   gradient norm :     0.0168012 Eh/α   predicted    -0.8774157E-02 (   8.16%)
   displ. norm   :     0.8847778 α      lambda       -0.8867269E-02
   maximum displ.:     0.4733231 α      in ANC's #47, #24, #29, ...

........................................................................
.............................. CYCLE   28 ..............................
........................................................................
   1   -536.5826304 -0.536583E+03  0.513E-03    1.06       0.0  T
   2   -536.5826253  0.507639E-05  0.444E-03    1.06       1.3  T
   3   -536.5826409 -0.156363E-04  0.201E-03    1.06       2.9  T
   4   -536.5826427 -0.179072E-05  0.133E-03    1.06       4.4  T
   5   -536.5826431 -0.404406E-06  0.571E-04    1.06      10.1  T
   6   -536.5826435 -0.398115E-06  0.182E-04    1.06      31.8  T
   7   -536.5826436 -0.369039E-07  0.402E-05    1.06     144.1  T
     SCC iter.                  ...        0 min,  4.379 sec
     gradient                   ...        0 min,  1.819 sec
 * total energy  :  -529.4807672 Eh     change       -0.7738774E-02 Eh
   gradient norm :     0.0163748 Eh/α   predicted    -0.7904437E-02 (   2.14%)
   displ. norm   :     0.9097722 α      lambda       -0.8919978E-02
   maximum displ.:     0.4836875 α      in ANC's #24, #47, #29, ...

........................................................................
.............................. CYCLE   29 ..............................
........................................................................
   1   -536.6054477 -0.536605E+03  0.486E-03    1.06       0.0  T
   2   -536.6054452  0.253688E-05  0.403E-03    1.06       1.4  T
   3   -536.6054572 -0.119984E-04  0.185E-03    1.06       3.1  T
   4   -536.6054585 -0.132211E-05  0.126E-03    1.06       4.6  T
   5   -536.6054591 -0.577003E-06  0.470E-04    1.06      12.3  T
   6   -536.6054593 -0.227927E-06  0.199E-04    1.06      29.0  T
   7   -536.6054593 -0.471229E-07  0.429E-05    1.06     134.9  T
     SCC iter.                  ...        0 min,  5.471 sec
     gradient                   ...        0 min,  1.778 sec
 * total energy  :  -529.4874610 Eh     change       -0.6693813E-02 Eh
   gradient norm :     0.0201399 Eh/α   predicted    -0.8151461E-02 (  21.78%)
   displ. norm   :     0.8467291 α      lambda       -0.8415504E-02
   maximum displ.:     0.4610157 α      in ANC's #47, #24, #29, ...

........................................................................
.............................. CYCLE   30 ..............................
........................................................................
   1   -536.6239134 -0.536624E+03  0.467E-03    1.05       0.0  T
   2   -536.6239101  0.338850E-05  0.390E-03    1.05       1.5  T
   3   -536.6239220 -0.119643E-04  0.191E-03    1.05       3.0  T
   4   -536.6239238 -0.173677E-05  0.116E-03    1.05       5.0  T
   5   -536.6239241 -0.306840E-06  0.457E-04    1.05      12.7  T
   6   -536.6239243 -0.226214E-06  0.197E-04    1.05      29.4  T
   7   -536.6239243 -0.468500E-07  0.394E-05    1.05     147.0  T
     SCC iter.                  ...        0 min,  4.512 sec
     gradient                   ...        0 min,  1.816 sec
 * total energy  :  -529.4948800 Eh     change       -0.7418951E-02 Eh
   gradient norm :     0.0137076 Eh/α   predicted    -0.7224526E-02 (  -2.62%)
   displ. norm   :     0.9198639 α      lambda       -0.7343510E-02
   maximum displ.:     0.5260286 α      in ANC's #24, #47, #29, ...

........................................................................
.............................. CYCLE   31 ..............................
........................................................................
   1   -536.6449242 -0.536645E+03  0.461E-03    1.05       0.0  T
   2   -536.6449232  0.103228E-05  0.350E-03    1.05       1.7  T
   3   -536.6449312 -0.807226E-05  0.178E-03    1.05       3.3  T
   4   -536.6449329 -0.164909E-05  0.108E-03    1.05       5.4  T
   5   -536.6449332 -0.317445E-06  0.306E-04    1.05      18.9  T
   6   -536.6449333 -0.840355E-07  0.130E-04    1.05      44.7  T
   7   -536.6449333 -0.207426E-07  0.455E-05    1.05     127.4  T
     SCC iter.                  ...        0 min,  4.537 sec
     gradient                   ...        0 min,  1.748 sec
 * total energy  :  -529.5018401 Eh     change       -0.6960121E-02 Eh
   gradient norm :     0.0114451 Eh/α   predicted    -0.6778618E-02 (  -2.61%)
   displ. norm   :     0.9392683 α      lambda       -0.6947043E-02
   maximum displ.:     0.5503153 α      in ANC's #24, #47, #29, ...

........................................................................
.............................. CYCLE   32 ..............................
........................................................................
   1   -536.6653935 -0.536665E+03  0.462E-03    1.05       0.0  T
   2   -536.6653938 -0.293103E-06  0.315E-03    1.05       1.8  T
   3   -536.6653993 -0.550361E-05  0.187E-03    1.05       3.1  T
   4   -536.6654013 -0.207361E-05  0.103E-03    1.05       5.6  T
   5   -536.6654016 -0.239748E-06  0.277E-04    1.05      20.9  T
   6   -536.6654016 -0.527255E-07  0.607E-05    1.05      95.4  T
   7   -536.6654016 -0.120167E-09  0.431E-05    1.05     134.4  T
     SCC iter.                  ...        0 min,  4.547 sec
     gradient                   ...        0 min,  1.686 sec
 * total energy  :  -529.5085323 Eh     change       -0.6692204E-02 Eh
   gradient norm :     0.0088331 Eh/α   predicted    -0.6537954E-02 (  -2.30%)
   displ. norm   :     0.9425190 α      lambda       -0.6613412E-02
   maximum displ.:     0.5644298 α      in ANC's #24, #47, #29, ...

........................................................................
.............................. CYCLE   33 ..............................
........................................................................
   1   -536.6841148 -0.536684E+03  0.466E-03    1.04       0.0  T
   2   -536.6841154 -0.591623E-06  0.300E-03    1.04       1.9  T
   3   -536.6841203 -0.487214E-05  0.194E-03    1.04       3.0  T
   4   -536.6841228 -0.251194E-05  0.102E-03    1.04       5.7  T
   5   -536.6841230 -0.158373E-06  0.340E-04    1.04      17.0  T
   6   -536.6841230 -0.898950E-07  0.138E-04    1.04      42.0  T
   7   -536.6841231 -0.262706E-07  0.499E-05    1.04     116.1  T
     SCC iter.                  ...        0 min,  4.394 sec
     gradient                   ...        0 min,  1.837 sec
 * total energy  :  -529.5148805 Eh     change       -0.6348159E-02 Eh
   gradient norm :     0.0074596 Eh/α   predicted    -0.6244205E-02 (  -1.64%)
   displ. norm   :     0.9442798 α      lambda       -0.6242891E-02
   maximum displ.:     0.5755087 α      in ANC's #24, #47, #29, ...

........................................................................
.............................. CYCLE   34 ..............................
........................................................................
   1   -536.7014927 -0.536701E+03  0.459E-03    1.04       0.0  T
   2   -536.7014925  0.162375E-06  0.307E-03    1.04       1.9  T
   3   -536.7014983 -0.573546E-05  0.193E-03    1.04       3.0  T
   4   -536.7015010 -0.272790E-05  0.101E-03    1.04       5.7  T
   5   -536.7015011 -0.138914E-06  0.361E-04    1.04      16.0  T
   6   -536.7015013 -0.119693E-06  0.151E-04    1.04      38.5  T
   7   -536.7015013 -0.321639E-07  0.443E-05    1.04     130.9  T
     SCC iter.                  ...        0 min,  4.571 sec
     gradient                   ...        0 min,  1.731 sec
 * total energy  :  -529.5208661 Eh     change       -0.5985604E-02 Eh
   gradient norm :     0.0074177 Eh/α   predicted    -0.5904735E-02 (  -1.35%)
   displ. norm   :     0.9418365 α      lambda       -0.5853411E-02
   maximum displ.:     0.5816535 α      in ANC's #24, #47, #29, ...

........................................................................
.............................. CYCLE   35 ..............................
........................................................................
   1   -536.7178374 -0.536718E+03  0.434E-03    1.04       0.0  T
   2   -536.7178367  0.675541E-06  0.304E-03    1.04       1.9  T
   3   -536.7178429 -0.621747E-05  0.183E-03    1.04       3.2  T
   4   -536.7178454 -0.244419E-05  0.978E-04    1.04       5.9  T
   5   -536.7178455 -0.152037E-06  0.343E-04    1.04      16.9  T
   6   -536.7178457 -0.106438E-06  0.144E-04    1.04      40.4  T
   7   -536.7178457 -0.288176E-07  0.408E-05    1.04     142.0  T
     SCC iter.                  ...        0 min,  4.484 sec
     gradient                   ...        0 min,  1.773 sec
 * total energy  :  -529.5264950 Eh     change       -0.5628975E-02 Eh
   gradient norm :     0.0073075 Eh/α   predicted    -0.5522861E-02 (  -1.89%)
   displ. norm   :     0.9369925 α      lambda       -0.5477512E-02
   maximum displ.:     0.5873402 α      in ANC's #24, #47, #29, ...

........................................................................
.............................. CYCLE   36 ..............................
........................................................................
   1   -536.7341438 -0.536734E+03  0.404E-03    1.04       0.0  T
   2   -536.7341425  0.126454E-05  0.300E-03    1.04       1.9  T
   3   -536.7341491 -0.660323E-05  0.170E-03    1.04       3.4  T
   4   -536.7341511 -0.197033E-05  0.936E-04    1.04       6.2  T
   5   -536.7341513 -0.175404E-06  0.313E-04    1.04      18.5  T
   6   -536.7341513 -0.849930E-07  0.133E-04    1.04      43.5  T
   7   -536.7341514 -0.247853E-07  0.370E-05    1.04     156.6  T
     SCC iter.                  ...        0 min,  5.225 sec
     gradient                   ...        0 min,  1.780 sec
 * total energy  :  -529.5317731 Eh     change       -0.5278023E-02 Eh
   gradient norm :     0.0067428 Eh/α   predicted    -0.5143271E-02 (  -2.55%)
   displ. norm   :     0.9313985 α      lambda       -0.5125810E-02
   maximum displ.:     0.5917720 α      in ANC's #24, #29, #47, ...

........................................................................
.............................. CYCLE   37 ..............................
........................................................................
   1   -536.7501495 -0.536750E+03  0.377E-03    1.03       0.0  T
   2   -536.7501481  0.136520E-05  0.291E-03    1.03       2.0  T
   3   -536.7501545 -0.635764E-05  0.157E-03    1.03       3.7  T
   4   -536.7501560 -0.156147E-05  0.897E-04    1.03       6.5  T
   5   -536.7501562 -0.186572E-06  0.298E-04    1.03      19.4  T
   6   -536.7501563 -0.761396E-07  0.121E-04    1.03      47.7  T
   7   -536.7501563 -0.201626E-07  0.345E-05    1.03     168.0  T
     SCC iter.                  ...        0 min,  4.640 sec
     gradient                   ...        0 min,  1.826 sec
 * total energy  :  -529.5367118 Eh     change       -0.4938695E-02 Eh
   gradient norm :     0.0061097 Eh/α   predicted    -0.4786244E-02 (  -3.09%)
   displ. norm   :     0.9255148 α      lambda       -0.4791098E-02
   maximum displ.:     0.5966814 α      in ANC's #24, #29, #47, ...

........................................................................
.............................. CYCLE   38 ..............................
........................................................................
   1   -536.7660765 -0.536766E+03  0.356E-03    1.03       0.0  T
   2   -536.7660751  0.144716E-05  0.281E-03    1.03       2.1  T
   3   -536.7660811 -0.605829E-05  0.146E-03    1.03       4.0  T
   4   -536.7660825 -0.131291E-05  0.855E-04    1.03       6.8  T
   5   -536.7660826 -0.197243E-06  0.275E-04    1.03      21.0  T
   6   -536.7660827 -0.582347E-07  0.114E-04    1.03      51.0  T
   7   -536.7660827 -0.176099E-07  0.323E-05    1.03     179.6  T
     SCC iter.                  ...        0 min,  4.625 sec
     gradient                   ...        0 min,  1.750 sec
 * total energy  :  -529.5413162 Eh     change       -0.4604469E-02 Eh
   gradient norm :     0.0056263 Eh/α   predicted    -0.4447525E-02 (  -3.41%)
   displ. norm   :     0.9200487 α      lambda       -0.4483433E-02
   maximum displ.:     0.5988291 α      in ANC's #24, #29, #47, ...

........................................................................
.............................. CYCLE   39 ..............................
........................................................................
   1   -536.7803868 -0.536780E+03  0.344E-03    1.03       0.0  T
   2   -536.7803857  0.100513E-05  0.267E-03    1.03       2.2  T
   3   -536.7803910 -0.526485E-05  0.140E-03    1.03       4.1  T
   4   -536.7803922 -0.118881E-05  0.821E-04    1.03       7.1  T
   5   -536.7803924 -0.183629E-06  0.275E-04    1.03      21.0  T
   6   -536.7803924 -0.539579E-07  0.110E-04    1.03      52.6  T
   7   -536.7803925 -0.165821E-07  0.331E-05    1.03     175.2  T
     SCC iter.                  ...        0 min,  4.341 sec
     gradient                   ...        0 min,  1.654 sec
 * total energy  :  -529.5455949 Eh     change       -0.4278631E-02 Eh
   gradient norm :     0.0052064 Eh/α   predicted    -0.4139311E-02 (  -3.26%)
   displ. norm   :     0.9108004 α      lambda       -0.4167587E-02
   maximum displ.:     0.6016142 α      in ANC's #24, #29, #47, ...

........................................................................
.............................. CYCLE   40 ..............................
........................................................................
   1   -536.7957082 -0.536796E+03  0.327E-03    1.02       0.0  T
   2   -536.7957070  0.115338E-05  0.253E-03    1.02       2.3  T
   3   -536.7957116 -0.459447E-05  0.136E-03    1.02       4.3  T
   4   -536.7957128 -0.117580E-05  0.793E-04    1.02       7.3  T
   5   -536.7957130 -0.197736E-06  0.246E-04    1.02      23.5  T
   6   -536.7957130 -0.442825E-07  0.943E-05    1.02      61.4  T
   7   -536.7957130 -0.115300E-07  0.297E-05    1.02     195.1  T
     SCC iter.                  ...        0 min,  4.576 sec
     gradient                   ...        0 min,  1.844 sec
 * total energy  :  -529.5495689 Eh     change       -0.3974066E-02 Eh
   gradient norm :     0.0049837 Eh/α   predicted    -0.3812423E-02 (  -4.07%)
   displ. norm   :     0.9038132 α      lambda       -0.3833044E-02
   maximum displ.:     0.5994238 α      in ANC's #24, #29, #47, ...

........................................................................
.............................. CYCLE   41 ..............................
........................................................................
   1   -536.8077104 -0.536808E+03  0.326E-03    1.02       0.0  T
   2   -536.8077100  0.385437E-06  0.239E-03    1.02       2.4  T
   3   -536.8077137 -0.363814E-05  0.133E-03    1.02       4.4  T
   4   -536.8077147 -0.107500E-05  0.774E-04    1.02       7.5  T
   5   -536.8077149 -0.174168E-06  0.260E-04    1.02      22.3  T
   6   -536.8077150 -0.468800E-07  0.989E-05    1.02      58.6  T
   7   -536.8077150 -0.131053E-07  0.330E-05    1.02     175.4  T
     SCC iter.                  ...        0 min,  4.432 sec
     gradient                   ...        0 min,  1.738 sec
 * total energy  :  -529.5532415 Eh     change       -0.3672561E-02 Eh
   gradient norm :     0.0043696 Eh/α   predicted    -0.3482098E-02 (  -5.19%)
   displ. norm   :     0.8912404 α      lambda       -0.3539758E-02
   maximum displ.:     0.6036135 α      in ANC's #24, #29, #47, ...

........................................................................
.............................. CYCLE   42 ..............................
........................................................................
   1   -536.8245362 -0.536825E+03  0.344E-03    1.02       0.0  T
   2   -536.8245355  0.739489E-06  0.240E-03    1.02       2.4  T
   3   -536.8245371 -0.154437E-05  0.169E-03    1.02       3.4  T
   4   -536.8245391 -0.200853E-05  0.835E-04    1.02       6.9  T
   5   -536.8245394 -0.311474E-06  0.207E-04    1.02      28.0  T
   6   -536.8245394 -0.403678E-07  0.637E-05    1.02      90.9  T
   7   -536.8245394 -0.441946E-08  0.278E-05    1.02     208.7  T
     SCC iter.                  ...        0 min,  4.511 sec
     gradient                   ...        0 min,  2.124 sec
 * total energy  :  -529.5566002 Eh     change       -0.3358677E-02 Eh
   gradient norm :     0.0067833 Eh/α   predicted    -0.3175705E-02 (  -5.45%)
   displ. norm   :     0.8882666 α      lambda       -0.3357249E-02
   maximum displ.:     0.5934177 α      in ANC's #24, #29, #47, ...
 * RMSD in coord.:     1.0937647 α      energy gain  -0.1486811E+00 Eh

generating ANC from model Hessian ...
Using Lindh-Hessian (1995)
 Shifting diagonal of input Hessian by    1.0031188976805177E-002
 Lowest  eigenvalues of input Hessian
    0.010000    0.010004    0.010011    0.010017    0.010019    0.010022
    0.010022    0.010022    0.010025    0.000000    0.000000    0.000000
    0.000000    0.000000    0.000000    0.010037    0.010041    0.010056
 Highest eigenvalues
    2.279529    2.298664    2.300763    2.760512    2.786491    2.788991


........................................................................
.............................. CYCLE   43 ..............................
........................................................................
   1   -536.8307945 -0.536831E+03  0.442E-03    1.02       0.0  T
   2   -536.8307950 -0.521016E-06  0.292E-03    1.02       2.0  T
   3   -536.8307965 -0.147932E-05  0.203E-03    1.02       2.8  T
   4   -536.8307987 -0.213974E-05  0.104E-03    1.02       5.6  T
   5   -536.8307991 -0.434216E-06  0.302E-04    1.02      19.2  T
   6   -536.8307991 -0.582346E-07  0.890E-05    1.02      65.1  T
   7   -536.8307992 -0.772900E-08  0.474E-05    1.02     122.2  T
     SCC iter.                  ...        0 min,  4.438 sec
     gradient                   ...        0 min,  1.831 sec
 * total energy  :  -529.5597145 Eh     change       -0.3114327E-02 Eh
   gradient norm :     0.0056628 Eh/α   predicted     0.0000000E+00 (-100.00%)
   displ. norm   :     0.3089377 α      lambda       -0.1143706E-02
   maximum displ.:     0.2419329 α      in ANC's #24, #28, #33, ...

........................................................................
.............................. CYCLE   44 ..............................
........................................................................
   1   -536.8374736 -0.536837E+03  0.129E-03    1.02       0.0  T
   2   -536.8374736 -0.512393E-07  0.750E-04    1.02       7.7  T
   3   -536.8374735  0.106166E-06  0.531E-04    1.02      10.9  T
   4   -536.8374736 -0.109138E-06  0.214E-04    1.02      27.1  T
   5   -536.8374737 -0.517674E-07  0.511E-05    1.02     113.4  T
   6   -536.8374737 -0.283501E-08  0.156E-05    1.02     370.6  T
     SCC iter.                  ...        0 min,  3.947 sec
     gradient                   ...        0 min,  1.800 sec
 * total energy  :  -529.5608200 Eh     change       -0.1105473E-02 Eh
   gradient norm :     0.0040691 Eh/α   predicted    -0.6270396E-03 ( -43.28%)
   displ. norm   :     0.5590181 α      lambda       -0.1958190E-02
   maximum displ.:     0.3939825 α      in ANC's #24, #28, #33, ...

........................................................................
.............................. CYCLE   45 ..............................
........................................................................
   1   -536.8480373 -0.536848E+03  0.211E-03    1.02       0.0  T
   2   -536.8480376 -0.287756E-06  0.126E-03    1.02       4.6  T
   3   -536.8480376 -0.663426E-07  0.926E-04    1.02       6.3  T
   4   -536.8480378 -0.191775E-06  0.459E-04    1.02      12.6  T
   5   -536.8480380 -0.192134E-06  0.109E-04    1.02      52.9  T
   6   -536.8480380 -0.126287E-07  0.341E-05    1.02     169.7  T
     SCC iter.                  ...        0 min,  4.135 sec
     gradient                   ...        0 min,  1.734 sec
 * total energy  :  -529.5626353 Eh     change       -0.1815359E-02 Eh
   gradient norm :     0.0060692 Eh/α   predicted    -0.1285069E-02 ( -29.21%)
   displ. norm   :     0.7346478 α      lambda       -0.2609410E-02
   maximum displ.:     0.5036178 α      in ANC's #24, #28, #33, ...

........................................................................
.............................. CYCLE   46 ..............................
........................................................................
   1   -536.8593966 -0.536859E+03  0.238E-03    1.01       0.0  T
   2   -536.8593972 -0.599658E-06  0.143E-03    1.01       4.0  T
   3   -536.8593979 -0.649504E-06  0.989E-04    1.01       5.9  T
   4   -536.8593981 -0.263797E-06  0.517E-04    1.01      11.2  T
   5   -536.8593983 -0.164768E-06  0.165E-04    1.01      35.1  T
   6   -536.8593983 -0.285999E-07  0.553E-05    1.01     104.8  T
     SCC iter.                  ...        0 min,  3.646 sec
     gradient                   ...        0 min,  1.685 sec
 * total energy  :  -529.5648890 Eh     change       -0.2253716E-02 Eh
   gradient norm :     0.0085294 Eh/α   predicted    -0.2008864E-02 ( -10.86%)
   displ. norm   :     0.7797689 α      lambda       -0.2641671E-02
   maximum displ.:     0.5361378 α      in ANC's #24, #28, #33, ...

........................................................................
.............................. CYCLE   47 ..............................
........................................................................
   1   -536.8665653 -0.536867E+03  0.256E-03    1.01       0.0  T
   2   -536.8665660 -0.672007E-06  0.152E-03    1.01       3.8  T
   3   -536.8665668 -0.784283E-06  0.104E-03    1.01       5.6  T
   4   -536.8665672 -0.403706E-06  0.553E-04    1.01      10.5  T
   5   -536.8665674 -0.196190E-06  0.190E-04    1.01      30.4  T
   6   -536.8665674 -0.389622E-07  0.686E-05    1.01      84.4  T
     SCC iter.                  ...        0 min,  3.899 sec
     gradient                   ...        0 min,  1.854 sec
 * total energy  :  -529.5672829 Eh     change       -0.2393808E-02 Eh
   gradient norm :     0.0061659 Eh/α   predicted    -0.2123957E-02 ( -11.27%)
   displ. norm   :     0.8202306 α      lambda       -0.2639621E-02
   maximum displ.:     0.5672169 α      in ANC's #24, #28, #33, ...

........................................................................
.............................. CYCLE   48 ..............................
........................................................................
   1   -536.8731457 -0.536873E+03  0.278E-03    1.01       0.0  T
   2   -536.8731460 -0.291683E-06  0.165E-03    1.01       3.5  T
   3   -536.8731462 -0.253388E-06  0.128E-03    1.01       4.5  T
   4   -536.8731471 -0.901360E-06  0.626E-04    1.01       9.3  T
   5   -536.8731474 -0.292472E-06  0.178E-04    1.01      32.5  T
   6   -536.8731475 -0.349264E-07  0.608E-05    1.01      95.3  T
     SCC iter.                  ...        0 min,  3.796 sec
     gradient                   ...        0 min,  1.721 sec
 * total energy  :  -529.5696094 Eh     change       -0.2326554E-02 Eh
   gradient norm :     0.0055488 Eh/α   predicted    -0.2207756E-02 (  -5.11%)
   displ. norm   :     0.8242378 α      lambda       -0.2452733E-02
   maximum displ.:     0.5739414 α      in ANC's #24, #28, #33, ...

........................................................................
.............................. CYCLE   49 ..............................
........................................................................
   1   -536.8815711 -0.536882E+03  0.210E-03    1.01       0.0  T
   2   -536.8815710  0.106886E-06  0.135E-03    1.01       4.3  T
   3   -536.8815718 -0.800311E-06  0.941E-04    1.01       6.2  T
   4   -536.8815724 -0.616748E-06  0.474E-04    1.01      12.2  T
   5   -536.8815725 -0.104087E-06  0.136E-04    1.01      42.6  T
   6   -536.8815726 -0.179575E-07  0.383E-05    1.01     151.3  T
     SCC iter.                  ...        0 min,  3.944 sec
     gradient                   ...        0 min,  2.021 sec
 * total energy  :  -529.5718337 Eh     change       -0.2224290E-02 Eh
   gradient norm :     0.0057959 Eh/α   predicted    -0.2059522E-02 (  -7.41%)
   displ. norm   :     0.8285620 α      lambda       -0.2230525E-02
   maximum displ.:     0.5780846 α      in ANC's #24, #28, #33, ...

........................................................................
.............................. CYCLE   50 ..............................
........................................................................
   1   -536.8906379 -0.536891E+03  0.188E-03    1.01       0.0  T
   2   -536.8906377  0.201003E-06  0.133E-03    1.01       4.3  T
   3   -536.8906388 -0.114574E-05  0.800E-04    1.01       7.2  T
   4   -536.8906392 -0.430811E-06  0.440E-04    1.01      13.2  T
   5   -536.8906393 -0.801726E-07  0.125E-04    1.01      46.4  T
   6   -536.8906393 -0.146036E-07  0.257E-05    1.01     225.4  T
     SCC iter.                  ...        0 min,  4.238 sec
     gradient                   ...        0 min,  1.780 sec
 * total energy  :  -529.5739112 Eh     change       -0.2077465E-02 Eh
   gradient norm :     0.0054351 Eh/α   predicted    -0.1880909E-02 (  -9.46%)
   displ. norm   :     0.8273815 α      lambda       -0.2113143E-02
   maximum displ.:     0.5800533 α      in ANC's #24, #28, #33, ...

........................................................................
.............................. CYCLE   51 ..............................
........................................................................
   1   -536.8996826 -0.536900E+03  0.186E-03    1.01       0.0  T
   2   -536.8996823  0.295061E-06  0.139E-03    1.01       4.2  T
   3   -536.8996836 -0.129903E-05  0.796E-04    1.01       7.3  T
   4   -536.8996840 -0.407467E-06  0.448E-04    1.01      12.9  T
   5   -536.8996841 -0.861745E-07  0.120E-04    1.01      48.3  T
   6   -536.8996841 -0.125182E-07  0.268E-05    1.01     216.1  T
     SCC iter.                  ...        0 min,  3.959 sec
     gradient                   ...        0 min,  1.870 sec
 * total energy  :  -529.5759031 Eh     change       -0.1991960E-02 Eh
   gradient norm :     0.0040450 Eh/α   predicted    -0.1779861E-02 ( -10.65%)
   displ. norm   :     0.8306073 α      lambda       -0.1932541E-02
   maximum displ.:     0.5875018 α      in ANC's #24, #28, #33, ...

........................................................................
.............................. CYCLE   52 ..............................
........................................................................
   1   -536.9085094 -0.536909E+03  0.169E-03    1.00       0.0  T
   2   -536.9085090  0.385888E-06  0.127E-03    1.00       4.6  T
   3   -536.9085103 -0.124689E-05  0.747E-04    1.00       7.8  T
   4   -536.9085107 -0.442941E-06  0.371E-04    1.00      15.6  T
   5   -536.9085107 -0.354041E-07  0.111E-04    1.00      52.2  T
   6   -536.9085108 -0.902287E-08  0.348E-05    1.00     166.6  T
     SCC iter.                  ...        0 min,  3.979 sec
     gradient                   ...        0 min,  1.736 sec
 * total energy  :  -529.5777472 Eh     change       -0.1844103E-02 Eh
   gradient norm :     0.0033438 Eh/α   predicted    -0.1632911E-02 ( -11.45%)
   displ. norm   :     0.8215009 α      lambda       -0.1788864E-02
   maximum displ.:     0.5847433 α      in ANC's #24, #28, #33, ...

........................................................................
.............................. CYCLE   53 ..............................
........................................................................
   1   -536.9161478 -0.536916E+03  0.166E-03    1.00       0.0  T
   2   -536.9161476  0.238037E-06  0.118E-03    1.00       4.9  T
   3   -536.9161486 -0.107218E-05  0.735E-04    1.00       7.9  T
   4   -536.9161491 -0.478328E-06  0.338E-04    1.00      17.1  T
   5   -536.9161491 -0.197202E-07  0.118E-04    1.00      49.0  T
   6   -536.9161491 -0.102060E-07  0.510E-05    1.00     113.5  T
     SCC iter.                  ...        0 min,  3.821 sec
     gradient                   ...        0 min,  1.696 sec
 * total energy  :  -529.5794522 Eh     change       -0.1705012E-02 Eh
   gradient norm :     0.0031436 Eh/α   predicted    -0.1498059E-02 ( -12.14%)
   displ. norm   :     0.8139185 α      lambda       -0.1671576E-02
   maximum displ.:     0.5825515 α      in ANC's #24, #28, #33, ...

........................................................................
.............................. CYCLE   54 ..............................
........................................................................
   1   -536.9225233 -0.536923E+03  0.182E-03    1.00       0.0  T
   2   -536.9225234 -0.472868E-07  0.116E-03    1.00       5.0  T
[...]
    25   6 C       57   1 H                                       1.0845160
    26   6 C       58   1 H                                       1.0818007
    29   6 C       59   1 H                                       1.0915653
    29   6 C       60   1 H                                       1.0968281
    29   6 C       61   1 H                                       1.0967944
    31   6 C       62   1 H                                       1.0780858
    32   6 C       63   1 H                                       1.0786588
    39   6 C       64   1 H                                       1.0915470
    39   6 C       65   1 H                                       1.0967902
    39   6 C       66   1 H                                       1.0968188
    40   6 C       67   1 H                                       1.0817843
    41   6 C       68   1 H                                       1.0844961
    42   6 C       69   1 H                                       1.0817871
    45   6 C       70   1 H                                       1.0967141
    45   6 C       71   1 H                                       1.0915947
    45   6 C       72   1 H                                       1.0968391
    74   6 C       75   6 C                                       1.3794888
    75   6 C       76   6 C                                       1.4315242
    76   6 C       77   6 C                                       1.3533303
    77   6 C       78   6 C                                       1.4332081
    75   6 C       79   7 N                                       1.3719040
    78   6 C       79   7 N                                       1.3728548
    78   6 C       80   6 C                                       1.3870019
    80   6 C       81   6 C                                       1.3867614
    81   6 C       82   6 C                                       1.4311553
    82   6 C       83   6 C                                       1.3543337
    81   6 C       84   7 N                                       1.3765818
    83   6 C       85   6 C                                       1.4288958
    84   7 N       85   6 C                                       1.3678301
    85   6 C       86   6 C                                       1.3972491
    86   6 C       87   6 C                                       1.3975447
    87   6 C       88   6 C                                       1.4288782
    88   6 C       89   6 C                                       1.3542800
    89   6 C       90   6 C                                       1.4311124
    90   6 C       91   6 C                                       1.3861841
    92   6 C       93   6 C                                       1.4011047
    93   6 C       94   8 O                                       1.3589037
    94   8 O       95   6 C                                       1.4132551
    93   6 C       96   6 C                                       1.3945204
    96   6 C       97   6 C                                       1.3867248
    97   6 C       98   6 C                                       1.3867044
    92   6 C       99   6 C                                       1.4007295
    98   6 C       99   6 C                                       1.3946602
    99   6 C      100   8 O                                       1.3590947
   100   8 O      101   6 C                                       1.4131154
    91   6 C      102   6 C                                       1.3872137
   102   6 C      103   6 C                                       1.4331416
   103   6 C      104   6 C                                       1.3533825
    74   6 C      105   6 C                                       1.3792348
   104   6 C      105   6 C                                       1.4315533
   102   6 C      106   7 N                                       1.3721472
   105   6 C      106   7 N                                       1.3723540
    87   6 C      107   7 N                                       1.3671741
    90   6 C      107   7 N                                       1.3773180
   108   6 C      109   6 C                                       1.4010955
   109   6 C      110   8 O                                       1.3587184
   110   8 O      111   6 C                                       1.4132356
   109   6 C      112   6 C                                       1.3946037
   112   6 C      113   6 C                                       1.3866446
   113   6 C      114   6 C                                       1.3867460
   108   6 C      115   6 C                                       1.4009563
   114   6 C      115   6 C                                       1.3945576
   115   6 C      116   8 O                                       1.3594252
   116   8 O      117   6 C                                       1.4129924
    74   6 C      118   1 H                                       1.0839679
    76   6 C      119   1 H                                       1.0786786
    77   6 C      120   1 H                                       1.0779568
    82   6 C      121   1 H                                       1.0778808
    83   6 C      122   1 H                                       1.0782226
    88   6 C      123   1 H                                       1.0782120
    89   6 C      124   1 H                                       1.0778250
    95   6 C      125   1 H                                       1.0968222
    95   6 C      126   1 H                                       1.0915936
    95   6 C      127   1 H                                       1.0967500
    96   6 C      128   1 H                                       1.0817957
    97   6 C      129   1 H                                       1.0845075
    98   6 C      130   1 H                                       1.0817881
   101   6 C      131   1 H                                       1.0915847
   101   6 C      132   1 H                                       1.0968472
   101   6 C      133   1 H                                       1.0968198
   103   6 C      134   1 H                                       1.0780497
   104   6 C      135   1 H                                       1.0786660
   111   6 C      136   1 H                                       1.0915760
   111   6 C      137   1 H                                       1.0968299
   111   6 C      138   1 H                                       1.0967742
   112   6 C      139   1 H                                       1.0817866
   113   6 C      140   1 H                                       1.0845071
   114   6 C      141   1 H                                       1.0818015
   117   6 C      142   1 H                                       1.0967090
   117   6 C      143   1 H                                       1.0916256
   117   6 C      144   1 H                                       1.0968035
   145   6 C      146   6 C                                       1.2211476
   147   6 C      148   6 C                                       1.2212452
   149   6 C      150   6 C                                       1.2219087
   151   6 C      152   6 C                                       1.2219540
   153   6 C      154   6 C                                       1.2216680
   155   6 C      156   6 C                                       1.2216088
   158   6 C      159   6 C                                       1.3966877
   159   6 C      160   6 C                                       1.4286028
   160   6 C      161   6 C                                       1.3542527
   161   6 C      162   6 C                                       1.4307404
   159   6 C      163   7 N                                       1.3677256
   162   6 C      163   7 N                                       1.3766213
   162   6 C      164   6 C                                       1.3865464
   164   6 C      165   6 C                                       1.3865392
   165   6 C      166   6 C                                       1.4306476
   166   6 C      167   6 C                                       1.3543456
   165   6 C      168   7 N                                       1.3768233
   167   6 C      169   6 C                                       1.4284409
   168   7 N      169   6 C                                       1.3674092
   169   6 C      170   6 C                                       1.3975435
   170   6 C      171   6 C                                       1.3975842
   171   6 C      172   6 C                                       1.4285250
   172   6 C      173   6 C                                       1.3543718
   173   6 C      174   6 C                                       1.4305547
   174   6 C      175   6 C                                       1.3862092
   176   6 C      177   6 C                                       1.4009588
   177   6 C      178   8 O                                       1.3589277
   178   8 O      179   6 C                                       1.4131696
   177   6 C      180   6 C                                       1.3945608
   180   6 C      181   6 C                                       1.3867124
   181   6 C      182   6 C                                       1.3866773
   176   6 C      183   6 C                                       1.4010550
   182   6 C      183   6 C                                       1.3945788
   183   6 C      184   8 O                                       1.3587628
   184   8 O      185   6 C                                       1.4132878
   175   6 C      186   6 C                                       1.3864755
   186   6 C      187   6 C                                       1.4306984
   187   6 C      188   6 C                                       1.3542065
   158   6 C      189   6 C                                       1.3967974
   188   6 C      189   6 C                                       1.4286321
   186   6 C      190   7 N                                       1.3765328
   189   6 C      190   7 N                                       1.3676974
   171   6 C      191   7 N                                       1.3672772
   174   6 C      191   7 N                                       1.3768948
   192   6 C      193   6 C                                       1.4012644
   193   6 C      194   8 O                                       1.3587241
   194   8 O      195   6 C                                       1.4132944
   193   6 C      196   6 C                                       1.3945311
   196   6 C      197   6 C                                       1.3866747
   197   6 C      198   6 C                                       1.3866806
   192   6 C      199   6 C                                       1.4010437
   198   6 C      199   6 C                                       1.3945745
   199   6 C      200   8 O                                       1.3590180
   200   8 O      201   6 C                                       1.4131188
   160   6 C      202   1 H                                       1.0781845
   161   6 C      203   1 H                                       1.0777326 (min)
   166   6 C      204   1 H                                       1.0777412
   167   6 C      205   1 H                                       1.0781757
   172   6 C      206   1 H                                       1.0781768
   173   6 C      207   1 H                                       1.0777733
   179   6 C      208   1 H                                       1.0968147
   179   6 C      209   1 H                                       1.0915546
   179   6 C      210   1 H                                       1.0967745
   180   6 C      211   1 H                                       1.0817701
   181   6 C      212   1 H                                       1.0845019
   182   6 C      213   1 H                                       1.0817704
   185   6 C      214   1 H                                       1.0915443
   185   6 C      215   1 H                                       1.0967559
   185   6 C      216   1 H                                       1.0968018
   187   6 C      217   1 H                                       1.0777415
   188   6 C      218   1 H                                       1.0781553
   195   6 C      219   1 H                                       1.0967196
   195   6 C      220   1 H                                       1.0915280
   195   6 C      221   1 H                                       1.0967542
   196   6 C      222   1 H                                       1.0817827
   197   6 C      223   1 H                                       1.0844952
   198   6 C      224   1 H                                       1.0817701
   201   6 C      225   1 H                                       1.0967660
   201   6 C      226   1 H                                       1.0967909
   201   6 C      227   1 H                                       1.0915716
   229   6 C      230   6 C                                       1.3981944
   230   6 C      231   6 C                                       1.4285157
   231   6 C      232   6 C                                       1.3549212
   232   6 C      233   6 C                                       1.4305483
   230   6 C      234   7 N                                       1.3672700
   233   6 C      234   7 N                                       1.3767462
   233   6 C      235   6 C                                       1.3870500
   235   6 C      236   6 C                                       1.3871986
   236   6 C      237   6 C                                       1.4305813
   237   6 C      238   6 C                                       1.3549660
   236   6 C      239   7 N                                       1.3764756
   238   6 C      240   6 C                                       1.4284557
   239   7 N      240   6 C                                       1.3675071
   240   6 C      241   6 C                                       1.3978497
   241   6 C      242   6 C                                       1.3979641
   242   6 C      243   6 C                                       1.4285562
   243   6 C      244   6 C                                       1.3549235
   244   6 C      245   6 C                                       1.4304972
   245   6 C      246   6 C                                       1.3871683
   247   6 C      248   6 C                                       1.4012193
   248   6 C      249   8 O                                       1.3587715
   249   8 O      250   6 C                                       1.4132499
   248   6 C      251   6 C                                       1.3945690
   251   6 C      252   6 C                                       1.3866694
   252   6 C      253   6 C                                       1.3867031
   247   6 C      254   6 C                                       1.4014409
   253   6 C      254   6 C                                       1.3945103
   254   6 C      255   8 O                                       1.3586476
   255   8 O      256   6 C                                       1.4131745
   246   6 C      257   6 C                                       1.3868641
   257   6 C      258   6 C                                       1.4305526
   258   6 C      259   6 C                                       1.3549328
   229   6 C      260   6 C                                       1.3982036
   259   6 C      260   6 C                                       1.4285085
   257   6 C      261   7 N                                       1.3768225
   260   6 C      261   7 N                                       1.3671826
   242   6 C      262   7 N                                       1.3674420
   245   6 C      262   7 N                                       1.3763739
   263   6 C      264   6 C                                       1.4014282
   264   6 C      265   8 O                                       1.3587815
   265   8 O      266   6 C                                       1.4132231
   264   6 C      267   6 C                                       1.3945156
   267   6 C      268   6 C                                       1.3866839
   268   6 C      269   6 C                                       1.3866263
   263   6 C      270   6 C                                       1.4013619
   269   6 C      270   6 C                                       1.3945708
   270   6 C      271   8 O                                       1.3587193
   271   8 O      272   6 C                                       1.4132483
   231   6 C      273   1 H                                       1.0782296
   232   6 C      274   1 H                                       1.0778515
   237   6 C      275   1 H                                       1.0778501
   238   6 C      276   1 H                                       1.0782476
   243   6 C      277   1 H                                       1.0782194
   244   6 C      278   1 H                                       1.0778741
   250   6 C      279   1 H                                       1.0967691
   250   6 C      280   1 H                                       1.0915382
   250   6 C      281   1 H                                       1.0967658
   251   6 C      282   1 H                                       1.0817749
   252   6 C      283   1 H                                       1.0844988
   253   6 C      284   1 H                                       1.0817879
   256   6 C      285   1 H                                       1.0915639
   256   6 C      286   1 H                                       1.0967368
   256   6 C      287   1 H                                       1.0967554
   258   6 C      288   1 H                                       1.0778304
   259   6 C      289   1 H                                       1.0782329
   266   6 C      290   1 H                                       1.0967828
   266   6 C      291   1 H                                       1.0915517
   266   6 C      292   1 H                                       1.0967694
   267   6 C      293   1 H                                       1.0817573
   268   6 C      294   1 H                                       1.0844978
   269   6 C      295   1 H                                       1.0817780
   272   6 C      296   1 H                                       1.0967794
   272   6 C      297   1 H                                       1.0967770
   272   6 C      298   1 H                                       1.0915501

 * 4 distinct bonds (by element types)

   Z      Z             #   av. dist./Å        max./Å        min./Å
   1 H    6 C         106     1.0869178     1.0968472     1.0777326
   6 C    6 C         134     1.3892729     1.4332759     1.2211476
   6 C    7 N          32     1.3721634     1.3773180     1.3671741
   6 C    8 O          32     1.3860631     1.4132944     1.3586476


optimized geometry written to: xtbopt.xyz


           -------------------------------------------------
          | TOTAL ENERGY             -529.597339196752 Eh   |
          | GRADIENT NORM               0.000817342267 Eh/α |
          | HOMO-LUMO GAP               0.976187069505 eV   |
           -------------------------------------------------

------------------------------------------------------------------------
 * finished run on 2022/07/30 at 10:07:45.847     
------------------------------------------------------------------------
 total:
 * wall-time:     0 d,  0 h, 15 min, 59.312 sec
 *  cpu-time:     0 d,  0 h, 15 min, 53.809 sec
 * ratio c/w:     0.994 speedup
 SCF:
 * wall-time:     0 d,  0 h,  0 min, 41.998 sec
 *  cpu-time:     0 d,  0 h,  0 min, 41.764 sec
 * ratio c/w:     0.994 speedup
 ANC optimizer:
 * wall-time:     0 d,  0 h, 15 min, 16.673 sec
 *  cpu-time:     0 d,  0 h, 15 min, 11.413 sec
 * ratio c/w:     0.994 speedup

