230
 energy: -394.397686040080 gnorm: 0.000398489218 xtb: 6.5.1 (b24c23e)
C           25.06225304713697        0.05669153083591        0.06049481772764
C           25.68901350675523        0.05832015276853        1.29985712054328
C           25.06324329930528        0.03072982439192        2.57844228322484
C           26.04479939257239        0.05676623149918        3.52860947459454
C           27.30216444490607        0.09850354178072        2.86118431211406
N           27.03690235711758        0.09940068436954        1.52054789823934
C           28.57219461068420        0.13173559984539        3.44375237238107
C           29.78219130319042        0.12714354343749        2.74917516737667
C           31.07996871792800        0.12772332210166        3.39958295008082
C           32.00123930140881        0.12724785991464        2.41377801262638
N           29.93564260882932        0.13959969835850        1.39667946716923
C           31.26411130143495        0.13390906608456        1.16448953246919
C           31.89431741349446        0.13840679008813       -0.09607562015341
C           31.24177436019227        0.16232503931334       -1.34238321283952
C           31.86137450392237        0.19303504680953       -2.62052744857472
C           30.87500021995483        0.23077696669476       -3.56655554992500
C           29.62171286812562        0.22029173342227       -2.89369117705023
C           28.35239583478611        0.24696156217960       -3.47617308051589
C           28.31028937925600        0.26754524573147       -4.97000463734972
C           28.45780212523609        1.41568184900111       -5.75271787850186
O           28.63271657488976        2.68116412510769       -5.28816654678884
C           28.27666846198650        3.08927568926285       -3.98012362950141
C           28.45785461005325        1.31335964354225       -7.14989596472602
C           28.30189861251419        0.08675008002917       -7.76208323854057
C           28.13650502920250       -1.06664486460665       -7.00442860336056
C           28.14436224030396       -0.97263208410247       -5.61752525815481
O           28.01064247281872       -2.04405163630173       -4.78994989768002
C           27.82133859616668       -3.33932847927288       -5.32265628366930
C           27.14235463990066        0.18480274167795       -2.78108352195049
C           25.83885615404222        0.16836077266311       -3.42537533703277
C           24.92458027188193        0.11153764936963       -2.43572540523052
C           25.66930525920302        0.10141236428118       -1.18836859041597
N           27.00132479985556        0.15035653506308       -1.43452037931824
N           29.89517188589626        0.17954680685616       -1.55149251066409
C           28.61336064017632        0.09275149499218        4.93714202084879
C           28.38986873176347        1.19706262183248        5.76361904040428
O           28.14022133728671        2.46555421302950        5.34148305365233
C           28.54754394555574        2.95354537412239        4.07590234405164
C           28.38533693585393        1.03980488963446        7.15525382194910
C           28.61360137037163       -0.19861585161182        7.71965764061676
C           28.85841250596862       -1.30748921111172        6.91846845613904
C           28.85431174349638       -1.15928033622569        5.53613334595353
O           29.05974822616881       -2.18667012539027        4.66875394921200
C           29.35252274374128       -3.48244895218219        5.15091802857641
H           23.97777168994235        0.02142884147693        0.07917548574423
H           23.99694715660920       -0.00385419291354        2.73595329241120
H           25.92050223780816        0.04515889886719        4.59941836415875
H           27.74464718239631        0.10587674406616        0.79396744112049
H           31.23586515515570        0.12271192215905        4.46646490577855
H           33.07648147607289        0.12428100190841        2.49583430785325
H           32.92713839597364        0.18809680617142       -2.78332853577546
H           30.99533781449267        0.25967031124568       -4.63735549194109
H           29.00604045552202        2.74782994277676       -3.23750586588220
H           28.27154790636525        4.18198872080119       -3.99598540172386
H           27.28011228955438        2.72864476387541       -3.70440062505389
H           28.58133049052578        2.21911878424985       -7.72992194345593
H           28.30242016403698        0.01937246117709       -8.84412200934710
H           28.01103952944967       -2.02076514378970       -7.49818461817953
H           27.73053163022800       -4.00967333321151       -4.46593809130871
H           26.90546082237852       -3.39656913325447       -5.92325524825676
H           28.67633336253470       -3.65125827061900       -5.93472409984611
H           25.67791716189837        0.19099734702406       -4.49149311453139
H           23.84868312462815        0.08031482724126       -2.51000005323277
H           29.19060468092569        0.14625921448396       -0.82227629049882
H           29.56865273413280        2.63989265137223        3.83532892876338
H           28.51311579879463        4.04362681660538        4.14570068794867
H           27.86949997154024        2.62660222056255        3.28007315834115
H           28.20140637751614        1.91201344960539        7.76960737003988
H           28.60904980245224       -0.30972092256018        8.79808563826573
H           29.04048747217059       -2.27089611634205        7.37521688417681
H           28.52424980682891       -3.88739088117740        5.74500427925767
H           29.50007958703460       -4.10825550123266        4.26879897324094
H           30.26832751303779       -3.48866816565944        5.75418118937681
C           63.96505169702856        0.03544950536143       -0.11260698152754
C           63.35638240185226       -0.09701630409566       -1.35393621049943
C           64.00050096053094       -0.24093788249596       -2.61550130520002
C           63.03207163283498       -0.32874654791945       -3.57543801175512
C           61.76500891500334       -0.24432501838377       -2.93092495168623
N           62.01126632096661       -0.10325359099819       -1.59414207507135
C           60.50287315416265       -0.29626363774617       -3.52890556224421
C           59.28366704870379       -0.25510924748933       -2.85212381100449
C           57.99565272748355       -0.35168981667373       -3.51456722861701
C           57.06053340424266       -0.26518261579523       -2.54578606882645
N           59.11062228074301       -0.10156386705370       -1.51055022012523
C           57.77939692758049       -0.10805411703692       -1.29568266832199
C           57.13035520453250        0.03029036868356       -0.05217098176209
C           57.76412142125133        0.20355968863188        1.19199267371288
C           57.12606967330758        0.36368527988568        2.45116715873845
C           58.09853264064740        0.50874594484833        3.40129996159104
C           59.36144315156270        0.43868281377105        2.75027085529035
C           60.62225601661845        0.53385765802467        3.34418336888657
C           60.64286021011899        0.70055163200267        4.82920050355398
C           60.45948085822494        1.91561172134937        5.49453597599860
O           60.26734641707919        3.12572123290416        4.90572338159828
C           60.64717140271152        3.41311042710658        3.57237587935850
C           60.43859886578010        1.94935249564918        6.89485514256394
C           60.60971068360578        0.79153820015747        7.62557491831494
C           60.81185870859020       -0.42579070247222        6.98604750266103
C           60.82463416662396       -0.46693013144499        5.59658656044835
O           60.99396558638932       -1.61043161222881        4.87934350815004
C           61.20495695060924       -2.84288955984531        5.53796367329588
C           61.84262609238045        0.41510807547195        2.67485889102460
C           63.13690180236842        0.47928377966386        3.33460319692838
C           64.06588318182666        0.33767175267297        2.36742068862320
C           63.33928524292368        0.19424358399133        1.11758124986042
N           62.00333750971699        0.24917481349556        1.34034755228641
N           59.10745241554085        0.25617202872115        1.41606860654935
C           60.48225372358563       -0.48823590854788       -5.01095398480070
C           60.67785624842132        0.53300017200047       -5.94439609304879
O           60.88375783344900        1.84533976069126       -5.65315957934613
C           60.45442247828301        2.44640034902595       -4.44483146781770
C           60.70023615680495        0.23474437308520       -7.31263663596301
C           60.51731607462930       -1.06160105331083       -7.74887132529662
C           60.30209292554945       -2.09079006020140       -6.84004112192476
C           60.28871165523571       -1.80225990407500       -5.48015183208432
O           60.10906623302549       -2.74179492804895       -4.51308686943544
C           59.86245580653891       -4.08899930646974       -4.86151486201887
H           65.05009959119015        0.01619726303893       -0.11351093304792
H           65.06935368758532       -0.27114326174759       -2.75567066928094
H           63.17130047818320       -0.44537557660572       -4.63810254467781
H           61.29334205374502       -0.03692789373056       -0.88065619435992
H           57.85516641616187       -0.47489568238517       -4.57646281188710
H           55.98687383303188       -0.29902068765238       -2.64034440337986
H           56.05813940484793        0.36612423085694        2.59923078195715
H           57.96251954506594        0.64833521212245        4.46146307778830
H           59.93768239997558        2.99346173276065        2.85086756848584
H           60.64006464833584        4.50239271945215        3.48448038195981
H           61.65324785875595        3.04075318640684        3.35254707767147
H           60.28709941498845        2.90412764424485        7.38224006100924
H           60.59262295037927        0.82923555609405        8.70893051616628
H           60.94907183215830       -1.32457251427450        7.57193860278652
H           61.32535804313159       -3.59053672570369        4.75175452683454
H           62.11208413895211       -2.81889858096065        6.15391430945800
H           60.34772044387906       -3.11539076486491        6.16555052855565
H           63.28243012541871        0.60940218990195        4.39521867038806
H           65.14091776260190        0.32848198639310        2.45838803338533
H           59.82263743364168        0.15180101398288        0.70408076095185
H           59.43751298758372        2.13612560232751       -4.18224460449535
H           60.46705960217317        3.52477394687027       -4.62183704954351
H           61.13138280579489        2.21423663372254       -3.61533080816880
H           60.86132773861041        1.04538090247602       -8.01187706114255
H           60.53476780917795       -1.28162062241989       -8.81031513117518
H           60.15564480586006       -3.10123738594627       -7.19697008683161
H           60.70792647784165       -4.52464659146654       -5.40772110755118
H           59.72885944507556       -4.62611629048129       -3.92065883400967
H           58.95188753821245       -4.18710462588163       -5.46468975946753
C           37.09681465196626        0.08353991412909       -0.19600135940257
C           35.86911919386475        0.09757349446433       -0.17703067525363
C           34.52387889070265        0.11133283497881       -0.15330939381271
C           33.30079991652906        0.12455466878517       -0.12604812955273
C           38.44202304782893        0.07060431066541       -0.21121108169628
C           39.66554910109734        0.05745616235169       -0.22123679431011
C           53.15539018314578       -0.04140612073037       -0.04225476264284
C           51.92753800693504       -0.05699746237281       -0.05470604510701
C           50.58242816658807       -0.06327266783293       -0.07364043820268
C           49.35889452516281       -0.05932478355227       -0.09389551659569
C           54.50068904386514       -0.02189289442147       -0.03937753232965
C           55.72399822339681        0.00226913062157       -0.04231669211006
C           41.07153137343035        0.04683297063933       -0.22668715353219
C           41.70981509543901        1.24656981748451        0.13912215642134
C           41.07464700579557        2.46152455545635        0.50870120671593
C           42.05081812635152        3.37862921120645        0.78395949068936
C           43.31135899907734        2.75084952188158        0.58790158279879
N           43.05380701231763        1.46299529430993        0.20154668236093
C           44.57432581943785        3.32143373285212        0.77394171487620
C           45.79541618010555        2.66789078799626        0.61272487584260
C           47.08390665243773        3.31199621914435        0.79624722210925
C           48.02018392082342        2.37262107629723        0.55289203872631
N           45.97051296791151        1.36646754242187        0.25285122956028
C           47.30219700725214        1.15900003337969        0.21258117982761
C           47.95325461062033       -0.04526476175803       -0.12091761857274
C           47.31788210617367       -1.24380828741570       -0.49624052439711
C           47.95074927742482       -2.46421841559794       -0.85043235323361
C           46.97370337103082       -3.36919968983924       -1.16348937831793
C           45.71538800019036       -2.72657843592058       -1.00733766392273
C           44.45257005459997       -3.28388427433441       -1.22915749021288
C           44.43215129148863       -4.72121552207033       -1.64115348533022
C           44.26151120595242       -5.67019730842141       -0.61398717606721
O           44.10888896449460       -5.15025893964950        0.63385588257195
C           43.89113872262568       -6.00103386826417        1.74105798761873
C           44.26635799767209       -7.03383158414179       -0.88370340536721
C           44.44960456109633       -7.46391403809241       -2.19262250294057
C           44.61150450851313       -6.55258088239457       -3.21572807481168
C           44.59864872231989       -5.17665529012482       -2.95156693233713
O           44.78226916912296       -4.39853372289163       -4.05045933216440
C           44.42732373117983       -3.02899233892286       -4.10671764246617
C           43.23080712299699       -2.64171361470477       -1.03302031932999
C           41.94539134438185       -3.28266413982534       -1.24299574619578
C           41.00610593366226       -2.35468790893267       -0.96418405457884
C           41.72070213568485       -1.14942248112663       -0.59107003449220
N           43.05298752714762       -1.34913113600708       -0.64550001355364
N           45.97423222231570       -1.44392573876579       -0.60235114512958
C           44.59611691462897        4.75573187649046        1.18043459000228
C           44.19559339335742        5.75211778982345        0.28020351744936
O           43.80288731333373        5.32038316105409       -0.94794364974111
C           43.40851406893459        6.24800699966802       -1.93925864048096
C           44.22271869780111        7.09444372579377        0.65658015405410
C           44.64315061515195        7.43430421708300        1.93348232622957
C           45.03785352722551        6.46535347821927        2.84333945914514
C           45.01621901983579        5.12305965462617        2.46604505290009
O           45.37216034967025        4.10207014834299        3.28844473856587
C           45.85245142928841        4.36597216285848        4.59156858287373
H           40.00701461833319        2.60401969143804        0.55610947559269
H           41.91513138684180        4.40092213082746        1.09698756650425
H           43.76497029605984        0.76838768994763       -0.00048087378063
H           47.22725012230464        4.34417517397139        1.07190495458454
H           49.09400455590026        2.46556559079357        0.58674221153281
H           49.01760055295155       -2.61934170761350       -0.86177381956723
H           47.10485740146507       -4.39316309730870       -1.47370610376318
H           43.77775541755421       -5.34777100282345        2.60822280850929
H           44.74216128889630       -6.67310052459079        1.90566000981353
H           42.97825369523112       -6.59595136429179        1.61659437375311
H           44.13668632845043       -7.75963308090888       -0.09231802136430
H           44.45962326436301       -8.52617812400012       -2.40917748586066
H           44.74912073348091       -6.87622219825702       -4.23964179021582
H           44.45520350182770       -2.75399068846288       -5.16391960701764
H           43.41784087886108       -2.86019562461696       -3.71725071235227
H           45.13931054297412       -2.40353807453989       -3.55742370504433
H           41.80915206404320       -4.30594379180005       -1.55439520491028
H           39.93249687501410       -2.44973292994608       -0.99967885088462
H           45.26487229983777       -0.74827689848476       -0.39727215581204
H           44.22255446452105        6.93926349975078       -2.18833972714004
H           42.52843333822680        6.82201644025475       -1.62495270851146
H           43.15516676872848        5.65902419881186       -2.82267045808979
H           43.92009027684295        7.87145021527044       -0.03244100511037
H           44.66203235015932        8.47817633906946        2.22661974690752
H           45.35654737170300        6.75897756118427        3.83445679549828
H           46.75679432871264        4.98574143825374        4.56749420109896
H           46.09430640165041        3.39522200373932        5.02809802476164
H           45.09117159710145        4.85868567414825        5.20838099283244
