262
 energy: -451.149161153727 gnorm: 8.924762232405 xtb: 6.5.1 (b24c23e)
Co          40.10622700000000       -0.03631400000000        0.03441300000000
C           36.76463300000000        0.10697400000000        0.02491100000000
C           37.42690199999999        1.14604800000000       -0.49187900000000
C           36.77635400000000        2.29390400000000       -1.11206400000000
C           37.71656800000000        3.14238900000000       -1.48450800000000
C           39.02149099999999        2.58152500000000       -1.10764100000000
N           38.84433800000000        1.30802000000000       -0.48587900000000
C           40.21361300000000        3.18363900000000       -1.30027900000000
C           40.26333700000000        4.52917200000000       -1.91700000000000
C           40.82027700000000        4.69715100000000       -3.19368200000000
C           40.88353500000000        5.96815600000000       -3.77233900000000
C           40.39452800000000        7.08469400000000       -3.07940900000000
N           40.45943699999999        8.38451100000000       -3.67191800000000
C           39.84347800000000        6.91878900000000       -1.80085500000000
C           39.78056300000000        5.64843800000000       -1.22084000000000
C           41.50480100000000        2.55851100000000       -0.91021100000000
C           42.78825700000000        3.27115200000000       -0.90404100000000
C           43.72277100000000        2.41578200000000       -0.54215400000000
N           41.64746399999999        1.31662100000000       -0.56129300000000
C           43.04265600000000        1.14739000000000       -0.31062500000000
C           43.63685400000000       -0.01074500000000        0.01978200000000
C           42.87327100000000       -1.25675600000000        0.25258600000000
C           43.40379200000000       -2.47294100000000        0.23273500000000
C           42.36089599999999       -3.40454100000000        0.61647900000000
C           41.26326300000000       -2.69446200000000        0.85024800000000
N           41.49710900000000       -1.30262000000000        0.62982200000000
C           39.98464900000000       -3.26548600000000        1.34575800000000
C           40.00746899999999       -4.60347200000000        1.98566800000000
C           40.74642100000000       -4.80743800000000        3.16119800000000
C           40.78739700000000       -6.07109200000000        3.75765900000000
C           40.09521400000000       -7.14616200000000        3.18271800000000
N           40.13761200000000       -8.43851800000000        3.79332600000000
C           39.36375499999999       -6.94660200000000        2.00351200000000
C           39.32270200000000       -5.68365000000000        1.40570000000000
C           38.82259199999999       -2.59437600000000        1.22966900000000
C           37.51526000000000       -3.03701000000000        1.71161400000000
C           36.65359800000000       -2.11042600000000        1.33890700000000
C           37.40205600000000       -1.07159600000000        0.63326200000000
N           38.66691600000000       -1.34305600000000        0.56347700000000
H           35.68127000000000        0.12493700000000        0.00145200000000
H           35.71304200000000        2.43744600000000       -1.25531300000000
H           37.52876800000000        4.08425800000000       -1.98310200000000
H           41.20333800000000        3.84353200000000       -3.73947500000000
H           41.31388300000000        6.08307900000000       -4.75919900000000
H           40.86876700000000        8.51845700000000       -4.62343000000000
H           40.09844600000000        9.22241400000000       -3.16351000000000
H           39.46528400000000        7.77322400000000       -1.25385700000000
H           39.35788600000000        5.53547500000000       -0.22997200000000
H           42.95917600000000        4.31155100000000       -1.14749000000000
H           44.77654499999999        2.64103000000000       -0.44601400000000
H           44.42947399999999       -2.72818900000000        0.00232700000000
H           42.46964299999999       -4.47651700000000        0.71864600000000
H           41.28740300000000       -3.98667600000000        3.61618800000000
H           41.35877700000000       -6.21264300000000        4.66640000000000
H           40.68060200000000       -8.59742700000000        4.67126300000000
H           39.62611200000000       -9.24585100000000        3.37207700000000
H           38.82869000000000       -7.76959300000000        1.54667100000000
H           38.76126500000000       -5.54708100000000        0.48953500000000
H           37.27342399999999       -3.93506100000000        2.26457800000000
H           35.58904500000000       -2.12667000000000        1.53229800000000
Co          95.28235999999998        0.01557700000000        0.00655400000000
C           98.62395399999998       -0.07151300000000        0.12073400000000
C           97.96168499999999       -1.07637000000000        0.70125800000000
C           98.61223400000000       -2.22751200000000        1.31532200000000
C           97.67201900000001       -3.00675300000000        1.81674600000000
C           96.36709599999999       -2.38274400000000        1.55749600000000
N           96.54424899999998       -1.16086300000000        0.83957600000000
C           95.17497400000001       -2.87599000000000        1.95291900000000
C           95.12524999999998       -4.13346600000000        2.73366000000000
C           94.56830999999998       -5.29038800000000        2.16827000000000
C           94.50505200000001       -6.47495900000000        2.90792400000000
C           94.99405899999999       -6.51432200000000        4.22141600000000
N           94.92915000000001       -7.72635800000000        4.97743100000000
C           95.54510900000000       -5.35698600000000        4.78956800000000
C           95.60802399999999       -4.17164400000000        4.05121000000000
C           93.88378599999999       -2.20547100000000        1.64740000000000
C           92.60033000000000       -2.59408100000000        2.24479200000000
C           91.66581700000000       -1.81983600000000        1.73179700000000
N           93.74112300000000       -1.22847300000000        0.80507700000000
C           92.34593099999998       -0.92603700000000        0.80252400000000
C           91.75173300000000       -0.01074500000000        0.01978200000000
C           92.51531600000000        0.87175000000000       -0.89013300000000
C           91.98479499999999        1.52717800000000       -1.91478600000000
C           93.02769100000000        2.36176100000000       -2.47924200000000
C           94.12532400000001        2.16426900000000       -1.75823000000000
N           93.89147799999999        1.21151600000000       -0.71992700000000
C           95.40393800000000        2.89278000000000       -1.96039400000000
C           95.38111800000000        4.16541400000000       -2.72203300000000
C           94.64216600000000        5.25790900000000       -2.24252600000000
C           94.60119000000000        6.45325900000000       -2.96621700000000
C           95.29337299999999        6.56805300000000       -4.17995200000000
N           95.25097500000000        7.79105200000000       -4.91974800000000
C           96.02483200000000        5.47492700000000       -4.66516200000000
C           96.06588499999998        4.27884000000000       -3.94280400000000
C           96.56599499999999        2.42521400000000       -1.46516900000000
C           97.87332700000000        3.07148000000000       -1.56781600000000
C           98.73498900000000        2.24886800000000       -1.00144200000000
C           97.98653099999999        1.08673600000000       -0.52546900000000
N           96.72167100000000        1.17855900000000       -0.79028800000000
H           99.70731700000000       -0.10099100000000        0.12274500000000
H           99.67554500000000       -2.42622000000000        1.35581500000000
H           97.85981899999999       -3.94273500000000        2.32630300000000
H           94.18524899999998       -5.27365800000000        1.15521700000000
H           94.07470399999998       -7.36100100000000        2.45844600000000
H           94.51982099999999       -8.59344800000000        4.56333900000000
H           95.29014100000001       -7.76556600000000        5.95672800000000
H           95.92330300000000       -5.37316300000000        5.80396700000000
H           96.03070099999999       -3.28334500000000        4.50453700000000
H           92.42941199999999       -3.37184200000000        2.97744800000000
H           90.61204200000000       -1.86415800000000        1.97266000000000
H           90.95911300000000        1.47616500000000       -2.25484000000000
H           92.91894400000000        3.03921100000000       -3.31627900000000
H           94.10118399999999        5.18364900000000       -1.30703100000000
H           94.02981000000000        7.28890100000000       -2.58209500000000
H           94.70798499999998        8.61061000000000       -4.56711600000000
H           95.76247499999999        7.88601500000000       -5.82540800000000
H           96.55989700000001        5.54887700000000       -5.60353800000000
H           96.62732200000001        3.43976200000000       -4.33517900000000
H           98.11516299999998        4.02857000000000       -2.01081000000000
H           99.79954200000000        2.41903400000000       -0.90812800000000
C           45.71401900000000        0.00394500000000        0.03005800000000
C           47.17224600000000       -0.01789100000000        0.01218400000000
C           48.30617400000000       -0.03864500000000        0.01069300000000
C           49.66755500000000       -0.05123500000000        0.00850200000000
C           50.94177400000000       -0.04092800000000        0.00373700000000
C           52.13023700000000       -0.02213000000000       -0.00241900000000
C           53.48259700000000        0.00265400000000        0.01344900000000
C           54.58286500000000        0.00394500000000        0.03005800000000
C           63.19785200000000        0.00394500000000        0.03005800000000
C           64.65607900000001       -0.01789100000000        0.01218400000000
C           65.79000700000000       -0.03864500000000        0.01069300000000
C           67.15138899999999       -0.05123500000000        0.00850200000000
C           68.42560700000000       -0.04092800000000        0.00373700000000
C           69.61407000000000       -0.02213000000000       -0.00241900000000
C           70.96643100000000        0.00265400000000        0.01344900000000
C           72.06669800000000        0.00394500000000        0.03005800000000
C           80.68168600000000        0.00394500000000        0.03005800000000
C           82.13991200000000       -0.01789100000000        0.01218400000000
C           83.27383999999999       -0.03864500000000        0.01069300000000
C           84.63522200000000       -0.05123500000000        0.00850200000000
C           85.90944099999999       -0.04092800000000        0.00373700000000
C           87.09790299999999       -0.02213000000000       -0.00241900000000
C           88.45026400000000        0.00265400000000        0.01344900000000
C           89.55053100000001        0.00394500000000        0.03005800000000
Co          58.98519000000000       -0.04617900000000        0.05561400000000
C           55.50100400000000        0.01012500000000       -0.02623000000000
C           56.15786400000000        1.12002000000000       -0.41017700000000
C           55.51313900000000        2.35210600000000       -0.87029600000000
C           56.45116299999999        3.24770400000000       -1.10480500000000
C           57.75401099999999        2.63991400000000       -0.81503700000000
N           57.57759299999999        1.28989400000000       -0.37752800000000
C           58.93804699999999        3.28227400000000       -0.90204800000000
C           58.95942500000000        4.70236900000000       -1.31616400000000
C           58.82575299999999        5.04566300000000       -2.66998600000000
C           58.84278000000000        6.38840400000000       -3.05910800000000
C           58.99636800000000        7.39979200000000       -2.09943400000000
N           59.01429500000000        8.77311900000000       -2.49822300000000
C           59.13202200000000        7.05570200000000       -0.74636900000000
C           59.11291700000000        5.71344700000000       -0.35599600000000
C           60.24153600000000        2.63846500000000       -0.59789000000000
C           61.52045099999999        3.35956900000000       -0.56343700000000
C           62.47193799999999        2.48282200000000       -0.31755700000000
N           60.40497900000000        1.36850000000000       -0.38942900000000
C           61.80922600000000        1.19033800000000       -0.20149700000000
C           62.42431700000000        0.01012500000000       -0.02623000000000
C           61.67895899999999       -1.26430300000000        0.06890100000000
C           62.22745999999999       -2.46393500000000       -0.07644400000000
C           61.19493700000000       -3.44444200000000        0.19373800000000
C           60.08503699999999       -2.77780500000000        0.48892500000000
N           60.29956100000000       -1.36811800000000        0.42095900000000
C           58.81982099999999       -3.41407100000000        0.93106500000000
C           58.87300400000000       -4.80208600000000        1.45082800000000
C           58.22804200000000       -5.84500800000000        0.76462400000000
C           58.29419100000000       -7.15412900000000        1.25091200000000
C           59.00983500000000       -7.43607300000000        2.42416600000000
N           59.07399999999999       -8.77471700000000        2.92378400000000
C           59.66307399999999       -6.39703700000000        3.10441800000000
C           59.59878299999999       -5.08791500000000        2.61780700000000
C           57.64387300000000       -2.75849000000000        0.88837100000000
C           56.36127900000000       -3.27233700000000        1.35799400000000
C           55.47301100000000       -2.33651400000000        1.09453400000000
C           56.17644700000000       -1.21613900000000        0.45980600000000
N           57.44619700000000       -1.45492200000000        0.33926200000000
H           54.45377700000000        2.53391700000000       -0.99417600000000
H           56.26176599999999        4.25835300000000       -1.44419400000000
H           58.70661700000000        4.27336300000000       -3.42050900000000
H           58.73682899999999        6.64056400000000       -4.10692200000000
H           58.91518800000000        9.03914400000000       -3.50331600000000
H           59.13179200000000        9.53332900000000       -1.79126000000000
H           59.25249500000000        7.82717500000000        0.00416200000000
H           59.21841000000000        5.46045100000000        0.69219900000000
H           61.67942599999999        4.41868900000000       -0.71684300000000
H           63.52700100000000        2.70763100000000       -0.23704000000000
H           63.25877200000000       -2.68004700000000       -0.32018000000000
H           61.32065599999999       -4.51960600000000        0.19212400000000
H           57.67687200000000       -5.64277000000000       -0.14619200000000
H           57.78958500000000       -7.94841000000000        0.71327600000000
H           59.60391100000000       -8.99483800000000        3.79696300000000
H           58.58864299999999       -9.55517900000000        2.42691800000000
H           60.22160000000000       -6.60159400000000        4.01048700000000
H           60.10940599999999       -4.29552200000000        3.15296700000000
H           56.15365900000000       -4.21991400000000        1.83789000000000
H           54.41857100000000       -2.40356100000000        1.32583500000000
Co          76.46902300000001       -0.04617900000000        0.05561400000000
C           72.98483700000000        0.01012500000000       -0.02623000000000
C           73.64169699999999        1.12002000000000       -0.41017700000000
C           72.99697200000000        2.35210600000000       -0.87029600000000
C           73.93499600000000        3.24770400000000       -1.10480500000000
C           75.23784499999999        2.63991400000000       -0.81503700000000
N           75.06142600000000        1.28989400000000       -0.37752800000000
C           76.42188000000000        3.28227400000000       -0.90204800000000
C           76.44325900000000        4.70236900000000       -1.31616400000000
C           76.30958600000000        5.04566300000000       -2.66998600000000
C           76.32661299999999        6.38840400000000       -3.05910800000000
C           76.48020199999999        7.39979200000000       -2.09943400000000
N           76.49812799999999        8.77311900000000       -2.49822300000000
C           76.61585500000000        7.05570200000000       -0.74636900000000
C           76.59675000000000        5.71344700000000       -0.35599600000000
C           77.72537000000000        2.63846500000000       -0.59789000000000
C           79.00428400000000        3.35956900000000       -0.56343700000000
C           79.95577100000000        2.48282200000000       -0.31755700000000
N           77.88881200000000        1.36850000000000       -0.38942900000000
C           79.29305900000000        1.19033800000000       -0.20149700000000
C           79.90815099999999        0.01012500000000       -0.02623000000000
C           79.16279200000000       -1.26430300000000        0.06890100000000
C           79.71129300000000       -2.46393500000000       -0.07644400000000
C           78.67877099999998       -3.44444200000000        0.19373800000000
C           77.56887000000000       -2.77780500000000        0.48892500000000
N           77.78339400000000       -1.36811800000000        0.42095900000000
C           76.30365399999999       -3.41407100000000        0.93106500000000
C           76.35683699999998       -4.80208600000000        1.45082800000000
C           75.71187600000000       -5.84500800000000        0.76462400000000
C           75.77802400000000       -7.15412900000000        1.25091200000000
C           76.49366800000000       -7.43607300000000        2.42416600000000
N           76.55783300000000       -8.77471700000000        2.92378400000000
C           77.14690700000000       -6.39703700000000        3.10441800000000
C           77.08261600000000       -5.08791500000000        2.61780700000000
C           75.12770700000000       -2.75849000000000        0.88837100000000
C           73.84511200000000       -3.27233700000000        1.35799400000000
C           72.95684499999999       -2.33651400000000        1.09453400000000
C           73.66028100000000       -1.21613900000000        0.45980600000000
N           74.93003000000000       -1.45492200000000        0.33926200000000
H           71.93761000000001        2.53391700000000       -0.99417600000000
H           73.74559900000000        4.25835300000000       -1.44419400000000
H           76.19045000000000        4.27336300000000       -3.42050900000000
H           76.22066300000000        6.64056400000000       -4.10692200000000
H           76.39902099999999        9.03914400000000       -3.50331600000000
H           76.61562499999999        9.53332900000000       -1.79126000000000
H           76.73632799999999        7.82717500000000        0.00416200000000
H           76.70224399999999        5.46045100000000        0.69219900000000
H           79.16325899999998        4.41868900000000       -0.71684300000000
H           81.01083400000000        2.70763100000000       -0.23704000000000
H           80.74260500000000       -2.68004700000000       -0.32018000000000
H           78.80448900000000       -4.51960600000000        0.19212400000000
H           75.16070600000000       -5.64277000000000       -0.14619200000000
H           75.27341799999999       -7.94841000000000        0.71327600000000
H           77.08774400000000       -8.99483800000000        3.79696300000000
H           76.07247700000001       -9.55517900000000        2.42691800000000
H           77.70543300000000       -6.60159400000000        4.01048700000000
H           77.59323900000000       -4.29552200000000        3.15296700000000
H           73.63749199999999       -4.21991400000000        1.83789000000000
H           71.90240500000000       -2.40356100000000        1.32583500000000
262
 energy: -454.275196319563 gnorm: 1.769467990649 xtb: 6.5.1 (b24c23e)
Co          40.10739834739121       -0.03590449660961        0.03442429731264
C           36.76483460984726        0.10379146120496        0.02659754392605
C           37.42902576128996        1.14699364408207       -0.49230075015116
C           36.77574660380069        2.29271412135661       -1.11152112655227
C           37.71824178509039        3.14304515724326       -1.48472208370223
C           39.02048419506841        2.57950749768884       -1.10682610816043
N           38.84206894190854        1.30952409741123       -0.48692931457907
C           40.21684634661730        3.18315334470540       -1.29974279510847
C           40.26364128077991        4.52950789099569       -1.91699334773374
C           40.82014303601462        4.69810435183224       -3.19343894684646
C           40.88336570320217        5.96791695644923       -3.77191912440200
C           40.39462151117446        7.08659996205838       -3.08028068170636
N           40.45941539564590        8.38406969457342       -3.67171587846642
C           39.84358591847612        6.91830043162451       -1.80095867140085
C           39.78075297685819        5.64883309233159       -1.22173088596425
C           41.50283342719922        2.56175050392509       -0.91156992217393
C           42.78603496008795        3.27269644663896       -0.90492466631811
C           43.72338716209121        2.41423007675191       -0.54160717632255
N           41.64823440233411        1.31424636555210       -0.55990916024585
C           43.04355154569235        1.14782659337769       -0.31064227181299
C           43.63956713783558       -0.01320916691560        0.02005467414639
C           42.87280616133267       -1.25191007849085        0.25286745789260
C           43.40390859365479       -2.47791638114404        0.23340806422638
C           42.36554592806657       -3.40522850019163        0.61553767497845
C           41.25942292198468       -2.69157390477913        0.85133163647106
N           41.49714083535191       -1.30342437625313        0.62883738099335
C           39.98707866750921       -3.26473625680328        1.34508953859231
C           40.00786472121498       -4.60355094055932        1.98544413636488
C           40.74620867528278       -4.80836518910609        3.16101145412267
C           40.78717732929039       -6.07078384005866        3.75725952600061
C           40.09527573451656       -7.14810467334553        3.18363785327240
N           40.13759463127486       -8.43804511330516        3.79310174367048
C           39.36391657284658       -6.94608828067825        2.00355767948683
C           39.32295813999787       -5.68401350445836        1.40655247454153
C           38.82184052147485       -2.59371462971128        1.22947306954980
C           37.51706456237411       -3.03776604636117        1.71172535078380
C           36.65214962549201       -2.10852823138953        1.33799303695778
C           37.39840431773800       -1.06940130785253        0.63235413986563
N           38.66908461462824       -1.34395246838845        0.56423305615051
H           35.68128399432464        0.12476503524450        0.00161028096947
H           35.71307550423258        2.43700365235403       -1.25508746048462
H           37.52935848617598        4.08428090035439       -1.98306416989979
H           41.20329593943826        3.84354048570248       -3.73940407294014
H           41.31387826269695        6.08313308027705       -4.75923244601163
H           40.86784101421630        8.51801378082629       -4.62122812834895
H           40.09925025408656        9.22039019410635       -3.16458692834780
H           39.46529609578993        7.77328481565403       -1.25387396601332
H           39.35792880307208        5.53542311364591       -0.23002172649467
H           42.95868828637906        4.31160806590563       -1.14758804007247
H           44.77650357952523        2.64040508154306       -0.44585331736932
H           44.42939863346370       -2.72828196926739        0.00234926994219
H           42.46978894257074       -4.47642177368373        0.71854368834127
H           41.28735246804974       -3.98668321996718        3.61611947258101
H           41.35876876065544       -6.21268893333183        4.66643212853506
H           40.67938045920288       -8.59692784904641        4.66922470336612
H           39.62725654238541       -9.24389799012368        3.37295447787085
H           38.82870327571732       -7.76964781710006        1.54668221606689
H           38.76132023030228       -5.54703159263807        0.48957168934126
H           37.27398121465020       -3.93505802238777        2.26448731655950
H           35.58900903124270       -2.12627918666333        1.53209255740630
Co          95.28115233865333        0.01537634891225        0.00690278353809
C           98.62376156204944       -0.06833059238221        0.11900162683161
C           97.95955538969530       -1.07724121709122        0.70181251055145
C           98.61283348768438       -2.22639133924077        1.31462487491327
C           97.67033280737746       -3.00729501987660        1.81717249175479
C           96.36805017058381       -2.38101655026633        1.55630999121731
N           96.54652849503756       -1.16251990989713        0.84023428971052
C           95.17183665042512       -2.87528530369851        1.95280820149402
C           95.12494553435796       -4.13364994025406        2.73394364633958
C           94.56844646442140       -5.29071116550086        2.16919966791383
C           94.50522121372114       -6.47447821865625        2.90795896641851
C           94.99396627068167       -6.51609269640871        4.22251807603274
N           94.92917101509947       -7.72595326193496        4.97717955808470
C           95.54500047820430       -5.35680594578311        4.78910368790056
C           95.60783083597460       -4.17260395768857        4.05104478809162
C           93.88571913000582       -2.20830345987191        1.64928573557811
C           92.60251185234739       -2.59564957641142        2.24558506339151
C           91.66519279332690       -1.81854047442376        1.73081883286009
N           93.74050525069362       -1.22613611048681        0.80391391763057
C           92.34487707614886       -0.92605238253031        0.80269309283158
C           91.74988483425078       -0.00917667421708        0.01793163328081
C           92.51579183836526        0.86919807596597       -0.88584166977813
C           91.98467141112896        1.53046276255495       -1.91852557646883
C           93.02308526232120        2.36136418426753       -2.48034064214968
C           94.12915790473488        2.16360789037749       -1.75526170737192
N           93.89150263980673        1.21113273347615       -0.72113341676943
C           95.40152274531023        2.89181429897320       -1.96013568258031
C           95.38072276186342        4.16527406530220       -2.72222557473246
C           94.64238076231075        5.25826483719027       -2.24340167553837
C           94.60141006715733        6.45275667838421       -2.96618235113262
C           95.29331135931398        6.56988809927572       -4.18106025746770
N           95.25099280257989        7.79060829107497       -4.91948005956013
C           96.02467007534537        5.47468355834567       -4.66470875814172
C           96.06562651966924        4.27975073090664       -3.94263503210490
C           96.56672888059200        2.42469876573578       -1.46472910125851
C           97.87152341777254        3.07198744879244       -1.56838405335905
C           98.73643342918520        2.24705909831121       -1.00036481397319
C           97.99020047265488        1.08474417356436       -0.52412355973682
N           96.71949890132488        1.17967469106741       -0.79064239316677
H           99.70730304665332       -0.10076275209469        0.12268998965763
H           99.67551149374185       -2.42578778258132        1.35556986186518
H           97.85922846561213       -3.94271676615724        2.32634302396349
H           94.18529095498533       -5.27360397145998        1.15526337342726
H           94.07470836245291       -7.36105977140040        2.45847276770297
H           94.52074718830688       -8.59136767440853        4.56418630685532
H           95.28933673884532       -7.76534541765186        5.95444594304297
H           95.92329134328999       -5.37321140064941        5.80400891529491
H           96.03065839906748       -3.28335776960903        4.50446603121792
H           92.42990243710481       -3.37195668961296        2.97744261281926
H           90.61209859169047       -1.86369692332494        1.97224356834671
H           90.95919993686678        1.47624106141448       -2.25491151595073
H           92.91880025040473        3.03907535851681       -3.31625635422047
H           94.10123434127236        5.18359582331740       -1.30707500899497
H           94.02981790344096        7.28895355004129       -2.58211576646568
H           94.70920632464966        8.60863505217222       -4.56782641852044
H           95.76133009489209        7.88566721696537       -5.82329533023914
H           96.55988403672509        5.54891706394555       -5.60357785459857
H           96.62726688034586        3.43976525995203       -4.33511749144509
H           98.11460546344861        4.02849326786298       -2.01085745812915
H           99.79957800587698        2.41864671836384       -0.90791564877435