154
 energy: -233.714653677566 gnorm: 0.414986312198 xtb: 6.5.1 (b24c23e)
Zn          14.37502200000000       -0.00631100000000       -0.00414200000000
C           11.00115400000000        0.12620800000000        0.03514100000000
C           11.66987000000000        1.17884700000000        0.51375300000000
C           11.02655300000000        2.36037700000000        1.07653700000000
C           11.97356700000000        3.21284000000000        1.42166200000000
C           13.27401100000000        2.61554400000000        1.09127700000000
N           13.08944400000000        1.32135200000000        0.51885100000000
C           14.46777000000000        3.21307700000000        1.27359300000000
C           14.51332500000000        4.58097200000000        1.85315400000000
C           14.42959100000000        5.71420900000000        1.00995400000000
C           14.29179600000000        5.56375900000000       -0.48307900000000
C           14.47253200000000        6.99948600000000        1.57149300000000
C           14.59212900000000        7.17214500000000        2.95536200000000
C           14.67802700000000        8.55208500000000        3.53883500000000
C           14.70088200000000        6.05053500000000        3.78550700000000
C           14.65407400000000        4.75443100000000        3.25000500000000
C           14.76543800000000        3.56821300000000        4.17250200000000
C           15.76085300000000        2.57362900000000        0.92026500000000
C           17.05299000000000        3.26432900000000        0.99245600000000
C           17.98818800000000        2.40534300000000        0.64443200000000
N           15.89824400000000        1.33833400000000        0.54486300000000
C           17.30043900000000        1.15357100000000        0.34856000000000
C           17.89543900000000       -0.00016000000000        0.00004400000000
C           17.13819200000000       -1.24212200000000       -0.28758800000000
C           17.69447900000000       -2.44098600000000       -0.41046200000000
C           16.64549700000000       -3.37005300000000       -0.77707300000000
C           15.51411600000000       -2.67970200000000       -0.85355500000000
N           15.73441800000000       -1.30128200000000       -0.54744500000000
C           14.21243200000000       -3.25932400000000       -1.27361400000000
C           14.20195400000000       -4.62142900000000       -1.87193200000000
C           14.44062300000000       -4.78912300000000       -3.25611800000000
C           14.70835000000000       -3.60405600000000       -4.14756900000000
C           14.43732800000000       -6.07904700000000       -3.80818300000000
C           14.19857800000000       -7.20014800000000       -3.00600700000000
C           14.17300400000000       -8.56617000000000       -3.62681800000000
C           13.94945700000000       -7.03254200000000       -1.63835000000000
C           13.96015600000000       -5.75449400000000       -1.05904600000000
C           13.69907800000000       -5.61081600000000        0.41830900000000
C           13.05075800000000       -2.59658400000000       -1.13011400000000
C           11.73075900000000       -3.09216100000000       -1.51291600000000
C           10.86962000000000       -2.16504500000000       -1.14180700000000
C           11.63177800000000       -1.07655700000000       -0.53131100000000
N           12.90505700000000       -1.31758800000000       -0.51824200000000
H            9.91797900000000        0.15156500000000        0.05746900000000
H            9.96346600000000        2.52635700000000        1.19444900000000
H           11.79572400000000        4.18415000000000        1.86493800000000
H           13.34017400000000        5.04436800000000       -0.72123400000000
H           15.14182700000000        4.97180000000000       -0.88263800000000
H           14.28726900000000        6.54809200000000       -0.99750100000000
H           14.41332000000000        7.87147000000000        0.93062800000000
H           14.25416700000000        8.57079200000000        4.56559500000000
H           15.74084800000000        8.87000700000000        3.57952800000000
H           14.10612500000000        9.27666000000000        2.92068400000000
H           14.82024500000000        6.19005800000000        4.85361800000000
H           15.68043300000000        2.98884100000000        3.92830600000000
H           14.82429700000000        3.87855700000000        5.23706700000000
H           13.87614200000000        2.91410100000000        4.05455300000000
H           17.22864100000000        4.29294000000000        1.27897500000000
H           19.04836900000000        2.61711300000000        0.60179600000000
H           18.74008800000000       -2.68814100000000       -0.28663700000000
H           16.77283900000000       -4.42620800000000       -0.97630400000000
H           13.87325100000000       -2.87611000000000       -4.06970100000000
H           14.80417500000000       -3.90352900000000       -5.21272900000000
H           15.65391300000000       -3.11073300000000       -3.83937200000000
H           14.61908700000000       -6.21549000000000       -4.86808400000000
H           15.07395300000000       -8.71020800000000       -4.26121000000000
H           14.16388400000000       -9.36433200000000       -2.85347600000000
H           13.26440800000000       -8.66911200000000       -4.25748000000000
H           13.75059900000000       -7.90142000000000       -1.02210300000000
H           12.74457600000000       -5.06783500000000        0.57875000000000
H           14.52664300000000       -5.04520200000000        0.89552400000000
H           13.62633300000000       -6.59818400000000        0.92175900000000
H           11.48291900000000       -4.02995000000000       -1.99306700000000
H            9.79639800000000       -2.21586800000000       -1.27001300000000
Zn          30.64437000000000        0.00717600000000        0.00128100000000
C           34.01823800000000       -0.11564400000000       -0.06211900000000
C           33.34952200000000       -1.20656700000000       -0.44553200000000
C           33.99283900000000       -2.44877100000000       -0.85744100000000
C           33.04582500000000       -3.30283300000000       -1.19858800000000
C           31.74538100000000       -2.64310000000000       -1.02346500000000
N           31.92994699999999       -1.31292600000000       -0.54051300000000
C           30.55162199999999       -3.20049300000000       -1.30559600000000
C           30.50606700000000       -4.58878800000000       -1.83442600000000
C           30.58980100000000       -4.82274300000000       -3.22743600000000
C           30.72759599999999       -3.68051300000000       -4.20062400000000
C           30.54686000000000       -6.13894700000000       -3.71207100000000
C           30.42726300000000       -7.22162500000000       -2.83303100000000
C           30.34136500000000       -8.62132100000000       -3.36737700000000
C           30.31850900000000       -6.98702200000000       -1.45749100000000
C           30.36531800000000       -5.68103200000000       -0.94657200000000
C           30.25395300000000       -5.46374700000000        0.54033800000000
C           29.25853900000000       -2.49445800000000       -1.11784500000000
C           27.96640200000000       -3.04283500000000       -1.54394300000000
C           27.03120400000000       -2.18205900000000       -1.20037200000000
N           29.12114800000000       -1.34318900000000       -0.53350000000000
C           27.71895200000000       -1.07396100000000       -0.54723200000000
C           27.12395300000000       -0.00016000000000        0.00004400000000
C           27.88120000000000        1.09515400000000        0.65233800000000
C           27.32491300000000        2.04530400000000        1.39368000000000
C           28.37389500000000        2.96951800000000        1.77235900000000
C           29.50527600000000        2.52432300000000        1.23922200000000
N           29.28497300000000        1.31775000000000        0.50578700000000
C           30.80696000000000        3.23338700000000        1.33740300000000
C           30.81743800000000        4.63049100000000        1.84868900000000
C           30.57876800000000        5.70980700000000        0.96598100000000
C           30.31104100000000        5.47185800000000       -0.49772900000000
C           30.58206400000000        7.02280400000000        1.46067000000000
C           30.82081400000000        7.27640400000000        2.81567600000000
C           30.84638800000000        8.69190700000000        3.31344400000000
C           31.06993500000000        6.20859600000000        3.68651700000000
C           31.05923600000000        4.88530900000000        3.21970500000000
C           31.32031400000000        3.75882000000000        4.18626800000000
C           31.96863400000000        2.65581600000000        0.98211600000000
C           33.28863300000000        3.27844000000000        1.04899400000000
C           34.14977200000000        2.35252000000000        0.67491200000000
C           33.38761300000000        1.14442200000000        0.36184600000000
N           32.11433500000000        1.30929800000000        0.53814900000000
H           35.10141200000000       -0.14939900000000       -0.06356200000000
H           35.05592600000000       -2.65017300000000       -0.88727000000000
H           33.22366800000000       -4.31060700000000       -1.55119200000000
H           31.67921800000000       -3.14084800000000       -4.01288400000000
H           29.87756500000000       -2.97674000000000       -4.07910900000000
H           30.73212200000000       -4.03464300000000       -5.25330300000000
H           30.60607200000000       -6.32446800000000       -4.77820700000000
H           30.76522500000000       -9.34567400000000       -2.63943500000000
H           29.27854400000000       -8.87890100000000       -3.55811900000000
H           30.91326700000000       -8.71620000000000       -4.31506800000000
H           30.19914700000000       -7.82718200000000       -0.78335500000000
H           29.33895900000000       -4.87661800000000        0.76524500000000
H           30.19509499999999       -6.42471400000000        1.09365100000000
H           31.14324999999999       -4.91009100000000        0.90808800000000
H           27.79075100000000       -3.98342900000000       -2.04933100000000
H           25.97102300000000       -2.30535000000000       -1.37775200000000
H           26.27930400000000        2.13791900000000        1.65414300000000
H           28.24655200000000        3.86955500000000        2.35980100000000
H           31.14614100000000        4.89267300000000       -0.94551800000000
H           30.21521700000000        6.42539200000000       -1.05899800000000
H           29.36547900000000        4.90251000000000       -0.61688000000000
H           30.40030500000000        7.85505800000000        0.79032700000000
H           29.94543900000000        9.23505000000000        2.95539900000000
H           30.85550800000000        8.73244200000000        4.42406500000000
H           31.75498400000000        9.20281300000000        2.92963800000000
H           31.26879300000000        6.40891900000000        4.73273800000000
H           32.27481600000000        3.25593600000000        3.92611900000000
H           30.49274900000000        3.02029300000000        4.13902800000000
H           31.39305900000000        4.12273600000000        5.23313100000000
H           33.53647300000000        4.28755500000000        1.35178300000000
H           35.22299400000000        2.47795300000000        0.61758800000000
C           23.11361600000000        0.00115100000000        0.00847600000000
C           21.90467700000000       -0.01230400000000        0.00002900000000
C           20.48314800000000       -0.00348400000000       -0.01195400000000
C           19.27147799999999        0.00395400000000       -0.00109100000000
C           24.53022000000000       -0.00552400000000        0.00901000000000
C           25.75091600000000        0.00395400000000       -0.00109100000000
154
 energy: -233.803995101037 gnorm: 0.231439358385 xtb: 6.5.1 (b24c23e)
Zn          14.37408142295965       -0.00174341008252       -0.00157173149499
C           10.99879113000093        0.10648023194488        0.02545030014074
C           11.67269580285842        1.17878379412345        0.51365089291442
C           11.02733004958548        2.35326542421851        1.07292809109108
C           11.98706417309777        3.21619951601053        1.42189800495119
C           13.27465998585723        2.61395147798105        1.09123695770738
N           13.06234383219369        1.34529547662187        0.53464275454751
C           14.48704319151095        3.21667394363858        1.27376473993815
C           14.52332672736285        4.58937442242082        1.85516080382518
C           14.43128150656832        5.71593630647528        1.01688459358535
C           14.29282199908499        5.56121684610636       -0.47806147284804
C           14.47211516645949        6.99332033304098        1.57618578178490
C           14.59711914251971        7.16856761193214        2.95323386686289
C           14.67526742589579        8.55182545705459        3.53897098338968
C           14.69874598930039        6.04949616357808        3.77781938297806
C           14.65610036819862        4.76066039607447        3.24557404084241
C           14.76479914956600        3.57013985294634        4.16684609391118
C           15.75208501314196        2.60142269844760        0.93176891773649
C           17.03510136930855        3.28471969882209        1.00257773935213
C           17.97933498302002        2.40144128359230        0.64495474121766
N           15.90977748969698        1.35252462547294        0.53717971386413
C           17.29068026776543        1.16126859829827        0.34923641516344
C           17.88223601909402       -0.01885538210770       -0.00157457479645
C           17.12723513531148       -1.23695837632663       -0.29572116178858
C           17.70095009666469       -2.47192039561048       -0.42224240771251
C           16.67595217187444       -3.37846667594822       -0.78056451818901
C           15.50884122499814       -2.66670390136844       -0.85979256210138
N           15.74403212091672       -1.31408410892778       -0.54149785756134
C           14.23347965348167       -3.24894357074801       -1.27057719935241
C           14.21845507442737       -4.62189603191086       -1.86875654697643
C           14.44414756458459       -4.79233716401839       -3.24899214898763
C           14.70734602604608       -3.60509921291251       -4.14198478828799
C           14.43530395974817       -6.07571261406073       -3.79828745197772
C           14.19548253846509       -7.19531003031654       -3.00308634787336
C           14.17446083780203       -8.56518780567422       -3.62553437766951
C           13.95153066975362       -7.02318746670160       -1.64212288699867
C           13.96366703187891       -5.75127873216376       -1.06505254585454
C           13.70130453442862       -5.60733871079300        0.41402350739790
C           13.05099687277470       -2.59508557899717       -1.13103171517607
C           11.73813144746906       -3.09006264486731       -1.50907529845357
C           10.85246422442070       -2.15332952396351       -1.13556642177890
C           11.60379280786525       -1.07036941175116       -0.52793307143880
N           12.89541618697741       -1.32793823041571       -0.53199919293339
H            9.91627248014899        0.13882579814763        0.04996826702655
H            9.96384205090152        2.51018923242223        1.18728688241810
H           11.81878442527198        4.18694284627959        1.86547662901484
H           13.35379450754211        5.04522100719331       -0.72117579746927
H           15.12912716532179        4.97326170037526       -0.88023328214197
H           14.28718791352911        6.53554145241636       -0.98561866935279
H           14.41174573644397        7.86555505831184        0.93245487443477
H           14.26241914542458        8.57186512681260        4.55622747059146
H           15.72597594999600        8.87191730214045        3.58174048542375
H           14.11569263676356        9.27106612664052        2.92647351261285
H           14.81730990353997        6.18697988275502        4.84832006916323
H           15.66728138026349        2.98999134489251        3.92989631611832
H           14.82360901696074        3.87837146355276        5.21965295128496
H           13.88921202557367        2.91645917655116        4.05288589319152
H           17.21090516016358        4.30837301866804        1.28633660142056
H           19.04188042203957        2.59720745625847        0.59622670566573
H           18.74430884528652       -2.70534424165615       -0.28816335324237
H           16.78923823986536       -4.43259041044473       -0.97350457765640
H           13.88600526252733       -2.87931455065659       -4.06713508629404
H           14.80229123482565       -3.90375013222493       -5.19504165525612
H           15.64106506140673       -3.11018346800714       -3.84188796426797
H           14.61816028022534       -6.21075745608325       -4.86062029073266
H           15.06094328980845       -8.71109553320054       -4.25794643055715
H           14.16212087267884       -9.35453543202508       -2.86232069159405
H           13.27792421848759       -8.67286196779632       -4.25244883808555
H           13.75288377327965       -7.89343611899734       -1.02342028948206
H           12.75812743293931       -5.06902244785990        0.58025726282076
H           14.51472158348664       -5.04565697607806        0.89246223327300
H           13.62716945454958       -6.58540787258640        0.90917952843591
H           11.50397877726634       -4.02864608168420       -1.99134183416021
H            9.78387436509249       -2.20233548712051       -1.26440280394890
Zn          30.64521574583767        0.00201064664814       -0.00005055356473
C           34.02059609213759       -0.09470523263020       -0.05545486137522
C           33.34668545414615       -1.20645488110919       -0.44556343423214
C           33.99203538470750       -2.44114427743524       -0.85512424404428
C           33.03227536931986       -3.30541307849352       -1.20074202959158
C           31.74466257691968       -2.64189409486218       -1.02238180931559
N           31.95703481833180       -1.34112849714861       -0.54570018369580
C           30.53218408824402       -3.20308225633332       -1.30792081460812
C           30.49600641520300       -4.59617230305592       -1.83877484484397
C           30.58810017877716       -4.82876391170026       -3.22361368347767
C           30.72656798121188       -3.68214684045136       -4.19524227370652
C           30.54727866368023       -6.13773074364331       -3.70440423636326
C           30.42227285444523       -7.21756043932211       -2.83208639076452
C           30.34412513092360       -8.62122169530917       -3.36709677575525
C           30.32064845702848       -6.98093026484774       -1.46231732981686
C           30.36328204986707       -5.68242974773657       -0.95408105760094
C           30.25459028655322       -5.46121672503277        0.53492546106668
C           29.26698706220953       -2.52233167213627       -1.12874501048693
C           27.98412190711044       -3.06455956670392       -1.55078591583171
C           27.03960912281919       -2.17976099176471       -1.19740167741144
N           29.10873955630146       -1.34790412644557       -0.54880043886765
C           27.72744696839684       -1.08018514093680       -0.55191528866290
C           27.13573084102515        0.01422748509360        0.01284029763815
C           27.89243780929707        1.09687305590471        0.64303013812610
C           27.31867270127308        2.07569710700158        1.40659771779695
C           28.34355259590527        2.97801231094815        1.77563952940448
C           29.51064209057202        2.51927388788005        1.22569589198518
N           29.27549741718646        1.32286439566159        0.51887114326472
C           30.78595143958558        3.22381095673264        1.33240346567499
C           30.80095172756903        4.62863725174373        1.85130303492120
C           30.57524643288800        5.70719566274812        0.97334772837797
C           30.31204583936153        5.46874476752224       -0.49297731874978
C           30.58408743430906        7.01354864858304        1.46550242251530
C           30.82390940849912        7.27089172064415        2.81443464974757
C           30.84493113086516        8.69031015406116        3.31369043314738
C           31.06786087243983        6.20445914199281        3.67731903357575
C           31.05572790360092        4.88714956020624        3.21314638010407
C           31.31808785478317        3.75927804097129        4.18076827519079
C           31.96841301665874        2.65536535783579        0.98040825302534
C           33.28126749769791        3.27426220359698        1.05030895032429
C           34.16692871993096        2.33973689146213        0.67130017986224
C           33.41558896378129        1.13761374766410        0.35999615245810
N           32.12396008249948        1.32627455956123        0.53537546425935
H           35.10311528407770       -0.13501746874116       -0.06015536848094
H           35.05552809722251       -2.63355493689391       -0.88124814661943
H           33.20057507478040       -4.31298766913054       -1.55273520919457
H           31.66559702129497       -3.14150106322841       -4.01343198183925
H           29.89026249889504       -2.97945529164760       -4.07838794779401
H           30.73220354474018       -4.03381484381214       -5.23603688338929
H           30.60764812212595       -6.32145414536480       -4.77278389880788
H           30.75697261672795       -9.33995991881303       -2.64693731209753
H           29.29341723978129       -8.88180864415026       -3.55784413195309
H           30.90369883244106       -8.71616925125290       -4.30701577645406
H           30.20208497449029       -7.82127868835496       -0.78504730750582
H           29.35210785969540       -4.87854748901291        0.76559983213946
H           30.19578384378196       -6.41252300431526        1.08121033750355
H           31.13017926129374       -4.91063608882647        0.90525398496640
H           27.80850932099204       -3.99968874627395       -2.05473078791311
H           25.97717750950708       -2.28731956067067       -1.36810152993784
H           26.27525395279303        2.15133667780292        1.66492422236913
H           28.23018716868616        3.87222042137678        2.36621816308615
H           31.13338676326791        4.89320959036692       -0.94144815154216
H           30.21710031259461        6.41330595044082       -1.04608219204770
H           29.37832729513424        4.90385540904582       -0.61907517430566
H           30.40123116174395        7.84647667563320        0.79243609178691
H           29.95844866967852        9.23343100051918        2.95836837627221
H           30.85727120161511        8.73149640996622        4.41090004009138
H           31.74146776969722        9.20203585118697        2.93586470796197
H           31.26650786749565        6.40407062012889        4.72626106878545
H           32.26126493516885        3.25574941634692        3.92802904870707
H           30.50467046936231        3.02274168959126        4.13713303319841
H           31.39222229498239        4.12222593076539        5.21520880968995
H           33.51541709636957        4.28541562975111        1.35212343461028
H           35.23551845578071        2.46429673398668        0.61226496171484
C           23.12382323793929        0.00217285790751        0.00715281513315
C           21.89672331327035       -0.01387658454626       -0.00161323302422
C           20.51046120295297       -0.01411665298267       -0.01550489759204
C           19.28594050002783       -0.02156603512266       -0.00464073902822
C           24.50828297105822        0.00195108541156        0.00745814024379
C           25.73308131808632        0.03021706941625        0.01807300996160
154
 energy: -233.847670202939 gnorm: 0.065480797086 xtb: 6.5.1 (b24c23e)
Zn          14.38098874501466        0.00236030770547       -0.00314463436645
C           11.00325821646355        0.08735418847586        0.01599302097719
C           11.67863948230546        1.18411638878613        0.51826467771607
C           11.02869713744088        2.34800476272220        1.07010472847183
C           11.99959214762568        3.21899287856462        1.42231552158482
C           13.26915103251114        2.60875872297863        1.09198579535441
N           13.03200384401982        1.37294077485806        0.55050650151604
C           14.50848106029902        3.21334036061257        1.27061373702528
C           14.52976992525649        4.59282307536847        1.85470882164445
C           14.43340362278976        5.71520128325949        1.02123482482478
C           14.29377254399783        5.55760903665943       -0.47472771390621
C           14.47219217059713        6.98794289805629        1.57911270759637
C           14.60090988539680        7.16638484556461        2.95172156915460
C           14.67399082557341        8.55251634485902        3.53936898452958
C           14.69751296242824        6.04760846594265        3.77131415266213
C           14.65851534776645        4.76336629377340        3.24025856731016
C           14.76482990780594        3.57020481392277        4.16099444794119
C           15.74373631057187        2.62890182015630        0.94211841637653
C           17.01930377370001        3.29712201568717        1.01387864404739
C           17.96681146031196        2.39556665252540        0.64588687619263
N           15.92880423069404        1.35888984837477        0.52387623303768
C           17.27978671722236        1.16988268453410        0.34739355009740
C           17.87268745238284       -0.04452321725644       -0.00364854478538
C           17.12190587460349       -1.23170313548132       -0.30156478272147
C           17.70631091178396       -2.50671824442741       -0.44093930049884
C           16.71390692269073       -3.38197308297565       -0.78950773034566
C           15.50613912933878       -2.65450081096407       -0.86576183666534
N           15.76799344386057       -1.33641375197832       -0.53573329916764
C           14.26418128439122       -3.23138365956199       -1.26297807324722
C           14.23805619296911       -4.61674614076638       -1.86122146887156
C           14.45034170922267       -4.79116124997366       -3.23936237981439
C           14.70849124403513       -3.60360789442410       -4.13568088761305
C           14.43407986877655       -6.06955495357393       -3.78860097693916
C           14.19343660115952       -7.19032902058570       -3.00026317705845
C           14.17503181525180       -8.56369960595202       -3.62437361587363
C           13.95348875266874       -7.01240995332196       -1.64383756473833
C           13.96989845224610       -5.74411391291731       -1.06784985929037
C           13.70419813039264       -5.60187883046606        0.41198196090373
C           13.04973032551937       -2.58521891778969       -1.13088055199228
C           11.74818855372187       -3.08367726989431       -1.50261592618497
C           10.84186791413388       -2.14525900705733       -1.12709611038034
C           11.57591223817768       -1.06242804278936       -0.52473098513883
N           12.89249642130492       -1.33939880614578       -0.54925923194675
H            9.91955438500112        0.13228816675477        0.04168687532593
H            9.96451819701513        2.49322365649679        1.17928689495757
H           11.84472674862592        4.19003033694281        1.86587911654182
H           13.36285139915139        5.04320270307442       -0.71751719064446
H           15.12118651511594        4.97116664654071       -0.87534742231805
H           14.28781415538847        6.52720607819333       -0.97271864017140
H           14.40872002170297        7.85959238377158        0.93292425331141
H           14.26800990842352        8.56956056494307        4.54972376825158
H           15.71677572486701        8.87356056254230        3.58330884901574
H           14.12197516728666        9.26508677512573        2.92832949104915
H           14.81280361030710        6.18246440340123        4.84376488918196
H           15.65862231064023        2.99058018070339        3.92654962700393
H           14.82316252159123        3.88219014579225        5.20395172300318
H           13.89731252654665        2.91923939732820        4.04691479340119
H           17.19424853953673        4.31968647842996        1.29496370247869
H           19.03141017267434        2.57456629182579        0.59030688944209
H           18.75029621158887       -2.72079482333069       -0.29143143283461
H           16.80416911911284       -4.43845631637819       -0.97380474340028
H           13.89413060952947       -2.88242055953641       -4.06041521427308
H           14.80060980223207       -3.90780775271268       -5.17861576989858
H           15.63346611837408       -3.10727008702197       -3.84034701035072
H           14.61572303197828       -6.20219761485410       -4.85288446988728
H           15.05234097567353       -8.70822265489894       -4.25490815568299
H           14.16061714976944       -9.34423024530672       -2.86531623449742
H           13.28657174552012       -8.67356132421168       -4.24885096374920
H           13.75394698030808       -7.88269300502617       -1.02276082400303
H           12.76804306860155       -5.06669231468887        0.57817909933630
H           14.50786740664066       -5.04190127682703        0.88965303637930
H           13.62912288975942       -6.57627930766533        0.89528124936974
H           11.52929349757602       -4.02400803546130       -1.98762306069759