312
 energy: -493.409485904941 gnorm: 0.586547218736 xtb: 6.5.1 (b24c23e)
Cu          44.18342800000000       -0.02455500000000       -0.02164300000000
C           40.80956000000000        0.10796400000000        0.01764000000000
C           41.47827600000000        1.16060300000000        0.49625100000000
C           40.83495900000000        2.34213300000000        1.05903600000000
C           41.78197200000000        3.19459600000000        1.40416100000000
C           43.08241700000000        2.59730000000000        1.07377500000000
N           42.89785000000000        1.30310800000000        0.50134900000000
C           44.27617600000000        3.19483300000000        1.25609200000000
C           44.32173000000000        4.56272700000000        1.83565200000000
C           44.23799700000000        5.69596500000000        0.99245300000000
C           44.10020200000000        5.54551500000000       -0.50058000000000
C           44.28093799999999        6.98124200000000        1.55399200000000
C           44.40053400000000        7.15390100000000        2.93786000000000
C           44.48643200000000        8.53384100000000        3.52133400000000
C           44.50928800000000        6.03229100000000        3.76800600000000
C           44.46247900000000        4.73618700000000        3.23250400000000
C           44.57384400000000        3.54996900000000        4.15500100000000
C           45.56925800000000        2.55538500000000        0.90276300000000
C           46.86139500000000        3.24608500000000        0.97495500000000
C           47.79659399999999        2.38709900000000        0.62693100000000
N           45.70665000000000        1.32009000000000        0.52736200000000
C           47.10884500000000        1.13532700000000        0.33105900000000
C           47.70384400000000       -0.01840400000000       -0.01745700000000
C           46.94659699999999       -1.26036600000000       -0.30508900000000
C           47.50288400000000       -2.45923000000000       -0.42796300000000
C           46.45390300000000       -3.38829700000000       -0.79457400000000
C           45.32252199999999       -2.69794700000000       -0.87105600000000
N           45.54282400000000       -1.31952600000000       -0.56494700000000
C           44.02083800000000       -3.27756900000000       -1.29111500000000
C           44.01035900000000       -4.63967400000000       -1.88943300000000
C           44.24902900000000       -4.80736700000000       -3.27362000000000
C           44.51675599999999       -3.62230000000000       -4.16507000000000
C           44.24573300000000       -6.09729100000000       -3.82568400000000
C           44.00698299999999       -7.21839200000000       -3.02350900000000
C           43.98140900000000       -8.58441400000000       -3.64432000000000
C           43.75786200000000       -7.05078600000000       -1.65585200000000
C           43.76856200000000       -5.77273800000000       -1.07654700000000
C           43.50748400000000       -5.62906000000000        0.40080700000000
C           42.85916300000000       -2.61482800000000       -1.14761600000000
C           41.53916500000000       -3.11040500000000       -1.53041700000000
C           40.67802499999999       -2.18329000000000       -1.15930900000000
C           41.44018400000000       -1.09480100000000       -0.54881200000000
N           42.71346299999999       -1.33583200000000       -0.53574400000000
H           39.72638500000000        0.13332100000000        0.03996800000000
H           39.77187100000000        2.50811300000000        1.17694800000000
H           41.60413000000000        4.16590600000000        1.84743700000000
H           43.14857900000000        5.02612400000000       -0.73873600000000
H           44.95023300000000        4.95355600000000       -0.90013900000000
H           44.09567499999999        6.52984800000000       -1.01500200000000
H           44.22172500000000        7.85322600000000        0.91312700000000
H           44.06257299999999        8.55254800000000        4.54809400000000
H           45.54925400000000        8.85176300000000        3.56202700000000
H           43.91453100000000        9.25841600000000        2.90318300000000
H           44.62865099999999        6.17181400000000        4.83611700000000
H           45.48883900000000        2.97059700000000        3.91080400000000
H           44.63270300000000        3.86031300000000        5.21956600000000
H           43.68454700000000        2.89585600000000        4.03705200000000
H           47.03704700000000        4.27469600000000        1.26147400000000
H           48.85677500000000        2.59886900000000        0.58429500000000
H           48.54849300000000       -2.70638500000000       -0.30413800000000
H           46.58124500000000       -4.44445200000000       -0.99380500000000
H           43.68165700000000       -2.89435400000000       -4.08720200000000
H           44.61257999999999       -3.92177300000000       -5.23023100000000
H           45.46231800000000       -3.12897700000000       -3.85687300000000
H           44.42749199999999       -6.23373400000000       -4.88558500000000
H           44.88235900000000       -8.72845300000000       -4.27871200000000
H           43.97228900000000       -9.38257700000000       -2.87097700000000
H           43.07281299999999       -8.68735600000000       -4.27498100000000
H           43.55900500000000       -7.91966400000000       -1.03960400000000
H           42.55298100000000       -5.08607900000000        0.56124900000000
H           44.33504800000000       -5.06344600000000        0.87802300000000
H           43.43473800000000       -6.61642800000000        0.90425700000000
H           41.29132499999999       -4.04819400000000       -2.01056800000000
H           39.60480300000000       -2.23411200000000       -1.28751400000000
Cu          95.16810299999999       -0.01106800000000       -0.01622000000000
C           98.54197100000000       -0.13388800000000       -0.07962000000000
C           97.87325499999999       -1.22481100000000       -0.46303300000000
C           98.51657200000000       -2.46701500000000       -0.87494200000000
C           97.56955900000000       -3.32107700000000       -1.21609000000000
C           96.26911499999999       -2.66134400000000       -1.04096600000000
N           96.45368100000000       -1.33117000000000       -0.55801400000000
C           95.07535599999999       -3.21873700000000       -1.32309800000000
C           95.02980100000001       -4.60703200000000       -1.85192700000000
C           95.11353400000000       -4.84098800000000       -3.24493700000000
C           95.25132999999998       -3.69875800000000       -4.21812500000000
C           95.07059300000000       -6.15719100000000       -3.72957300000000
C           94.95099700000000       -7.23986900000000       -2.85053300000000
C           94.86509899999999       -8.63956600000000       -3.38487800000000
C           94.84224300000000       -7.00526600000000       -1.47499200000000
C           94.88905199999999       -5.69927600000000       -0.96407300000000
C           94.77768700000000       -5.48199100000000        0.52283700000000
C           93.78227300000000       -2.51270200000000       -1.13534600000000
C           92.49013600000001       -3.06108000000000       -1.56144500000000
C           91.55493800000001       -2.20030300000000       -1.21787300000000
N           93.64488100000000       -1.36143300000000       -0.55100200000000
C           92.24268600000001       -1.09220500000000       -0.56473300000000
C           91.64768700000000       -0.01840400000000       -0.01745700000000
C           92.40493400000000        1.07691000000000        0.63483700000000
C           91.84864700000000        2.02706000000000        1.37617900000000
C           92.89762899999999        2.95127300000000        1.75485700000000
C           94.02900900000000        2.50607900000000        1.22172100000000
N           93.80870700000000        1.29950500000000        0.48828600000000
C           95.33069300000000        3.21514300000000        1.31990100000000
C           95.34117199999999        4.61224700000000        1.83118800000000
C           95.10250199999999        5.69156300000000        0.94848000000000
C           94.83477499999999        5.45361400000000       -0.51523000000000
C           95.10579799999999        7.00456000000000        1.44316900000000
C           95.34454800000000        7.25815900000000        2.79817400000000
C           95.37012199999999        8.67366300000000        3.29594200000000
C           95.59366900000001        6.19035200000000        3.66901500000000
C           95.58296999999999        4.86706400000000        3.20220400000000
C           95.84404699999999        3.74057600000000        4.16876700000000
C           96.49236799999998        2.63757200000000        0.96461500000000
C           97.81236599999998        3.26019600000000        1.03149300000000
C           98.67350600000000        2.33427600000000        0.65741100000000
C           97.91134699999999        1.12617800000000        0.34434500000000
N           96.63806800000000        1.29105400000000        0.52064700000000
H           99.62514599999999       -0.16764400000000       -0.08106400000000
H           99.57965999999999       -2.66841700000000       -0.90477200000000
H           97.74740099999998       -4.32885100000000       -1.56869400000000
H           96.20295200000000       -3.15909200000000       -4.03038500000000
H           94.40129800000000       -2.99498400000000       -4.09661100000000
H           95.25585599999999       -4.05288700000000       -5.27080400000000
H           95.12980599999999       -6.34271200000000       -4.79570900000000
H           95.28895799999999       -9.36391800000000       -2.65693600000000
H           93.80227700000000       -8.89714500000000       -3.57562100000000
H           95.43700100000000       -8.73444400000000       -4.33256900000000
H           94.72288000000000       -7.84542600000000       -0.80085700000000
H           93.86269200000000       -4.89486200000000        0.74774400000000
H           94.71882900000000       -6.44295800000000        1.07615000000000
H           95.66698400000000       -4.92833500000000        0.89058700000000
H           92.31448399999998       -4.00167300000000       -2.06683300000000
H           90.49475599999998       -2.32359500000000       -1.39525300000000
H           90.80303800000000        2.11967500000000        1.63664200000000
H           92.77028599999998        3.85131100000000        2.34230000000000
H           95.66987399999999        4.87442900000000       -0.96301900000000
H           94.73895100000000        6.40714800000000       -1.07649900000000
H           93.88921300000000        4.88426600000000       -0.63438100000000
H           94.92403899999999        7.83681300000000        0.77282600000000
H           94.46917199999999        9.21680600000000        2.93789700000000
H           95.37924200000000        8.71419800000000        4.40656300000000
H           96.27871800000000        9.18456900000000        2.91213700000000
H           95.79252700000001        6.39067500000000        4.71523700000000
H           96.79855000000001        3.23769200000000        3.90861800000000
H           95.01648299999998        3.00204900000000        4.12152700000000
H           95.91679300000000        4.10449200000000        5.21563000000000
H           98.06020599999999        4.26931100000000        1.33428100000000
H           99.74672800000000        2.45970900000000        0.60008600000000
C           54.08161400000000       -0.01730200000000       -0.00896700000000
C           52.87267499999999       -0.03075700000000       -0.01741400000000
C           51.45114600000000       -0.02193800000000       -0.02939700000000
C           50.23947600000000       -0.01449900000000       -0.01853400000000
C           55.49821799999999       -0.02397700000000       -0.00843400000000
C           56.71891400000000       -0.01449900000000       -0.01853400000000
C           70.27960899999999       -0.01730200000000       -0.00896700000000
C           69.07066999999999       -0.03075700000000       -0.01741400000000
C           67.64914100000000       -0.02193800000000       -0.02939700000000
C           66.43747200000000       -0.01449900000000       -0.01853400000000
C           71.69621399999998       -0.02397700000000       -0.00843400000000
C           72.91691000000000       -0.01449900000000       -0.01853400000000
C           86.47760500000000       -0.01730200000000       -0.00896700000000
C           85.26866600000000       -0.03075700000000       -0.01741400000000
C           83.84713699999999       -0.02193800000000       -0.02939700000000
C           82.63546699999999       -0.01449900000000       -0.01853400000000
C           87.89420900000000       -0.02397700000000       -0.00843400000000
C           89.11490499999999       -0.01449900000000       -0.01853400000000
Cu          61.56970599999999       -0.03648000000000       -0.00510900000000
C           58.12384699999999        0.02044400000000        0.01998100000000
C           58.78236800000000        0.18225300000000        1.18273100000000
C           58.14059399999999        0.41653500000000        2.47866200000000
C           59.08066000000000        0.49193900000000        3.39815500000000
C           60.38020800000000        0.31146400000000        2.74533700000000
N           60.20184000000000        0.11850300000000        1.34058300000000
C           61.56522000000000        0.30463300000000        3.38823100000000
C           61.58947000000000        0.47657100000000        4.86489600000000
C           61.74603699999999        1.76584600000000        5.42615700000000
C           61.90697600000000        2.98121200000000        4.54964900000000
C           61.77537099999999        1.91457900000000        6.82116700000000
C           61.62742999999999        0.80536700000000        7.66243300000000
C           61.69072400000000        0.97290200000000        9.15250100000000
C           61.48936599999999       -0.47140900000000        7.10584800000000
C           61.47044800000000       -0.64921700000000        5.71404700000000
C           61.30570200000000       -2.03612100000000        5.14848900000000
C           62.86966200000000        0.13583300000000        2.70150600000000
C           64.14645899999999       -0.00725000000000        3.41057200000000
C           65.10154199999999       -0.08693500000000        2.50787000000000
N           63.03480399999999        0.14523300000000        1.41487700000000
C           64.44146499999999        0.00640900000000        1.21164000000000
C           65.06066700000000        0.02044400000000        0.01998100000000
C           64.32228900000000        0.11211500000000       -1.26032200000000
C           64.89025100000001        0.36579500000000       -2.43244900000000
C           63.85656899999999        0.26868500000000       -3.44278200000000
C           62.72374700000000       -0.03614300000000       -2.82151700000000
N           62.92631200000000       -0.14890700000000       -1.41282900000000
C           61.44510300000000       -0.32367800000000       -3.51549600000000
C           61.47729300000000       -0.57054300000000       -4.98226500000000
C           61.23005799999999        0.48817700000000       -5.88847400000000
C           60.92687999999999        1.87966700000000       -5.39549500000000
C           61.26836699999999        0.24066700000000       -7.26917600000000
C           61.54545499999999       -1.04089100000000       -7.75900900000000
C           61.62984999999999       -1.28124300000000       -9.23775500000000
C           61.81499399999999       -2.08107100000000       -6.86208100000000
C           61.77136800000000       -1.86321600000000       -5.47663100000000
C           62.06635799999999       -3.00625700000000       -4.53975400000000
C           60.26913900000000       -0.38381600000000       -2.86392100000000
C           58.97759700000000       -0.67680900000000       -3.47467300000000
C           58.08626100000000       -0.57654100000000       -2.51087000000000
C           58.79791099999999       -0.22313900000000       -1.27714400000000
N           60.07533000000000       -0.10985500000000       -1.47674300000000
H           57.08225699999999        0.51131900000000        2.68154000000000
H           58.89696600000000        0.65640500000000        4.45211600000000
H           62.86245300000000        2.91216000000000        3.98939000000000
H           61.91802300000000        3.91840800000000        5.14521500000000
H           61.06439200000000        3.04464000000000        3.82985400000000
H           61.91108500000000        2.89792900000000        7.25634100000000
H           62.73586300000000        0.82581200000000        9.49615400000000
H           61.03515300000000        0.23075100000000        9.65602100000000
H           61.35082400000000        1.98744300000000        9.45150500000000
H           61.39868899999999       -1.32944800000000        7.76168100000000
H           60.32989800000000       -2.11181700000000        4.62499000000000
H           62.12431100000000       -2.25338100000000        4.43090000000000
H           61.33573000000000       -2.81066100000000        5.94414100000000
H           64.29902500000000       -0.04003100000000        4.48146200000000
H           66.15724100000000       -0.19427400000000        2.71907900000000
H           65.93518299999999        0.57625600000000       -2.61628300000000
H           63.99680400000000        0.38644500000000       -4.50944100000000
H           59.97668100000000        1.87538000000000       -4.82166500000000
H           60.82163500000000        2.60026800000000       -6.23440300000000
H           61.74898600000000        2.23526600000000       -4.73927500000000
H           61.08624700000000        1.04856400000000       -7.96830800000000
H           61.32005900000000       -2.31947400000000       -9.48354400000000
H           62.67470999999999       -1.12480000000000       -9.57834800000000
H           60.96124000000000       -0.58533600000000       -9.78841300000000
H           62.05852800000000       -3.06465100000000       -7.24688100000000
H           62.14868199999999       -3.97173200000000       -5.08293500000000
H           61.25119200000000       -3.10653400000000       -3.79278200000000
H           63.02546799999999       -2.81826000000000       -4.01372000000000
H           58.76647400000000       -0.92119700000000       -4.50770700000000
H           57.02326000000000       -0.73292500000000       -2.63494600000000
Cu          77.76770100000000       -0.03648000000000       -0.00510900000000
C           74.32184200000000        0.02044400000000        0.01998100000000
C           74.98036399999999        0.18225300000000        1.18273100000000
C           74.33858899999998        0.41653500000000        2.47866200000000
C           75.27865600000000        0.49193900000000        3.39815500000000
C           76.57820400000000        0.31146400000000        2.74533700000000
N           76.39983599999999        0.11850300000000        1.34058300000000
C           77.76321500000000        0.30463300000000        3.38823100000000
C           77.78746500000000        0.47657100000000        4.86489600000000
C           77.94403299999999        1.76584600000000        5.42615700000000
C           78.10497100000001        2.98121200000000        4.54964900000000
C           77.97336600000000        1.91457900000000        6.82116700000000
C           77.82542500000000        0.80536700000000        7.66243300000000
C           77.88871899999999        0.97290200000000        9.15250100000000
C           77.68736100000000       -0.47140900000000        7.10584800000000
C           77.66844299999998       -0.64921700000000        5.71404700000000
C           77.50369800000000       -2.03612100000000        5.14848900000000
C           79.06765799999999        0.13583300000000        2.70150600000000
C           80.34445399999998       -0.00725000000000        3.41057200000000
C           81.29953700000000       -0.08693500000000        2.50787000000000
N           79.23280000000000        0.14523300000000        1.41487700000000
C           80.63945999999999        0.00640900000000        1.21164000000000
C           81.25866200000000        0.02044400000000        0.01998100000000
C           80.52028399999999        0.11211500000000       -1.26032200000000
C           81.08824700000000        0.36579500000000       -2.43244900000000
C           80.05456400000000        0.26868500000000       -3.44278200000000
C           78.92174299999999       -0.03614300000000       -2.82151700000000
N           79.12430699999999       -0.14890700000000       -1.41282900000000
C           77.64309799999999       -0.32367800000000       -3.51549600000000
C           77.67528799999999       -0.57054300000000       -4.98226500000000
C           77.42805300000001        0.48817700000000       -5.88847400000000
C           77.12487499999999        1.87966700000000       -5.39549500000000
C           77.46636200000000        0.24066700000000       -7.26917600000000
C           77.74345099999999       -1.04089100000000       -7.75900900000000
C           77.82784500000000       -1.28124300000000       -9.23775500000000
C           78.01299000000000       -2.08107100000000       -6.86208100000000
C           77.96936300000000       -1.86321600000000       -5.47663100000000
C           78.26435400000000       -3.00625700000000       -4.53975400000000
C           76.46713500000000       -0.38381600000000       -2.86392100000000
C           75.17559299999999       -0.67680900000000       -3.47467300000000
C           74.28425600000000       -0.57654100000000       -2.51087000000000
C           74.99590599999999       -0.22313900000000       -1.27714400000000
N           76.27332599999998       -0.10985500000000       -1.47674300000000
H           73.28025199999999        0.51131900000000        2.68154000000000
H           75.09496200000000        0.65640500000000        4.45211600000000
H           79.06044799999999        2.91216000000000        3.98939000000000
H           78.11601800000000        3.91840800000000        5.14521500000000
H           77.26238800000000        3.04464000000000        3.82985400000000
H           78.10908100000000        2.89792900000000        7.25634100000000
H           78.93385800000000        0.82581200000000        9.49615400000000
H           77.23314800000000        0.23075100000000        9.65602100000000
H           77.54881999999999        1.98744300000000        9.45150500000000
H           77.59668499999998       -1.32944800000000        7.76168100000000
H           76.52789299999999       -2.11181700000000        4.62499000000000
H           78.32230600000000       -2.25338100000000        4.43090000000000
H           77.53372500000000       -2.81066100000000        5.94414100000000
H           80.49702100000000       -0.04003100000000        4.48146200000000
H           82.35523600000000       -0.19427400000000        2.71907900000000
H           82.13317800000000        0.57625600000000       -2.61628300000000
H           80.19479899999999        0.38644500000000       -4.50944100000000
H           76.17467599999999        1.87538000000000       -4.82166500000000
H           77.01962999999999        2.60026800000000       -6.23440300000000
H           77.94698099999999        2.23526600000000       -4.73927500000000
H           77.28424300000000        1.04856400000000       -7.96830800000000
H           77.51805500000000       -2.31947400000000       -9.48354400000000
H           78.87270499999998       -1.12480000000000       -9.57834800000000
H           77.15923600000001       -0.58533600000000       -9.78841300000000
H           78.25652300000000       -3.06465100000000       -7.24688100000000
H           78.34667700000000       -3.97173200000000       -5.08293500000000
H           77.44918699999999       -3.10653400000000       -3.79278200000000
H           79.22346300000000       -2.81826000000000       -4.01372000000000
H           74.96447000000001       -0.92119700000000       -4.50770700000000
H           73.22125500000000       -0.73292500000000       -2.63494600000000
312
 energy: -493.571626482833 gnorm: 0.332568128349 xtb: 6.5.1 (b24c23e)
Cu          44.18873636291737       -0.01874449466886       -0.01875724704149
C           40.80919001012949        0.09004689629241        0.00914336073751
C           41.48362698267720        1.16026201287123        0.49626570526522
C           40.83616493270943        2.33472075210043        1.05555221829084
C           41.79489509460573        3.19650429726289        1.40435307481919
C           43.08398617267165        2.59316550935480        1.07265754319441
N           42.87647492123997        1.32240959078403        0.50982458334188
C           44.29504863808630        3.19456342354742        1.25443331288763
C           44.32971515582098        4.56884259465792        1.83693793270828
C           44.23906195616995        5.69708351267810        0.99794418622056
C           44.10089918788169        5.54389668108102       -0.49795214060466
C           44.28043082016892        6.97550212344025        1.55793463038492
C           44.40426201420428        7.15065139172377        2.93602971967698
C           44.48404074854037        8.53433493810395        3.52176132796863
C           44.50730888959827        6.03100889041625        3.76121114942262
C           44.46367529290759        4.74088358610791        3.22888121827511
C           44.57336683260063        3.55077452071805        4.15178218593741
C           45.56420990216056        2.57258155595679        0.91085387163507
C           46.84706394855685        3.25693975300008        0.98116612450375
C           47.79557340222892        2.37882276532630        0.62421920352056
N           45.72401611386194        1.32023598536264        0.52410073508761
C           47.12459397363989        1.12743391012131        0.32777851194516
C           47.70673683422294       -0.03958079124168       -0.01952583858498
C           46.94828485161558       -1.24498911874908       -0.30888528966942
C           47.50919914050883       -2.48482713396795       -0.43502337000908
C           46.48096284944116       -3.39180641124251       -0.79460105123552
C           45.31532671609454       -2.68169110146140       -0.87450959481375
N           45.55426749096109       -1.32337473568178       -0.56504617194815
C           44.04085558817191       -3.26825749671709       -1.28727657813886
C           44.02238179053396       -4.64099623483911       -1.88732260917841
C           44.25085851993927       -4.81045238086380       -3.26860038977818
C           44.51596279713971       -3.62271478644845       -4.16194460853320
C           44.24398520913228       -6.09491401040031       -3.81768966394039
C           44.00462168272887       -7.21483673277709       -3.02116693930103
C           43.98269962288062       -8.58485848271110       -3.64371371104471
C           43.75947590804699       -7.04354244667795       -1.65928901234723
C           43.77041265875766       -5.77103716300884       -1.08161689599414
C           43.50890749078208       -5.62705884968964        0.39855846219534
C           42.86121153981242       -2.61218548274652       -1.14765711287558
C           41.54856700699038       -3.10787041072106       -1.52714406742410
C           40.66612441482035       -2.17030700698498       -1.15314257382943
C           41.41741276680805       -1.08647816153474       -0.54431384952669
N           42.71075768638711       -1.34425169776368       -0.54345068445694
H           39.72645924873894        0.12471863494288        0.03474996302453
H           39.77294623987799        2.49594500344738        1.17163433995480
H           41.62094926304672        4.16695291831680        1.84749854620222
H           43.15943133476426        5.02777348793615       -0.73888153398437
H           44.94003096020246        4.95568574270119       -0.89830635306471
H           44.09560324400920        6.51975375857329       -1.00637694849747
H           44.22083279323899        7.84863503737188        0.91453888211785
H           44.06909673342687        8.55337163076029        4.54001601696428
H           45.53729272763389        8.85243496821048        3.56342969480719
H           43.92219737931459        9.25350290771913        2.90821073921756
H           44.62681236104795        6.16946722576374        4.83196903573245
H           45.47829982330473        2.97214994953857        3.91275130377316
H           44.63222065231330        3.85949797435528        5.20626364756534
H           43.69503805698878        2.89823714057966        4.03669648623142
H           47.02338456642475        4.28161691354902        1.26534183564507
H           48.85558260213072        2.58353584443406        0.57975750914951
H           48.55215953553078       -2.71728698133252       -0.30510093456633
H           46.59128258318232       -4.44635457777303       -0.99140989797978
H           43.69190002304409       -2.89758767959044       -4.08616605629032
H           44.61129837145828       -3.92121550838775       -5.21680758448870
H           45.45182690752394       -3.12946366090743       -3.85944229036792
H           44.42690092588090       -6.23066003349979       -4.88032345214395
H           44.87189634286418       -8.72903048283821       -4.27561426359740
H           43.97102706560503       -9.37477498004314       -2.87853867315450
H           43.08361785582215       -8.68985050856013       -4.27057995630913
H           43.56058242181403       -7.91433187858782       -1.04080884196338
H           42.56369262105871       -5.08813875560173        0.56250856236383