209
 energy: -327.406779949015 gnorm: 37.725251159875 xtb: 6.5.1 (b24c23e)
Cu          33.20638700000000        1.97203400000000        1.62137700000000
C           29.45529500000000        0.07855000000000       -0.03826300000000
C           30.10492800000000        0.93175200000000        0.75884500000000
C           29.44022100000000        1.85039100000000        1.67518500000000
C           30.37042700000000        2.56354900000000        2.28245000000000
C           31.68265800000000        2.14256000000000        1.77233500000000
N           31.52085900000000        1.09838300000000        0.81144400000000
C           32.86807000000000        2.67284900000000        2.13891500000000
C           32.90193300000000        3.78633200000000        3.11480600000000
C           32.41413200000000        5.05343800000000        2.76413600000000
C           32.46233100000000        6.10529100000000        3.68284400000000
C           33.00338700000000        5.91084000000000        4.96362500000000
N           33.03984200000000        7.01416200000000        5.88762000000000
C           33.58125500000000        6.91661600000000        7.23914100000000
C           33.49880800000000        4.63856100000000        5.30911300000000
C           33.44920700000000        3.58679200000000        4.38972900000000
C           34.16720900000000        2.19432900000000        1.59730200000000
C           35.44401200000000        2.88841200000000        1.80511800000000
C           36.38846500000000        2.17867600000000        1.22184800000000
N           34.32336800000000        1.10469100000000        0.90979500000000
C           35.72147500000000        1.02415700000000        0.63259900000000
C           36.32825700000000        0.01278500000000       -0.00962700000000
C           35.57763700000000       -1.12069100000000       -0.59412000000000
C           36.11937000000000       -2.28811700000000       -0.91750900000000
C           35.08730400000000       -3.07941000000000       -1.55892800000000
C           33.98434399999999       -2.34033600000000       -1.58922300000000
N           34.20401099999999       -1.06733100000000       -0.97954200000000
C           32.71379000000000       -2.75601200000000       -2.23684400000000
C           32.75234300000000       -3.85703900000000       -3.23005600000000
C           33.49805900000000       -3.71366300000000       -4.40871900000000
C           33.55509100000000       -4.75446300000000       -5.34006800000000
C           32.86920300000000       -5.96122600000000       -5.10284900000000
N           32.90794400000000       -7.05157400000000       -6.04203300000000
C           33.64466900000000       -7.00592700000000       -7.30075100000000
C           32.13163400000000       -6.10233000000000       -3.91687700000000
C           32.07592900000000       -5.06160500000000       -2.98603100000000
C           31.54502600000000       -2.15374200000000       -1.94446700000000
C           30.24465000000000       -2.45051200000000       -2.54301700000000
C           29.37235200000000       -1.67425700000000       -1.92945200000000
C           30.10710500000000       -0.87355300000000       -0.95153700000000
N           31.37398600000000       -1.14457100000000       -0.95142800000000
H           28.37169600000000        0.08152800000000       -0.01979400000000
H           28.37478100000000        1.93983600000000        1.84426900000000
H           30.17106200000000        3.32255500000000        3.02753200000000
H           31.99840300000000        5.22548500000000        1.77881900000000
H           32.07854800000000        7.07585100000000        3.39455600000000
H           32.66026300000000        7.93990400000000        5.58440600000000
H           34.65356899999999        6.63181600000000        7.19736600000000
H           33.01125300000000        6.16244600000000        7.82140100000000
H           33.49528300000000        7.89825200000000        7.75121300000000
H           33.92531999999999        4.45066500000000        6.28487300000000
H           33.83630500000000        2.61501800000000        4.67123600000000
H           35.60386800000000        3.81731500000000        2.33661800000000
H           37.44063900000000        2.42962600000000        1.20254200000000
H           37.14609800000000       -2.59087400000000       -0.76127400000000
H           35.20662299999999       -4.07697600000000       -1.96143900000000
H           34.03312099999999       -2.79293600000000       -4.60731800000000
H           34.13644400000000       -4.60944200000000       -6.24024900000000
H           32.38292700000000       -7.92809800000000       -5.82053500000000
H           33.25629800000000       -6.18282300000000       -7.93665600000000
H           33.51813400000000       -7.96483400000000       -7.84638000000000
H           34.72593699999999       -6.85243100000000       -7.10074700000000
H           31.60037300000000       -7.02318200000000       -3.71144800000000
H           31.50885100000000       -5.19502300000000       -2.07284700000000
H           30.01433500000000       -3.15613900000000       -3.33029400000000
H           28.30912400000000       -1.64252400000000       -2.12814100000000
Cu          65.80343800000000       -2.00642600000000       -1.56578300000000
C           69.55452900000000        0.02638100000000       -0.08005600000000
C           68.90489599999999       -0.93768800000000       -0.73877100000000
C           69.56960300000000       -2.03239500000000       -1.43532900000000
C           68.63939699999999       -2.78063800000000       -1.99879900000000
C           67.32716600000001       -2.19095500000000       -1.69926000000000
N           67.48896499999999       -1.02537900000000       -0.88991000000000
C           66.14175400000001       -2.66441000000000       -2.13678400000000
C           66.10789100000000       -3.85974800000000       -3.01049800000000
C           66.59569200000000       -3.79401000000000       -4.32358800000000
C           66.54749400000000       -4.92009500000000       -5.14963400000000
C           66.00643700000001       -6.12758600000000       -4.68040300000000
N           65.96998200000000       -7.27005900000000       -5.55552400000000
C           65.42856900000000       -8.56773100000000       -5.16542800000000
C           65.51101600000000       -6.18713800000000       -3.36339500000000
C           65.56061699999999       -5.06041200000000       -2.53757900000000
C           64.84261500000000       -2.03143600000000       -1.78797500000000
C           63.56581199999999       -2.38569300000000       -2.41998800000000
C           62.62135900000000       -1.66161300000000       -1.85462300000000
N           64.68645600000001       -1.12273700000000       -0.87460600000000
C           63.28834899999999       -0.83464800000000       -0.85649700000000
C           62.68156700000000        0.01278500000000       -0.00962700000000
C           63.43218700000000        0.83051700000000        0.96900100000000
C           62.89045400000000        1.40084600000000        2.03773300000000
C           63.92251999999999        2.19946900000000        2.67000200000000
C           65.02548000000000        2.06776800000000        1.94212600000000
N           64.80581300000000        1.19501000000000        0.83282800000000
C           66.29603400000001        2.79048500000000        2.20647600000000
C           66.25748100000000        4.00000800000000        3.06425500000000
C           65.51176500000000        5.11898500000000        2.66715000000000
C           65.45473300000000        6.25499500000000        3.47965100000000
C           66.14062100000000        6.28680700000000        4.70909700000000
N           66.10187999999999        7.44127300000000        5.56824300000000
C           65.36515500000000        8.65970200000000        5.24904500000000
C           66.87819100000000        5.16020100000000        5.10558000000000
C           66.93389500000001        4.02469800000000        4.29304100000000
C           67.46479800000000        2.37373800000000        1.68251400000000
C           68.76517399999999        3.02262100000000        1.84153000000000
C           69.63747200000000        2.25446200000000        1.21785900000000
C           68.90271900000000        1.12539700000000        0.64983000000000
N           67.63583800000001        1.18442700000000        0.91434100000000
H           70.63812799999999        0.00770700000000       -0.07893300000000
H           70.63504300000000       -2.21692100000000       -1.48572500000000
H           68.83876200000000       -3.67338200000000       -2.57693900000000
H           67.01142100000000       -2.86997600000000       -4.70648600000000
H           66.93127600000000       -4.85052800000000       -6.15971300000000
H           66.34956099999999       -7.17614900000000       -6.52512200000000
H           64.35625500000000       -8.46481900000000       -4.89660600000000
H           65.99857100000000       -8.97140100000000       -4.30238200000000
H           65.51454099999999       -9.28165600000000       -6.01167700000000
H           65.08450400000000       -7.09838700000000       -2.96711700000000
H           65.17351900000000       -5.12309500000000       -1.52779600000000
H           63.40595600000000       -3.10707200000000       -3.21053500000000
H           61.56918500000000       -1.69752900000000       -2.10373800000000
H           61.86372600000000        1.31443700000000        2.36728500000000
H           63.80320199999999        2.80994900000000        3.55570300000000
H           64.97670300000000        5.11189700000000        1.72527400000000
H           64.87338000000000        7.10184200000000        3.14170500000000
H           66.62689700000000        7.41637000000000        6.47197700000000
H           65.75352599999999        9.10068400000000        4.30702000000000
H           65.49169000000001        9.40141600000000        6.06579000000000
H           64.28388699999999        8.43102500000000        5.14288700000000
H           67.40945100000000        5.16065100000000        6.04906800000000
H           67.50097400000000        3.16263100000000        4.62250100000000
H           68.99548900000001        3.94489400000000        2.35837100000000
H           70.70070000000000        2.44143900000000        1.14353700000000
C           42.34011000000000        0.01409700000000       -0.00119500000000
C           41.13116999999999        0.00064200000000       -0.00964200000000
C           39.70964100000000        0.00946100000000       -0.02162500000000
C           38.49797199999999        0.01690000000000       -0.01076200000000
C           43.75671400000000        0.00742200000000       -0.00066200000000
C           44.97741000000000        0.01690000000000       -0.01076200000000
C           57.87755500000000        0.01409700000000       -0.00119500000000
C           56.66861599999999        0.00064200000000       -0.00964200000000
C           55.24708700000000        0.00946100000000       -0.02162500000000
C           54.03541700000000        0.01690000000000       -0.01076200000000
C           59.29415899999999        0.00742200000000       -0.00066200000000
C           60.51485500000000        0.01690000000000       -0.01076200000000
Cu          49.83104899999999       -2.03298000000000       -1.58617900000000
C           46.06739700000000       -0.02908300000000        0.02153800000000
C           46.72435899999999       -0.98766300000000       -0.65687200000000
C           46.08267200000000       -2.09358400000000       -1.37152800000000
C           47.02164100000000       -2.80403500000000       -1.96395400000000
C           48.32083900000000       -2.19668100000000       -1.66060600000000
N           48.14249600000000       -1.04819300000000       -0.82862000000000
C           49.50451700000000       -2.63871800000000       -2.13216400000000
C           49.53092500000000       -3.81079000000000       -3.03184000000000
C           49.61542300000000       -5.10427400000000       -2.50083200000000
C           49.64532800000000       -6.21207500000000       -3.35229300000000
C           49.59388400000000       -6.04396800000000       -4.74564600000000
N           49.62572800000000       -7.20478100000000       -5.59669700000000
C           49.57591200000000       -7.13736400000000       -7.05344200000000
C           49.51232899999999       -4.74007300000000       -5.27350500000000
C           49.48098900000000       -3.63291600000000       -4.42069400000000
C           50.80494299999999       -2.00817300000000       -1.79557700000000
C           52.07937100000000       -2.38084300000000       -2.42226200000000
C           53.03243600000000       -1.67508800000000       -1.84859000000000
N           50.97104999999999       -1.11235400000000       -0.87300900000000
C           52.37345400000000       -0.84713100000000       -0.84652800000000
C           52.98858400000000       -0.02908300000000        0.02153800000000
C           52.23984299999999        0.77328100000000        1.01242600000000
C           52.77706299999999        1.31511500000000        2.09814300000000
C           51.74403400000000        2.10385600000000        2.74053100000000
C           50.64610200000000        1.99260000000000        2.00159800000000
N           50.86872400000000        1.14567000000000        0.87495600000000
C           49.38663799999999        2.73232000000000        2.25602700000000
C           49.44482900000000        3.95861400000000        3.08808400000000
C           48.78503500000000        4.01247700000000        4.32466000000000
C           48.85534000000000        5.16486300000000        5.11297300000000
C           49.59330199999999        6.28233900000000        4.67712300000000
N           49.68297999999999        7.48491800000000        5.46366300000000
C           49.03865200000000        7.64881900000000        6.76260400000000
C           50.25922700000000        6.21801800000000        3.44319000000000
C           50.18976399999999        5.06495200000000        2.65680200000000
C           48.21201500000000        2.32590000000000        1.73706300000000
C           46.93200800000000        3.01309500000000        1.87345400000000
C           46.04326700000000        2.25653100000000        1.26333300000000
C           46.74404600000000        1.08410900000000        0.72791000000000
N           48.01227099999999        1.12021800000000        0.99868300000000
H           45.02498100000000       -2.31390200000000       -1.42884000000000
H           46.83691100000000       -3.68178300000000       -2.56980900000000
H           49.65712099999999       -5.25368200000000       -1.42857400000000
H           49.70876200000000       -7.20483100000000       -2.92419200000000
H           49.68789000000000       -8.15146700000000       -5.15838800000000
H           48.63278500000000       -6.64913800000000       -7.37787500000000
H           50.44853200000000       -6.56679700000000       -7.43566900000000
H           49.60900800000000       -8.16267500000000       -7.47926700000000
H           49.47284400000000       -4.56978300000000       -6.34075400000000
H           49.41966600000000       -2.63652700000000       -4.84174200000000
H           52.23287899999999       -3.10691500000000       -3.20951400000000
H           54.08585600000000       -1.73061200000000       -2.08823900000000
H           53.80081599999999        1.21569500000000        2.43302500000000
H           51.86084800000000        2.70076000000000        3.63566900000000
H           48.21896000000000        3.15955600000000        4.67893600000000
H           48.33383600000000        5.17436200000000        6.06009300000000
H           50.23551899999999        8.29079800000000        5.09246100000000
H           49.42749400000000        6.89190800000000        7.47567600000000
H           49.25496900000000        8.66060300000000        7.16625700000000
H           47.93926699999999        7.53872900000000        6.65562400000000
H           50.83537600000000        7.06384700000000        3.08915300000000
H           50.71234900000000        5.03593800000000        1.70837000000000
H           46.72595499999999        3.95627800000000        2.36200400000000
H           44.99017400000000        2.48738700000000        1.17793900000000
209
 energy: -344.951839806126 gnorm: 8.345528250061 xtb: 6.5.1 (b24c23e)
Cu          33.15261151184591        1.82916681626106        1.53840084051588
C           29.45530956894583        0.07787188370065       -0.03891160501780
C           30.10535023482246        0.93208744881201        0.75917089236775
C           29.43991293160961        1.84996956291968        1.67480613358480
C           30.37070044361900        2.56368600741851        2.28263958225939
C           31.67386560328074        2.14234004899651        1.77252782908586
N           31.51949474368156        1.09855889353408        0.81154402719726
C           32.81012078028692        2.79211654003492        2.22747051598896
C           32.90153930635154        3.78733388916426        3.11539574950503
C           32.41413639173219        5.05367780881701        2.76438464156906
C           32.46233639648334        6.10516783256175        3.68277966767773
C           33.00341800722796        5.91122859308479        4.96400288685348
N           33.03971370314877        7.01405122924980        5.88719211070790
C           33.58126067469172        6.91660229843142        7.23914308952995
C           33.49876349790696        4.63852100435953        5.30900197144845
C           33.44918562461571        3.58703321175352        4.38988312710617
C           34.28430269774091        2.22124364065815        1.59438001566886
C           35.44469521350514        2.88891633767974        1.80534024760654
C           36.38879322673547        2.17824163384601        1.22152434465980
N           34.32728789651259        1.10093844981738        0.90668131098298
C           35.72172822382641        1.02425472268996        0.63266003297742
C           36.32867398772179        0.01200275897740       -0.01001930136462
C           35.57743714869997       -1.11943118989449       -0.59380138570097
C           36.11944751877162       -2.28939408916379       -0.91806021485137
C           35.08860930139844       -3.07969290397828       -1.55869271448018
C           33.98337680836038       -2.33938476226224       -1.58918885470317
N           34.20425684045009       -1.06778033695202       -0.97970050468095
C           32.71438438445233       -2.75590183898714       -2.23665300859879
C           32.75241451940867       -3.85704241417327       -3.23000195104535
C           33.49800745267136       -3.71387651414514       -4.40874156173620
C           33.55502450996271       -4.75445296989769       -5.33995824841227
C           32.86924141169700       -5.96153486739192       -5.10316441830277
N           32.90776797796622       -7.05150224120526       -6.04166612907628
C           33.64466651683323       -7.00591589880153       -7.30073625905440
C           32.13166570761900       -6.10222011382607       -3.91684824194175
C           32.07598567294624       -5.06164145007550       -2.98623182315148
C           31.54473133716337       -2.15346802003345       -1.94425180435168
C           30.24497724827487       -2.45071250788069       -2.54315147080047
C           29.37194933530256       -1.67396795277083       -1.92923320904470
C           30.10648669997123       -0.87319980313912       -0.95123425689052
N           31.37426568819528       -1.14495870924127       -0.95177560521618
H           28.37168695771348        0.08151824809630       -0.01982581847688
H           28.37479632989568        1.93977546335958        1.84420843687696
H           30.17119201751772        3.32256855425952        3.02752588697198
H           31.99840528593742        5.22546940749645        1.77881727374406
H           32.07854980102808        7.07586464158066        3.39456430685119
H           32.66041566111922        7.93949400532389        5.58449947291444
H           34.65342807986516        6.63183961733539        7.19739977278027
H           33.01135163510004        6.16253751403237        7.82134346241409
H           33.49528015911277        7.89809586280938        7.75108806161762
H           33.92532137539214        4.45067926248462        6.28488527386370
H           33.83630379205115        2.61500621110203        4.67122800809891
H           35.60376954231275        3.81734616212362        2.33665997675239
H           37.44062929264931        2.42953744585221        1.20248518749388
H           37.14608524943348       -2.59089166286075       -0.76127428201346
H           35.20664921536267       -4.07697178119690       -1.96141104181275
H           34.03311547225177       -2.79293632248543       -4.60730836851485
H           34.13644527524943       -4.60945847324840       -6.24026997605645
H           32.38314015672213       -7.92770739028969       -5.82059703067694
H           33.25637720005323       -6.18292357526305       -7.93659148451209
H           33.51813306335526       -7.96468320029644       -7.84625766856017
H           34.72580468432675       -6.85243562970010       -7.10080293219334
H           31.60037290310476       -7.02320400557539       -3.71145821408281
H           31.50885655701590       -5.19501321857212       -2.07284493937939
H           30.01442827758887       -3.15614225991873       -3.33028116199856
H           28.30911246148955       -1.64247126967980       -2.12809208749302
Cu          65.85721599856495       -1.89427149014102       -1.44445952732579
C           69.55451455927405        0.02716400730079       -0.07953443432391
C           68.90447259429986       -0.93808083477301       -0.73902798344440
C           69.56991137376814       -2.03193184021902       -1.43499943041684
C           68.63912172718885       -2.78085371808149       -1.99889164879304
C           67.33595897623222       -2.19109926928837       -1.69900706527970
N           67.49032853279761       -1.02551361316254       -0.89005923928103
C           66.19970587383474       -2.77685950190268       -2.23385738885739
C           66.10828357152283       -3.86053812807761       -3.01134454709675
C           66.59568787991375       -3.79430517468991       -4.32376888365904
C           66.54748842113727       -4.92000591893191       -5.14952766481529
C           66.00640641111946       -6.12803485426968       -4.68069544328399
N           65.97010907602389       -7.26962163844140       -5.55551339862902
C           65.42856487767160       -8.56772888916148       -5.16541455373022
C           65.51106083670901       -6.18702121735442       -3.36338147288700
C           65.56063836098828       -5.06061562156975       -2.53778029538205
C           64.72552224013027       -2.03445803794890       -1.81488063782496
C           63.56513406227727       -2.38602304091388       -2.42043343816216
C           62.62102901581886       -1.66119799177144       -1.85426560568687
N           64.68253146299962       -1.11887772138194       -0.87162129746125
C           63.28809422936335       -0.83473129022388       -0.85658250062565
C           62.68115485942463        0.01334416501986       -0.00894113371580
C           63.43238114222454        0.82992871136880        0.96783978595807
C           62.89037637195138        1.40166373858164        2.03886085034514
C           63.92121187251795        2.19929998961626        2.67032953012830
C           65.02644902088674        2.06752605417794        1.94120236075463
N           64.80557161286183        1.19526416353831        0.83323207586695
C           66.29543878425864        2.79027620465513        2.20641140442364
C           66.25740947785852        3.99995535065840        3.06426982264496
C           65.51181539356504        5.11905502098136        2.66735374232834
C           65.45479911339665        6.25488500584850        3.47966345015759
C           66.14058222681365        6.28718633794419        4.70933301906152
N           66.10205684957286        7.44089604653403        5.56824986767629
C           65.36515595349215        8.65968610518822        5.24903719911529
C           66.87815992189823        5.16014756151133        5.10547875703111
C           66.93383928311736        4.02490241593110        4.29303353343701
C           67.46509317870215        2.37346636163769        1.68229251412414
C           68.76484718556861        3.02279579607760        1.84169619499211
C           69.63787466551670        2.25418581517228        1.21762503587111
C           68.90333868382285        1.12502346894643        0.64955066852624
N           67.63555707044394        1.18485149981911        0.91464406685262
H           70.63813703232438        0.00774015029493       -0.07893055843940
H           70.63502769989475       -2.21684873481516       -1.48567921679691
H           68.83863202430194       -3.67337925798585       -2.57695372727637
H           67.01141869014589       -2.86997106760626       -4.70647110807050
H           66.93127428791897       -4.85053924768436       -6.15972464362146
H           66.34940881947253       -7.17615103219130       -6.52470114336940
H           64.35639528449542       -8.46485738615988       -4.89662139693168
H           65.99847227424657       -8.97136500480869       -4.30248368149703
H           65.51454380246587       -9.28150034054920       -6.01155196487509
H           65.08450255847137       -7.09840248940074       -2.96712815139408
H           65.17352019705599       -5.12308461464232       -1.52778628109315
H           63.40605448950748       -3.10712037333136       -3.21055684740972
H           61.56919424378066       -1.69745405622918       -2.10366404856802
H           61.86373942331946        1.31444126029699        2.36730182488308
H           63.80317587129296        2.80992035152954        3.55570421012753
H           64.97670855076039        5.11188769056915        1.72527645774942
H           64.87337895215262        7.10186562478858        3.14171655706337
H           66.62668356735834        7.41634506479728        6.47158254602610
H           65.75344693053778        9.10064280735913        4.30713239803268
H           65.49169102060932        9.40126339429351        6.06566942273253
H           64.28401999222740        8.43108040693768        5.14287946890048
H           67.40945098826411        5.16066555928989        6.04908715270049
H           67.50096844076320        3.16262667359169        4.62249199148981
H           68.99539563038344        3.94488202104689        2.35837690351020
H           70.70071152104717        2.44137974527076        1.14349616048623
C           42.34124295365660        0.01409957444736       -0.00120037182186
C           41.13019345061929        0.00065392493381       -0.00965354900465
C           39.71015197675976        0.00945174149388       -0.02160821967274
C           38.49681844755585        0.01687672639571       -0.01077000850135
C           43.75498316156273        0.00744185373742       -0.00066313963133
C           44.96913482410207        0.01722780003648       -0.01091778659993
C           57.87850487136906        0.01408540080766       -0.00119745786715
C           56.66745037779999        0.00066033952745       -0.00966548954044
C           55.24928451823944        0.00947749831555       -0.02162298845572
C           54.04620732859214        0.01751272736499       -0.01089427102015
C           59.29391961259745        0.00743429561143       -0.00066404571453
C           60.51576352616315        0.01689932876336       -0.01074042018620
Cu          49.80655621497284       -1.88954897485605       -1.43119068215843
C           46.07539624337656       -0.02853678424303        0.02222992946155
C           46.72552522957753       -0.98857396202567       -0.65750798173906
C           46.08232128891571       -2.09295714653559       -1.37106787115687
C           47.02203985984078       -2.80424826254712       -1.96407807958578
C           48.31124827487461       -2.19681848818507       -1.65995252662608
N           48.14098696768510       -1.04831301207021       -0.82869023203875
C           49.42427652212850       -2.78797067864881       -2.26623104849181
C           49.53033087505624       -3.81187442656717       -3.03290633857189
C           49.61541145669615       -5.10449215838381       -2.50105044812321
C           49.64532405390213       -6.21195883610956       -3.35225161964728
C           49.59389058343623       -6.04437205813257       -4.74599441963177
N           49.62573877223778       -7.20464932865783       -5.59625348092052
C           49.57591055846770       -7.13734953347245       -7.05344796603584
C           49.51233007290937       -4.74003952217914       -5.27339184718664
C           49.48098731153841       -3.63322181153473       -4.42087445705754
C           50.91627852867486       -2.00537178855538       -1.81925758504042
C           52.07995910954659       -2.38112614519734       -2.42268653118674
C           53.03277904741797       -1.67458395324597       -1.84811495485457
N           50.97484630279153       -1.10867700661430       -0.87025816381877
C           52.37242390129816       -0.84785229614783       -0.84721301182627
C           52.97767991422192       -0.02886890774713        0.02257161807451
C           52.23871961255684        0.77311545299128        1.01170238918021
C           52.77716236673891        1.31581768544489        2.09917137254183
C           51.74527451919061        2.10370953140452        2.74086500028010
C           50.64515010528155        1.99243445394701        2.00069676662626
N           50.86906877355693        1.14584925157049        0.87540556069188
C           49.38721950853763        2.73209680476869        2.25594743134234
C           49.44488681683264        3.95856330529891        3.08811055957894