262
 energy: -480.824481909984 gnorm: 5.813180671978 xtb: 6.5.1 (b24c23e)
Cu          40.45808300000000       -0.02554100000000        0.00218000000000
C           37.09633000000000        0.10956600000000       -0.11684300000000
C           37.76239000000000        1.26325800000000       -0.01641100000000
C           37.11256400000000        2.56485700000000        0.07752000000000
C           38.05266800000000        3.47907600000000        0.22274300000000
C           39.35800300000000        2.80401000000000        0.22370400000000
N           39.18063200000000        1.39544300000000        0.06887000000000
C           40.54741700000000        3.41634700000000        0.39675700000000
C           40.58374899999999        4.88328900000000        0.58929500000000
C           40.83861099999999        5.42100400000000        1.85894400000000
C           40.87735399999999        6.80619700000000        2.04208900000000
C           40.65701000000000        7.67168500000000        0.95644600000000
C           40.69033500000000        9.13521000000000        1.13030700000000
O           40.92468400000000        9.65151200000000        2.25555800000000
C           40.40092400000000        7.12978000000000       -0.31275400000000
C           40.36690800000000        5.74453900000000       -0.49628700000000
C           41.84316000000000        2.68543000000000        0.41344300000000
C           43.13794300000000        3.32726900000000        0.67214500000000
C           44.07209700000000        2.40396800000000        0.57930900000000
N           41.98185600000000        1.41902100000000        0.16229400000000
C           43.38379300000000        1.16191100000000        0.25058500000000
C           43.97990600000000       -0.01678500000000        0.00326200000000
C           43.22501800000000       -1.24023800000000       -0.35518200000000
C           43.77864000000000       -2.32868100000000       -0.87517900000000
C           42.73467300000000       -3.32363000000000       -1.00889900000000
C           41.60996800000000       -2.77996000000000       -0.55992200000000
N           41.82848900000000       -1.43550800000000       -0.12575800000000
C           40.31326700000000       -3.50014500000000       -0.47364800000000
C           40.32275600000000       -4.98017200000000       -0.54914800000000
C           39.76042400000000       -5.63937200000000       -1.65361300000000
C           39.78992200000000       -7.03463700000000       -1.73070900000000
C           40.38679000000000       -7.78923500000000       -0.70840100000000
C           40.41451400000000       -9.25981700000000       -0.80976200000000
O           40.99055799999999       -9.96118000000000        0.06277600000000
C           40.95448900000000       -7.12671500000000        0.39456700000000
C           40.92510599999999       -5.73134300000000        0.47061800000000
C           39.14502499999999       -2.84679300000000       -0.32996900000000
C           37.82332300000000       -3.46045000000000       -0.21280100000000
C           36.96287700000000       -2.46485600000000       -0.12734300000000
C           37.72579300000000       -1.21885400000000       -0.17729200000000
N           38.99925500000000       -1.42862300000000       -0.29544800000000
H           36.01305900000000        0.14238000000000       -0.13368200000000
H           36.04872500000000        2.76262400000000        0.05024700000000
H           37.86415200000000        4.53901900000000        0.33302400000000
H           41.00804899999999        4.76633100000000        2.70518300000000
H           41.07797100000000        7.19878600000000        3.03106600000000
H           40.51284500000000        9.78510300000000        0.28305500000000
H           40.22800100000000        7.77911600000000       -1.16239500000000
H           40.16988400000000        5.34170500000000       -1.48249400000000
H           43.32049400000000        4.37063400000000        0.89116300000000
H           45.13305900000000        2.57136300000000        0.70929700000000
H           44.81875299999999       -2.46558200000000       -1.13836500000000
H           42.85863300000000       -4.32872600000000       -1.39012000000000
H           39.30405100000000       -5.07147700000000       -2.45595700000000
H           39.35205300000000       -7.52522700000000       -2.59229100000000
H           39.94297300000000       -9.75268500000000       -1.64997800000000
H           41.42073500000000       -7.68579000000000        1.19690900000000
H           41.36825400000000       -5.23557600000000        1.32603400000000
H           37.57221300000000       -4.51297900000000       -0.19379600000000
H           35.88986900000000       -2.56692800000000       -0.02920700000000
Cu          95.99413600000000       -0.00796300000000        0.00343800000000
C           99.35588900000000       -0.12474300000000       -0.13361200000000
C           98.68982900000000       -1.28098000000000       -0.19849800000000
C           99.33965499999998       -2.58268900000000       -0.29088100000000
C           98.39955100000000       -3.50827200000000       -0.27732900000000
C           97.09421500000001       -2.84022200000000       -0.18024400000000
N           97.27158700000000       -1.42396200000000       -0.13290900000000
C           95.90480200000000       -3.47096200000000       -0.09615600000000
C           95.86847000000000       -4.95037200000000       -0.11448200000000
C           95.61360799999999       -5.66341400000000        1.06565200000000
C           95.57486399999999       -7.06057100000000        1.04967000000000
C           95.79520900000000       -7.76263500000000       -0.14816100000000
C           95.76188399999999       -9.23600300000000       -0.18448800000000
O           95.52753500000000       -9.90728600000000        0.85577000000000
C           96.05129500000000       -7.04551000000000       -1.32725400000000
C           96.08531100000000       -5.64825100000000       -1.31164800000000
C           94.60905900000000       -2.74987100000000        0.02444900000000
C           93.31427600000001       -3.42201000000000        0.18911200000000
C           92.38012200000000       -2.49489800000000        0.22870600000000
N           94.47036300000001       -1.46060400000000       -0.04379500000000
C           93.06842500000000       -1.21868800000000        0.08021000000000
C           92.47231300000000       -0.01678500000000        0.00326200000000
C           93.22720000000000        1.24524500000000       -0.17730000000000
C           92.67357900000000        2.39664500000000       -0.53699500000000
C           93.71754600000000        3.40049700000000       -0.52766600000000
C           94.84224999999999        2.79843100000000       -0.16068600000000
N           94.62372999999999        1.40585300000000        0.07759300000000
C           96.13895200000000        3.49899000000000        0.02726800000000
C           96.12946300000000        4.97468400000000        0.16330400000000
C           96.69179400000000        5.78444900000000       -0.83603100000000
C           96.66229699999998        7.17647200000000       -0.71364600000000
C           96.06542899999999        7.77779700000000        0.40570300000000
C           96.03770400000001        9.24782500000000        0.51479600000000
O           95.46166100000001        9.81778400000000        1.47832100000000
C           95.49772899999999        6.96495800000000        1.40308200000000
C           95.52711299999999        5.57297800000000        1.27964800000000
C           97.30719299999998        2.83183600000000        0.07644000000000
C           98.62889500000000        3.42255300000000        0.27980300000000
C           99.48934199999998        2.42493600000000        0.22261100000000
C           98.72642599999999        1.19874600000000       -0.00426900000000
N           97.45296399999999        1.42320300000000       -0.09134800000000
H          100.43915999999999       -0.15482600000000       -0.15495300000000
H          100.40349399999999       -2.77455700000000       -0.34603900000000
H           98.58806699999998       -4.57311600000000       -0.31911600000000
H           95.44416999999999       -5.13592400000000        1.99649600000000
H           95.37424799999999       -7.58999600000000        1.97266000000000
H           95.93937400000000       -9.75861800000000       -1.11565400000000
H           96.22421799999998       -7.56723400000000       -2.26070500000000
H           96.28233500000000       -5.10907900000000       -2.23043800000000
H           93.13172500000000       -4.48593100000000        0.25731500000000
H           91.31916000000000       -2.67909900000000        0.33353100000000
H           91.63346599999998        2.56963100000000       -0.77800400000000
H           93.59358600000000        4.44963800000000       -0.76186800000000
H           97.14816800000000        5.33660100000000       -1.71106900000000
H           97.10016500000000        7.78475800000000       -1.49658300000000
H           96.50924599999999        9.85532300000000       -0.24666800000000
H           95.03148299999999        7.40407600000000        2.27686400000000
H           95.08396500000001        4.96044600000000        2.05574500000000
H           98.88000599999999        4.46164700000000        0.44850200000000
H          100.56235000000000        2.51199200000000        0.33428300000000
C           46.10968100000000       -0.00209400000000        0.01353800000000
C           47.56790700000000       -0.02393100000000       -0.00433500000000
C           48.70183500000000       -0.04468500000000       -0.00582600000000
C           50.06321699999999       -0.05727400000000       -0.00801700000000
C           51.33743599999999       -0.04696800000000       -0.01278200000000
C           52.52589799999999       -0.02817000000000       -0.01893800000000
C           53.87825899999999       -0.00338500000000       -0.00307000000000
C           54.97852600000000       -0.00209400000000        0.01353800000000
C           63.72966800000000       -0.00209400000000        0.01353800000000
C           65.18789500000000       -0.02393100000000       -0.00433500000000
C           66.32182299999999       -0.04468500000000       -0.00582600000000
C           67.68320400000000       -0.05727400000000       -0.00801700000000
C           68.95742300000001       -0.04696800000000       -0.01278200000000
C           70.14588600000000       -0.02817000000000       -0.01893800000000
C           71.49824599999999       -0.00338500000000       -0.00307000000000
C           72.59851399999999       -0.00209400000000        0.01353800000000
C           81.34965599999998       -0.00209400000000        0.01353800000000
C           82.80788200000001       -0.02393100000000       -0.00433500000000
C           83.94181000000000       -0.04468500000000       -0.00582600000000
C           85.30319200000000       -0.05727400000000       -0.00801700000000
C           86.57741100000000       -0.04696800000000       -0.01278200000000
C           87.76587300000000       -0.02817000000000       -0.01893800000000
C           89.11823400000000       -0.00338500000000       -0.00307000000000
C           90.21850100000000       -0.00209400000000        0.01353800000000
Cu          59.40032600000000       -0.02620700000000        0.01543700000000
C           55.95809300000000        0.01749500000000       -0.00607100000000
C           56.61434500000000        1.15252300000000        0.30334400000000
C           55.97339500000000        2.44346500000000        0.56593100000000
C           56.91360000000000        3.31863200000000        0.86830500000000
C           58.21157500000000        2.63907700000000        0.82288100000000
N           58.03170000000000        1.26769000000000        0.45788500000000
C           59.39659400000000        3.22032100000000        1.10477700000000
C           59.43117300000000        4.63786600000000        1.52758400000000
C           59.93248699999999        5.61817000000000        0.65851600000000
C           59.97673200000000        6.95632300000000        1.05790800000000
C           59.52161700000000        7.33057800000000        2.33459600000000
C           59.54576500000000        8.73601400000000        2.77607100000000
O           60.01083400000000        9.63732400000000        2.03240400000000
C           59.02941999999999        6.34663600000000        3.20259100000000
C           58.98580900000000        5.00849100000000        2.80184700000000
C           60.69275199999999        2.50482300000000        1.01435300000000
C           61.96078900000000        3.04758100000000        1.51671400000000
C           62.91270900000000        2.18616900000000        1.22177100000000
N           60.86038299999999        1.35542500000000        0.43729800000000
C           62.25836600000000        1.08343500000000        0.52945500000000
C           62.87401500000000        0.01749500000000       -0.00607100000000
C           62.12542199999999       -1.06640100000000       -0.67477300000000
C           62.65846999999999       -1.93808100000000       -1.52040900000000
C           61.62679900000000       -2.90327700000000       -1.84950600000000
C           60.53476400000000       -2.55376900000000       -1.18189400000000
N           60.75985700000000       -1.37630100000000       -0.40896400000000
C           59.27961100000000       -3.34065000000000       -1.15661400000000
C           59.34120599999999       -4.77772600000000       -1.51213600000000
C           60.10831300000000       -5.65869700000000       -0.73549000000000
C           60.18060699999999       -7.01362800000000       -1.07053700000000
C           59.49209500000000       -7.50509600000000       -2.19087500000000
C           59.57615199999999       -8.93823300000000       -2.52169600000000
O           58.95614400000000       -9.41628500000000       -3.51051200000000
C           58.73330600000000       -6.61963100000000       -2.97683700000000
C           58.66123499999999       -5.26410000000000       -2.64082300000000
C           58.10642099999999       -2.78439600000000       -0.79751700000000
C           56.82949599999999       -3.48021100000000       -0.67496400000000
C           55.93847699999999       -2.56052600000000       -0.36097000000000
C           56.63596800000000       -1.27225100000000       -0.27472200000000
N           57.90349400000000       -1.39736700000000       -0.52565700000000
H           54.91664400000000        2.67494400000000        0.52302000000000
H           56.72939000000000        4.35927700000000        1.10271200000000
H           60.28611500000000        5.34452700000000       -0.32807800000000
H           60.36425700000000        7.69707500000000        0.36930800000000
H           59.15240200000000        9.00844700000000        3.75550400000000
H           58.67834100000000        6.61341100000000        4.19037800000000
H           58.60613499999999        4.26068900000000        3.48349300000000
H           62.11036300000000        3.98504200000000        2.03607200000000
H           63.96255699999999        2.30370800000000        1.45787400000000
H           63.67887300000000       -1.95234400000000       -1.87717200000000
H           61.74111799999999       -3.76871600000000       -2.48837900000000
H           60.64484800000000       -5.29631300000000        0.13334900000000
H           60.77344200000000       -7.67948800000000       -0.45392600000000
H           60.17599799999999       -9.60044800000000       -1.90865700000000
H           58.20041800000000       -6.97320800000000       -3.85110700000000
H           58.07855299999999       -4.59245600000000       -3.26063600000000
H           56.62734700000000       -4.53614500000000       -0.80192900000000
H           54.88601500000000       -2.75010800000000       -0.19371200000000
Cu          77.02031400000000       -0.02620700000000        0.01543700000000
C           73.57808000000000        0.01749500000000       -0.00607100000000
C           74.23433199999999        1.15252300000000        0.30334400000000
C           73.59338200000001        2.44346500000000        0.56593100000000
C           74.53358699999998        3.31863200000000        0.86830500000000
C           75.83156199999999        2.63907700000000        0.82288100000000
N           75.65168699999998        1.26769000000000        0.45788500000000
C           77.01658199999999        3.22032100000000        1.10477700000000
C           77.05116099999999        4.63786600000000        1.52758400000000
C           77.55247400000000        5.61817000000000        0.65851600000000
C           77.59671899999998        6.95632300000000        1.05790800000000
C           77.14160400000000        7.33057800000000        2.33459600000000
C           77.16575200000000        8.73601400000000        2.77607100000000
O           77.63082199999999        9.63732400000000        2.03240400000000
C           76.64940700000000        6.34663600000000        3.20259100000000
C           76.60579600000000        5.00849100000000        2.80184700000000
C           78.31274000000001        2.50482300000000        1.01435300000000
C           79.58077599999999        3.04758100000000        1.51671400000000
C           80.53269600000000        2.18616900000000        1.22177100000000
N           78.48036999999999        1.35542500000000        0.43729800000000
C           79.87835300000000        1.08343500000000        0.52945500000000
C           80.49400199999999        0.01749500000000       -0.00607100000000
C           79.74540899999998       -1.06640100000000       -0.67477300000000
C           80.27845800000000       -1.93808100000000       -1.52040900000000
C           79.24678599999999       -2.90327700000000       -1.84950600000000
C           78.15475099999999       -2.55376900000000       -1.18189400000000
N           78.37984399999999       -1.37630100000000       -0.40896400000000
C           76.89959800000000       -3.34065000000000       -1.15661400000000
C           76.96119400000001       -4.77772600000000       -1.51213600000000
C           77.72830099999999       -5.65869700000000       -0.73549000000000
C           77.80059500000000       -7.01362800000000       -1.07053700000000
C           77.11208200000000       -7.50509600000000       -2.19087500000000
C           77.19614000000000       -8.93823300000000       -2.52169600000000
O           76.57613200000000       -9.41628500000000       -3.51051200000000
C           76.35329299999999       -6.61963100000000       -2.97683700000000
C           76.28122200000000       -5.26410000000000       -2.64082300000000
C           75.72640800000001       -2.78439600000000       -0.79751700000000
C           74.44948400000000       -3.48021100000000       -0.67496400000000
C           73.55846400000000       -2.56052600000000       -0.36097000000000
C           74.25595600000000       -1.27225100000000       -0.27472200000000
N           75.52348099999999       -1.39736700000000       -0.52565700000000
H           72.53663099999999        2.67494400000000        0.52302000000000
H           74.34937699999999        4.35927700000000        1.10271200000000
H           77.90610300000000        5.34452700000000       -0.32807800000000
H           77.98424400000000        7.69707500000000        0.36930800000000
H           76.77238999999999        9.00844700000000        3.75550400000000
H           76.29832799999998        6.61341100000000        4.19037800000000
H           76.22612300000000        4.26068900000000        3.48349300000000
H           79.73034999999999        3.98504200000000        2.03607200000000
H           81.58254500000000        2.30370800000000        1.45787400000000
H           81.29886000000000       -1.95234400000000       -1.87717200000000
H           79.36110499999999       -3.76871600000000       -2.48837900000000
H           78.26483600000000       -5.29631300000000        0.13334900000000
H           78.39343000000000       -7.67948800000000       -0.45392600000000
H           77.79598500000000       -9.60044800000000       -1.90865700000000
H           75.82040499999999       -6.97320800000000       -3.85110700000000
H           75.69853999999999       -4.59245600000000       -3.26063600000000
H           74.24733399999998       -4.53614500000000       -0.80192900000000
H           72.50600200000000       -2.75010800000000       -0.19371200000000
262
 energy: -482.880182374435 gnorm: 1.411279381639 xtb: 6.5.1 (b24c23e)
Cu          40.45932732243637       -0.02582154255315        0.00183041756716
C           37.09664300490584        0.10416351131759       -0.11716593413261
C           37.76547684646403        1.26482131833480       -0.01616474347035
C           37.11163934815524        2.56294481648521        0.07728605331886
C           38.05517335284782        3.48017890256876        0.22297686986226
C           39.35635837598934        2.80111425945787        0.22316859425931
N           39.17552748008094        1.40059365508012        0.06932350388603
C           40.55223660870384        3.41505149440831        0.39696891216623
C           40.58418029607625        4.88389360690441        0.58939537206691
C           40.83869138441042        5.42233950700662        1.85841304444517
C           40.87719159555770        6.80530052255289        2.04136209488626
C           40.65692616344156        7.67190305891696        0.95606752766652
C           40.69180338408113        9.13639661211034        1.13721611650942
O           40.92357148735994        9.64901612588078        2.25028767491466
C           40.40096409492170        7.12859569460501       -0.31240692297223
C           40.36689689867189        5.74544528055303       -0.49551356652025
C           41.84054487823119        2.69077976704911        0.41417864382819
C           43.13446621452488        3.33001259050374        0.67230252942979
C           44.07299738242214        2.40150835843777        0.57884287645079
N           41.98479010857747        1.41680972150915        0.16237413436916
C           43.38562582390293        1.16225759171892        0.25080362784595
C           43.98432142433383       -0.02035074371690        0.00192427152023
C           43.22412243517032       -1.23417153626276       -0.35185139010262
C           43.77894732950558       -2.33587925176822       -0.87767640949792
C           42.74189247709603       -3.32400481738883       -1.01029349312613
C           41.60434147225475       -2.77672085806709       -0.55693146242315
N           41.83076989521593       -1.43747255347899       -0.12700441274441
C           40.31711306180696       -3.49829407140059       -0.47374121934415
C           40.32348612788926       -4.98032187122845       -0.54953563929506
C           39.76058298916846       -5.64030279446066       -1.65302267051116
C           39.79011747449073       -7.03352528099509       -1.73015848114965
C           40.38655373686659       -7.78933575300296       -0.70871942992237
C           40.41820995413592       -9.26215514314124       -0.80416200076219
O           40.98782869433909       -9.95785837752532        0.05879973990815
C           40.95412101477347       -7.12568623071130        0.39406001821664
C           40.92491854463429       -5.73246128251556        0.46990755312742
C           39.14378536615623       -2.84595778215207       -0.32976533983394
C           37.82592940138849       -3.46148313257576       -0.21309856068743
C           36.96058936103528       -2.46168369165168       -0.12711776008741
C           37.72022114272119       -1.21547882096791       -0.17698697609091
N           39.00080180941536       -1.43195432414706       -0.29538427222098
H           36.01313335268907        0.14195938374360       -0.13365342924471
H           36.04875875814301        2.76178126706393        0.05012669569120
H           37.86515186539961        4.53905335079430        0.33305682813793
H           41.00800398533499        4.76632133894789        2.70501920548090
H           41.07792054515448        7.19914174273173        3.03091518752025
H           40.51262992439224        9.78506426635547        0.28202958201132
H           40.22803593082472        7.77919321286211       -1.16231740057855
H           40.16993735734741        5.34161526678497       -1.48235569671114
H           43.31964417275542        4.37088572533346        0.89115321555111
H           45.13299335324614        2.57026127219141        0.70910284216009
H           44.81868611469967       -2.46578488935883       -1.13844323508382
H           42.85895355000243       -4.32856977779700       -1.39021151504938
H           39.30414873207532       -5.07141682056501       -2.45579957652250
H           39.35211346297842       -7.52528831455612       -2.59219005514859
H           39.94240770092853       -9.75248058346286       -1.65086584063298
H           41.42062926950864       -7.68608101409654        1.19666599429678
H           41.36817371908400       -5.23552789226857        1.32586753228025
H           37.57317211193844       -4.51290981596776       -0.19387231986598
H           35.88977188152725       -2.56618833393956       -0.02921270202407
Cu          95.99287277643749       -0.00763673143209        0.00313111505516
C           99.35557322294002       -0.11936231653475       -0.13316233151805
C           98.68674882811752       -1.28254787106699       -0.19847474312226
C           99.34057573573965       -2.58077139619353       -0.29084159791377
C           98.39705807035314       -3.50939468694097       -0.27725344616451
C           97.09584024008059       -2.83727588875124       -0.18035901425848
N           97.27667795132167       -1.42912121595039       -0.13319749894069
C           95.90001613891552       -3.46971811577494       -0.09576308880016
C           95.86803840276558       -4.95098395472232       -0.11446909776835
C           95.61352651395597       -5.66466183820885        1.06493660332413
C           95.57502608079362       -7.05957938890057        1.04907885855473
C           95.79529270342192       -7.76279894071497       -0.14856688316263
C           95.76041678185868       -9.23815812894539       -0.17781940602400
O           95.52864583266336       -9.90406704562259        0.85091032082768
C           96.05125542733435       -7.04438662382437       -1.32674261247447
C           96.08532216540273       -5.64925961909501       -1.31101193899697
C           94.61166557331165       -2.75518536622194        0.02441551891356
C           93.31770750769067       -3.42472788293055        0.18888223236591
C           92.37920205419020       -2.49240940748099        0.22860226070501
N           94.46759459341391       -1.45856678555070       -0.04344394813871
C           93.06647747321726       -1.21875436509882        0.08037838249542
C           92.46945256623782       -0.01296326030320        0.00251518237471
C           93.22818681231217        1.23859051459801       -0.17485550819019
C           92.67327919810840        2.40413704814810       -0.53844066355077
C           93.71029447766419        3.40106105972654       -0.52900131034034
C           94.84790495570175        2.79478580269395       -0.15818181880090
N           94.62153343805753        1.40804007261127        0.07664963737239
C           96.13509280938386        3.49717263714652        0.02691167071300
C           96.12873307662284        4.97488930579512        0.16294118393707
C           96.69163461349586        5.78528599495242       -0.83531427259565
C           96.66210113458249        7.17529376213744       -0.71325891888272
C           96.06566510879816        7.77794025551365        0.40540236054795
C           96.03400674381824        9.24934481811575        0.52067401336768
O           95.46439228249494        9.81506055538835        1.47390979662055
C           95.49809721013132        6.96401278774517        1.40243348120760
C           95.52730086457628        5.57418531099347        1.27910390664309
C           97.30843851697985        2.83097530565465        0.07652363813046
C           98.62628294131849        3.42361772815721        0.27965423778288
C           99.49162964093119        2.42175785516230        0.22238090813601
C           98.73199967759412        1.19536668038534       -0.00444784537594
N           97.45141261244943        1.42649077134967       -0.09080414031714
H          100.43908547588501       -0.15441413956181       -0.15486530727189
H          100.40346012953179       -2.77370627408267       -0.34603776039275
H           98.58706756508137       -4.57315483102936       -0.31908856329263
H           95.44421513264577       -5.13589126421790        1.99633540041014
H           95.37429876628926       -7.59032672354301        1.97246022518809
H           95.93958917632146       -9.75843364187293       -1.11666359657896
H           96.22418310457698       -7.56732167482658       -2.26063931083787
H           96.28228173171769       -5.10900993993744       -2.23028819547624
H           93.13257518979322       -4.48618121131441        0.25726811306688
H           91.31925156920285       -2.67802851864734        0.33349888347308
H           91.63355099035748        2.56986223068890       -0.77805517421610
H           93.59326519798607        4.44949839775616       -0.76198006318160
H           97.14807032648470        5.33651893333958       -1.71092187726923
H           97.10010464425328        7.78480434060985       -1.49647436755770
H           96.50981128753730        9.85524708155418       -0.24757588855067
H           95.03158864947811        7.40439872423723        2.27666474325182
H           95.08404535201473        4.96042207975619        2.05557332585149
H           98.87904650585752        4.46158919764336        0.44841645906181
H          100.56244701966035        2.51126032789810        0.33417184231802