      -----------------------------------------------------------      
     |                   =====================                   |     
     |                           x T B                           |     
     |                   =====================                   |     
     |                         S. Grimme                         |     
     |          Mulliken Center for Theoretical Chemistry        |     
     |                    University of Bonn                     |     
      -----------------------------------------------------------      

   * xtb version 6.5.1 (b24c23e) compiled by 'conda@728c89f4b128' on 2022-07-12

   xtb is free software: you can redistribute it and/or modify it under
   the terms of the GNU Lesser General Public License as published by
   the Free Software Foundation, either version 3 of the License, or
   (at your option) any later version.
   
   xtb is distributed in the hope that it will be useful,
   but WITHOUT ANY WARRANTY; without even the implied warranty of
   MERCHANTABILITY or FITNESS FOR A PARTICULAR PURPOSE.  See the
   GNU Lesser General Public License for more details.
   
   Cite this work as:
   * C. Bannwarth, E. Caldeweyher, S. Ehlert, A. Hansen, P. Pracht,
     J. Seibert, S. Spicher, S. Grimme, WIREs Comput. Mol. Sci., 2020, 11,
     e01493. DOI: 10.1002/wcms.1493
   
   for GFN2-xTB:
   * C. Bannwarth, S. Ehlert and S. Grimme., J. Chem. Theory Comput., 2019,
     15, 1652-1671. DOI: 10.1021/acs.jctc.8b01176
   for GFN1-xTB:
   * S. Grimme, C. Bannwarth, P. Shushkov, J. Chem. Theory Comput., 2017,
     13, 1989-2009. DOI: 10.1021/acs.jctc.7b00118
   for GFN0-xTB:
   * P. Pracht, E. Caldeweyher, S. Ehlert, S. Grimme, ChemRxiv, 2019, preprint.
     DOI: 10.26434/chemrxiv.8326202.v1
   for GFN-FF:
   * S. Spicher and S. Grimme, Angew. Chem. Int. Ed., 2020, 59, 15665-15673.
     DOI: 10.1002/anie.202004239
   
   for ALPB and GBSA implicit solvation:
   * S. Ehlert, M. Stahn, S. Spicher, S. Grimme, J. Chem. Theory Comput.,
     2021, 17, 4250-4261. DOI: 10.1021/acs.jctc.1c00471
   
   for DFT-D4:
   * E. Caldeweyher, C. Bannwarth and S. Grimme, J. Chem. Phys., 2017,
     147, 034112. DOI: 10.1063/1.4993215
   * E. Caldeweyher, S. Ehlert, A. Hansen, H. Neugebauer, S. Spicher,
     C. Bannwarth and S. Grimme, J. Chem. Phys., 2019, 150, 154122.
     DOI: 10.1063/1.5090222
   * E. Caldeweyher, J.-M. Mewes, S. Ehlert and S. Grimme, Phys. Chem. Chem. Phys.
     2020, 22, 8499-8512. DOI: 10.1039/D0CP00502A
   
   for sTDA-xTB:
   * S. Grimme and C. Bannwarth, J. Chem. Phys., 2016, 145, 054103.
     DOI: 10.1063/1.4959605
   
   in the mass-spec context:
   * V. Asgeirsson, C. Bauer and S. Grimme, Chem. Sci., 2017, 8, 4879.
     DOI: 10.1039/c7sc00601b
   * J. Koopman and S. Grimme, ACS Omega 2019, 4, 12, 15120-15133.
     DOI: 10.1021/acsomega.9b02011
   
   for metadynamics refer to:
   * S. Grimme, J. Chem. Theory Comput., 2019, 155, 2847-2862
     DOI: 10.1021/acs.jctc.9b00143
   
   for SPH calculations refer to:
   * S. Spicher and S. Grimme, J. Chem. Theory Comput., 2021, 17, 1701-1714
     DOI: 10.1021/acs.jctc.0c01306
   
   with help from (in alphabetical order)
   P. Atkinson, C. Bannwarth, F. Bohle, G. Brandenburg, E. Caldeweyher
   M. Checinski, S. Dohm, S. Ehlert, S. Ehrlich, I. Gerasimov, C. Hölzer
   A. Katbashev, J. Koopman, C. Lavigne, S. Lehtola, F. März, M. Müller,
   F. Musil, H. Neugebauer, J. Pisarek, C. Plett, P. Pracht, F. Pultar,
   J. Seibert, P. Shushkov, S. Spicher, M. Stahn, M. Steiner, T. Strunk,
   J. Stückrath, T. Rose, and J. Unsleber
   
 * started run on 2022/07/27 at 11:51:10.517     

           -------------------------------------------------
          |                Calculation Setup                |
           -------------------------------------------------

          program call               : xtb Py_C8_7.xyz --gfn 1 --opt -T 48
          hostname                   : cx3-6-14.cx3.hpc.ic.ac.uk
          coordinate file            : Py_C8_7.xyz
          omp threads                :                     1

   ID    Z sym.   atoms
    1    6 C      1-5, 7-10, 12-16, 18-23, 25-28, 30-35, 56-60, 62-65, 67-71,
                  73-78, 80-83, 85-90, 111-163, 165-168, 170-174, 176-181,
                  183-186, 188-193, 213-217, 219-222, 224-228, 230-235,
                  237-240, 242-247, 267-271, 273-276, 278-282, 284-289,
                  291-294, 296-301, 321-325, 327-330, 332-336, 338-343,
                  345-348, 350-355, 375-379, 381-384, 386-390, 392-397,
                  399-402, 404-409
    2    7 N      6, 11, 17, 24, 29, 36, 61, 66, 72, 79, 84, 91, 164, 169,
                  175, 182, 187, 194, 218, 223, 229, 236, 241, 248, 272, 277,
                  283, 290, 295, 302, 326, 331, 337, 344, 349, 356, 380, 385,
                  391, 398, 403, 410
    3    1 H      37-55, 92-110, 195-212, 249-266, 303-320, 357-374, 411-428

molecular fragmentation (1/2 indicates fragments):
111111111111111111111111111111111111111111111111111111122222222222222222
222222222222222222222222222222222222222222222222222222222222222222222222
222222222222222222222222222222222222222222222222222222222222222222222222
222222222222222222222222222222222222222222222222222222222222222222222222
222222222222222222222222222222222222222222222222222222222222222222222222
22222222222222222222222222222222222222222222222222222222222222222222
# atoms in fragment 1/2:    55   373
 fragment masses (1/2) :      463.51     3352.55
CMA distance (Bohr)    : 126.948
constraining FC (au)   :  0.0500
########################################################################
[WARNING] Please study the warnings concerning your input carefully
-1- prog_main_parseArguments: Unknown option '-T' provided
########################################################################

           -------------------------------------------------
          |                 G F N 1 - x T B                 |
           -------------------------------------------------

        Reference                      10.1021/acs.jctc.7b00118
      * Hamiltonian:
        H0-scaling (s, p, d)           1.850000    2.250000    2.000000
        zeta-weighting                 0.000000
      * Dispersion:
        s8                             2.400000
        a1                             0.630000
        a2                             5.000000
        s9                             0.000000
      * Repulsion:
        kExp                           1.500000
        rExp                           1.000000
      * Coulomb:
        alpha                          2.000000
        third order                    atomic
        anisotropic                    false
      * Halogen bond correction:
        rad-scale                      1.300000
        damping                        0.440000


          ...................................................
          :                      SETUP                      :
          :.................................................:
          :  # basis functions                1456          :
          :  # atomic orbitals                1456          :
          :  # shells                          856          :
          :  # electrons                      1370          :
          :  # halogen bonds                     0          :
          :  max. iterations                   250          :
          :  Hamiltonian                  GFN1-xTB          :
          :  restarted?                      false          :
          :  GBSA solvation                  false          :
          :  PC potential                    false          :
          :  electronic temp.          300.0000000     K    :
          :  accuracy                    1.0000000          :
          :  -> integral cutoff          0.2500000E+02      :
          :  -> integral neglect         0.1000000E-07      :
          :  -> SCF convergence          0.1000000E-05 Eh   :
          :  -> wf. convergence          0.2000000E-04 e    :
          :  Broyden damping             0.4000000          :
          ...................................................

 iter      E             dE          RMSdq      gap      omega  full diag
   1   -756.6477692 -0.756648E+03  0.105E+01    0.08       0.0  T
   2   -713.3932660  0.432545E+02  0.728E+00    0.05       1.0  T
   3   4358.7232363  0.507212E+04  0.189E+01    0.02       1.0  T
   4   7401.6378117  0.304291E+04  0.222E+01    0.01       1.0  T
   5    228.0179149 -0.717362E+04  0.110E+01    0.04       1.0  T
   6   -154.1568789 -0.382175E+03  0.877E+00    0.02       1.0  T
   7    583.3180049  0.737475E+03  0.108E+01    0.04       1.0  T
   8   -165.2766020 -0.748595E+03  0.792E+00    0.00       1.0  T
   9   -431.1135647 -0.265837E+03  0.653E+00    0.01       1.0  T
  10   -659.8581905 -0.228745E+03  0.394E+00    0.06       1.0  T
  11   -596.4606203  0.633976E+02  0.461E+00    0.00       1.0  T
  12   -581.4405584  0.150201E+02  0.442E+00    0.02       1.0  T
  13   -580.3578788  0.108268E+01  0.444E+00    0.02       1.0  T
  14   -553.0411140  0.273168E+02  0.455E+00    0.01       1.0  T
  15   -537.3629825  0.156781E+02  0.458E+00    0.03       1.0  T
  16   -548.9787444 -0.116158E+02  0.447E+00    0.03       1.0  T
  17   -552.7580739 -0.377933E+01  0.451E+00    0.01       1.0  T
  18   -559.9113664 -0.715329E+01  0.450E+00    0.02       1.0  T
  19   -583.4145298 -0.235032E+02  0.464E+00    0.00       1.0  T
  20   -571.0294358  0.123851E+02  0.445E+00    0.01       1.0  T
  21   -615.4432933 -0.444139E+02  0.404E+00    0.01       1.0  T
  22   -645.6862055 -0.302429E+02  0.398E+00    0.03       1.0  T
  23   -684.7433236 -0.390571E+02  0.339E+00    0.00       1.0  T
  24   -704.0824042 -0.193391E+02  0.301E+00    0.01       1.0  T
  25   -722.5162478 -0.184338E+02  0.249E+00    0.00       1.0  T
  26   -731.7577287 -0.924148E+01  0.256E+00    0.02       1.0  T
  27   -739.8140521 -0.805632E+01  0.225E+00    0.08       1.0  T
  28   -736.5138607  0.330019E+01  0.223E+00    0.04       1.0  T
  29   -738.0058623 -0.149200E+01  0.225E+00    0.03       1.0  T
  30   -740.6211621 -0.261530E+01  0.215E+00    0.01       1.0  T
  31   -742.7089199 -0.208776E+01  0.217E+00    0.01       1.0  T
  32   -743.9289245 -0.122000E+01  0.206E+00    0.02       1.0  T
  33   -747.5498909 -0.362097E+01  0.185E+00    0.00       1.0  T
  34   -750.8384812 -0.328859E+01  0.186E+00    0.03       1.0  T
  35   -749.0717639  0.176672E+01  0.193E+00    0.06       1.0  T
  36   -750.9762714 -0.190451E+01  0.179E+00    0.01       1.0  T
  37   -750.1614599  0.814812E+00  0.179E+00    0.03       1.0  T
  38   -753.2874337 -0.312597E+01  0.161E+00    0.01       1.0  T
  39   -752.9019294  0.385504E+00  0.161E+00    0.01       1.0  T
  40   -753.9038406 -0.100191E+01  0.150E+00    0.02       1.0  T
  41   -755.4445330 -0.154069E+01  0.128E+00    0.02       1.0  T
  42   -755.5244096 -0.798767E-01  0.126E+00    0.01       1.0  T
  43   -756.2044502 -0.680041E+00  0.107E+00    0.02       1.0  T
  44   -757.0263965 -0.821946E+00  0.860E-01    0.09       1.0  T
  45   -756.5916490  0.434748E+00  0.861E-01    0.00       1.0  T
  46   -757.3999130 -0.808264E+00  0.612E-01    0.04       1.0  T
  47   -757.3557134  0.441996E-01  0.656E-01    0.05       1.0  T
  48   -757.5974289 -0.241716E+00  0.531E-01    0.03       1.0  T
  49   -757.3626074  0.234822E+00  0.610E-01    0.00       1.0  T
  50   -757.6293433 -0.266736E+00  0.447E-01    0.00       1.0  T
  51   -757.7114817 -0.821384E-01  0.499E-01    0.01       1.0  T
  52   -756.9731906  0.738291E+00  0.763E-01    0.08       1.0  T
  53   -757.7747898 -0.801599E+00  0.473E-01    0.02       1.0  T
  54   -757.8086056 -0.338158E-01  0.454E-01    0.03       1.0  T
  55   -757.9411168 -0.132511E+00  0.378E-01    0.03       1.0  T
  56   -758.0152455 -0.741287E-01  0.319E-01    0.01       1.0  T
  57   -758.0494182 -0.341727E-01  0.281E-01    0.01       1.0  T
  58   -757.9817911  0.676271E-01  0.357E-01    0.00       1.0  T
  59   -758.0413479 -0.595567E-01  0.267E-01    0.00       1.0  T
  60   -758.0441769 -0.282905E-02  0.224E-01    0.01       1.0  T
  61   -758.0748627 -0.306858E-01  0.218E-01    0.00       1.0  T
  62   -758.0803911 -0.552840E-02  0.189E-01    0.03       1.0  T
  63   -758.1015773 -0.211862E-01  0.200E-01    0.01       1.0  T
  64   -758.1020550 -0.477621E-03  0.196E-01    0.01       1.0  T
  65   -758.1005496  0.150537E-02  0.205E-01    0.00       1.0  T
  66   -758.1155217 -0.149721E-01  0.159E-01    0.02       1.0  T
  67   -758.1250652 -0.954357E-02  0.140E-01    0.02       1.0  T
  68   -758.1270194 -0.195419E-02  0.135E-01    0.02       1.0  T
  69   -758.1309940 -0.397457E-02  0.122E-01    0.02       1.0  T
  70   -758.1307873  0.206699E-03  0.110E-01    0.03       1.0  T
  71   -758.1358887 -0.510136E-02  0.953E-02    0.03       1.0  T
  72   -758.1389200 -0.303129E-02  0.890E-02    0.03       1.0  T
  73   -758.1429792 -0.405923E-02  0.837E-02    0.03       1.0  T
  74   -758.1442759 -0.129668E-02  0.731E-02    0.02       1.0  T
  75   -758.1457180 -0.144209E-02  0.755E-02    0.03       1.0  T
  76   -758.1469067 -0.118874E-02  0.701E-02    0.03       1.0  T
  77   -758.1472498 -0.343121E-03  0.664E-02    0.03       1.0  T
  78   -758.1477335 -0.483638E-03  0.618E-02    0.03       1.0  T
  79   -758.1501409 -0.240743E-02  0.513E-02    0.02       1.0  T
  80   -758.1514246 -0.128372E-02  0.453E-02    0.02       1.0  T
  81   -758.1520591 -0.634454E-03  0.415E-02    0.02       1.0  T
  82   -758.1524836 -0.424481E-03  0.387E-02    0.02       1.0  T
  83   -758.1529304 -0.446890E-03  0.351E-02    0.02       1.0  T
  84   -758.1534687 -0.538223E-03  0.302E-02    0.02       1.0  T
  85   -758.1534712 -0.255339E-05  0.274E-02    0.01       1.0  T
  86   -758.1538289 -0.357729E-03  0.242E-02    0.01       1.0  T
  87   -758.1539760 -0.147009E-03  0.219E-02    0.01       1.0  T
  88   -758.1540922 -0.116238E-03  0.206E-02    0.01       1.0  T
  89   -758.1541617 -0.694582E-04  0.199E-02    0.01       1.0  T
  90   -758.1542349 -0.732024E-04  0.190E-02    0.01       1.0  T
  91   -758.1541215  0.113399E-03  0.192E-02    0.01       1.0  T
  92   -758.1542408 -0.119372E-03  0.171E-02    0.01       1.0  T
  93   -758.1544923 -0.251429E-03  0.137E-02    0.01       1.0  T
  94   -758.1545733 -0.810848E-04  0.119E-02    0.01       1.0  T
  95   -758.1546416 -0.682397E-04  0.103E-02    0.01       1.0  T
  96   -758.1546200  0.215870E-04  0.104E-02    0.01       1.0  T
  97   -758.1546963 -0.763210E-04  0.823E-03    0.01       1.0  T
  98   -758.1547372 -0.409259E-04  0.677E-03    0.01       1.0  T
  99   -758.1547585 -0.212546E-04  0.571E-03    0.01       1.0  T
 100   -758.1547635 -0.505166E-05  0.541E-03    0.01       1.0  T
 101   -758.1547817 -0.181023E-04  0.424E-03    0.01       1.1  T
 102   -758.1547847 -0.302960E-05  0.382E-03    0.01       1.3  T
 103   -758.1547946 -0.991304E-05  0.301E-03    0.01       1.6  T
 104   -758.1548003 -0.569823E-05  0.237E-03    0.01       2.0  T
 105   -758.1548024 -0.212896E-05  0.203E-03    0.01       2.4  T
 106   -758.1548042 -0.174713E-05  0.165E-03    0.01       2.9  T
 107   -758.1548053 -0.116984E-05  0.141E-03    0.01       3.4  T
 108   -758.1548059 -0.533574E-06  0.126E-03    0.01       3.9  T
 109   -758.1548065 -0.624777E-06  0.104E-03    0.01       4.6  T
 110   -758.1548070 -0.512747E-06  0.796E-04    0.01       6.1  T
 111   -758.1548073 -0.330166E-06  0.650E-04    0.01       7.4  T
 112   -758.1548075 -0.153210E-06  0.544E-04    0.01       8.9  T
 113   -758.1548075 -0.554229E-07  0.487E-04    0.01       9.9  T
 114   -758.1548076 -0.794906E-07  0.416E-04    0.01      11.6  T
 115   -758.1548077 -0.835861E-07  0.312E-04    0.01      15.5  T
 116   -758.1548077 -0.314078E-07  0.257E-04    0.01      18.8  T
 117   -758.1548078 -0.325194E-07  0.189E-04    0.01      25.6  T
 118   -758.1548078 -0.190375E-07  0.139E-04    0.01      34.7  T

   *** convergence criteria satisfied after 118 iterations ***

         #    Occupation            Energy/Eh            Energy/eV
      -------------------------------------------------------------
         1        2.0000           -0.8100561             -22.0427
       ...           ...                  ...                  ...
       679        1.9999           -0.3864826             -10.5167
       680        1.9968           -0.3831254             -10.4254
       681        1.9067           -0.3798700             -10.3368
       682        1.8653           -0.3795001             -10.3267
       683        1.8611           -0.3794686             -10.3259
       684        1.8509           -0.3793962             -10.3239
       685        1.0601           -0.3771177             -10.2619 (HOMO)
       686        0.8387           -0.3766941             -10.2504 (LUMO)
       687        0.6014           -0.3762015             -10.2370
       688        0.0187           -0.3725727             -10.1382
       689        0.0005           -0.3691529             -10.0452
       690        0.0000           -0.3661645              -9.9638
       ...           ...                  ...                  ...
      1456                          2.1944741              59.7147
      -------------------------------------------------------------
                  HL-Gap            0.0004236 Eh            0.0115 eV
             Fermi-level           -0.3770034 Eh          -10.2588 eV

 SCC (total)                   0 d,  0 h,  1 min, 48.300 sec
 SCC setup                      ...        0 min,  0.045 sec (  0.042%)
 Dispersion                     ...        0 min,  0.022 sec (  0.020%)
 classical contributions        ...        0 min,  0.005 sec (  0.004%)
 integral evaluation            ...        0 min,  0.590 sec (  0.545%)
 iterations                     ...        1 min, 46.479 sec ( 98.319%)
 molecular gradient             ...        0 min,  0.983 sec (  0.908%)
 printout                       ...        0 min,  0.175 sec (  0.162%)

         :::::::::::::::::::::::::::::::::::::::::::::::::::::
         ::                     SUMMARY                     ::
         :::::::::::::::::::::::::::::::::::::::::::::::::::::
         :: total energy            -744.544617721160 Eh    ::
         :: gradient norm              2.179555211200 Eh/a0 ::
         :: HOMO-LUMO gap              0.011526855059 eV    ::
         ::.................................................::
         :: SCC energy              -758.154807793591 Eh    ::
         :: -> electrostatic           0.627617794045 Eh    ::
         :: repulsion energy          13.963000153862 Eh    ::
         :: dispersion energy         -0.352810081430 Eh    ::
         :: halogen bond corr.         0.000000000000 Eh    ::
         :: add. restraining           0.000000000000 Eh    ::
         :: total charge              -0.000000000001 e     ::
         :::::::::::::::::::::::::::::::::::::::::::::::::::::

      ----------------------------------------------------------- 
     |                   =====================                   |
     |                        A N C O P T                        |
     |                   =====================                   |
     |               Approximate Normal Coordinate               |
     |                Rational Function Optimizer                |
      ----------------------------------------------------------- 

          ...................................................
          :                      SETUP                      :
          :.................................................:
          :   optimization level            normal          :
          :   max. optcycles                  1284          :
          :   ANC micro-cycles                  20          :
          :   degrees of freedom              1278          :
          :.................................................:
          :   RF solver                   davidson          :
          :   write xtbopt.log                true          :
          :   linear?                        false          :
          :   energy convergence         0.5000000E-05 Eh   :
          :   grad. convergence          0.1000000E-02 Eh/α :
          :   maximium RF displ.         1.0000000          :
          :   Hlow (freq-cutoff)         0.1000000E-01      :
          :   Hmax (freq-cutoff)         5.0000000          :
          :   S6 in model hess.         20.0000000          :
          ...................................................

generating ANC from model Hessian ...
Using Lindh-Hessian (1995)
 Shifting diagonal of input Hessian by    1.0084226035635200E-002
 Lowest  eigenvalues of input Hessian
    0.010000    0.010023    0.010079    0.010080    0.010081    0.010082
    0.010082    0.010083    0.010083    0.010084    0.010084    0.010084
    0.000000    0.000000    0.000000    0.000000    0.000000    0.000000
 Highest eigenvalues
    3.241763    3.276498    3.277006    3.277008    3.277008    3.277008


........................................................................
.............................. CYCLE    1 ..............................
........................................................................
   1   -758.1548078 -0.758155E+03  0.955E-05    0.01       0.0  T
   2   -758.1548035  0.435008E-05  0.126E-03    0.01       3.8  T
   3   -758.1548073 -0.388275E-05  0.540E-04    0.01       9.0  T
   4   -758.1548072  0.163487E-06  0.593E-04    0.01       8.1  T
   5   -758.1548076 -0.467596E-06  0.308E-04    0.01      15.7  T
   6   -758.1548078 -0.129245E-06  0.167E-04    0.01      29.0  T
   7   -758.1548077  0.103329E-06  0.224E-04    0.01      21.5  T
   8   -758.1548076  0.227805E-07  0.247E-04    0.01      19.6  T
   9   -758.1548077 -0.321741E-07  0.227E-04    0.01      21.3  T
  10   -758.1548078 -0.131395E-06  0.624E-05    0.01      77.4  T
     SCC iter.                  ...        0 min,  8.965 sec
     gradient                   ...        0 min,  0.991 sec
 * total energy  :  -744.5446177 Eh     change       -0.1490412E-07 Eh
   gradient norm :     2.1795550 Eh/α   predicted     0.0000000E+00 (-100.00%)
   displ. norm   :     0.5977764 α      lambda       -0.1243340E+01
   maximum displ.:     0.2480598 α      in ANC's #1271, #1270, #1269, ...

........................................................................
.............................. CYCLE    2 ..............................
........................................................................
   1   -757.8954568 -0.757895E+03  0.320E-01    0.05       0.0  T
   2   -756.9322256  0.963231E+00  0.989E-01    0.03       1.0  T
   3   -757.4215830 -0.489357E+00  0.492E-01    0.14       1.0  T
   4   -757.6334223 -0.211839E+00  0.434E-01    0.08       1.0  T
   5   -757.6599761 -0.265538E-01  0.363E-01    0.03       1.0  T
   6   -757.8875485 -0.227572E+00  0.259E-01    0.03       1.0  T
   7   -757.8070228  0.805257E-01  0.306E-01    0.04       1.0  T
   8   -757.8146883 -0.766551E-02  0.320E-01    0.06       1.0  T
   9   -757.9162160 -0.101528E+00  0.180E-01    0.06       1.0  T
  10   -757.8011689  0.115047E+00  0.263E-01    0.06       1.0  T
  11   -757.5734794  0.227689E+00  0.397E-01    0.00       1.0  T
  12   -757.7723048 -0.198825E+00  0.310E-01    0.02       1.0  T
  13   -757.9672778 -0.194973E+00  0.113E-01    0.02       1.0  T
  14   -757.9756626 -0.838481E-02  0.101E-01    0.02       1.0  T
  15   -757.9667976  0.886504E-02  0.105E-01    0.00       1.0  T
  16   -757.9883643 -0.215667E-01  0.670E-02    0.01       1.0  T
  17   -757.9860947  0.226960E-02  0.671E-02    0.02       1.0  T
  18   -757.9915956 -0.550095E-02  0.433E-02    0.00       1.0  T
  19   -757.9953098 -0.371413E-02  0.179E-02    0.01       1.0  T
  20   -757.9959882 -0.678451E-03  0.406E-03    0.01       1.2  T
  21   -757.9959698  0.184033E-04  0.445E-03    0.01       1.1  T
  22   -757.9959971 -0.273257E-04  0.291E-03    0.01       1.7  T
  23   -757.9960123 -0.151447E-04  0.168E-03    0.01       2.9  T
  24   -757.9960145 -0.218387E-05  0.138E-03    0.01       3.5  T
  25   -757.9960197 -0.521380E-05  0.478E-04    0.01      10.1  T
  26   -757.9960199 -0.191201E-06  0.480E-04    0.01      10.1  T
  27   -757.9960200 -0.705086E-07  0.251E-04    0.01      19.3  T
  28   -757.9960201 -0.166350E-06  0.140E-04    0.01      34.5  T
  29   -757.9960201 -0.291311E-07  0.711E-05    0.01      67.9  T
     SCC iter.                  ...        0 min, 26.051 sec
     gradient                   ...        0 min,  0.974 sec
 * total energy  :  -745.4009217 Eh     change       -0.8563040E+00 Eh
   gradient norm :     0.9424380 Eh/α   predicted    -0.8438160E+00 (  -1.46%)
   displ. norm   :     0.6283520 α      lambda       -0.5166962E+00
   maximum displ.:     0.1452119 α      in ANC's #1271, #717, #834, ...

........................................................................
.............................. CYCLE    3 ..............................
........................................................................
   1   -757.9556519 -0.757956E+03  0.351E-01    0.14       0.0  T
   2   -757.1504312  0.805221E+00  0.921E-01    0.11       1.0  T
   3   -756.5409168  0.609514E+00  0.971E-01    0.20       1.0  T
   4   -757.6860956 -0.114518E+01  0.482E-01    0.06       1.0  T
   5   -757.8806234 -0.194528E+00  0.365E-01    0.01       1.0  T
   6   -757.9362405 -0.556171E-01  0.269E-01    0.01       1.0  T
   7   -757.4773941  0.458846E+00  0.553E-01    0.00       1.0  T
   8   -757.8584489 -0.381055E+00  0.428E-01    0.18       1.0  T
   9   -758.0301786 -0.171730E+00  0.217E-01    0.07       1.0  T
  10   -758.0370674 -0.688879E-02  0.171E-01    0.02       1.0  T
  11   -758.0105475  0.265199E-01  0.230E-01    0.10       1.0  T
  12   -758.0983645 -0.878170E-01  0.386E-02    0.04       1.0  T
  13   -758.0826709  0.156936E-01  0.887E-02    0.04       1.0  T
  14   -758.0948553 -0.121844E-01  0.544E-02    0.04       1.0  T
  15   -758.1004192 -0.556395E-02  0.249E-02    0.04       1.0  T
  16   -758.0975402  0.287906E-02  0.490E-02    0.05       1.0  T
  17   -758.0978575 -0.317354E-03  0.380E-02    0.03       1.0  T
  18   -758.1012610 -0.340347E-02  0.135E-02    0.03       1.0  T
  19   -758.1015750 -0.313964E-03  0.728E-03    0.03       1.0  T
  20   -758.1016707 -0.957806E-04  0.233E-03    0.03       2.1  T
  21   -758.1016580  0.127115E-04  0.277E-03    0.03       1.7  T
  22   -758.1016800 -0.220140E-04  0.150E-03    0.03       3.2  T
  23   -758.1016778  0.225796E-05  0.175E-03    0.03       2.8  T
  24   -758.1016814 -0.360843E-05  0.125E-03    0.03       3.9  T
  25   -758.1016843 -0.289293E-05  0.495E-04    0.03       9.8  T
  26   -758.1016840  0.287518E-06  0.619E-04    0.03       7.8  T
  27   -758.1016846 -0.567798E-06  0.344E-04    0.03      14.0  T
  28   -758.1016847 -0.154501E-06  0.214E-04    0.03      22.6  T
  29   -758.1016848 -0.767141E-07  0.116E-04    0.03      41.5  T
  30   -758.1016848 -0.302718E-07  0.329E-05    0.03     147.0  T
     SCC iter.                  ...        0 min, 27.370 sec
     gradient                   ...        0 min,  0.975 sec
 * total energy  :  -745.7921614 Eh     change       -0.3912396E+00 Eh
   gradient norm :     0.4575859 Eh/α   predicted    -0.3603508E+00 (  -7.90%)
   displ. norm   :     0.6371630 α      lambda       -0.2469286E+00
   maximum displ.:     0.1736653 α      in ANC's #717, #605, #985, ...

........................................................................
.............................. CYCLE    4 ..............................
........................................................................
   1   -758.1267209 -0.758127E+03  0.292E-01    0.20       0.0  T
   2   -757.4205056  0.706215E+00  0.878E-01    0.01       1.0  T
   3   -756.4310090  0.989497E+00  0.943E-01    0.02       1.0  T
   4   -757.3362464 -0.905237E+00  0.676E-01    0.12       1.0  T
   5   -757.7527067 -0.416460E+00  0.506E-01    0.08       1.0  T
   6   -758.1992933 -0.446587E+00  0.163E-01    0.08       1.0  T
   7   -758.0724450  0.126848E+00  0.290E-01    0.03       1.0  T
   8   -758.2026534 -0.130208E+00  0.168E-01    0.12       1.0  T
   9   -758.2313270 -0.286737E-01  0.649E-02    0.05       1.0  T
  10   -758.2222210  0.910601E-02  0.974E-02    0.05       1.0  T
  11   -758.2101964  0.120246E-01  0.126E-01    0.01       1.0  T
  12   -758.2404116 -0.302152E-01  0.345E-02    0.05       1.0  T
  13   -758.2387429  0.166864E-02  0.391E-02    0.04       1.0  T
  14   -758.2411580 -0.241504E-02  0.263E-02    0.05       1.0  T
  15   -758.2399753  0.118274E-02  0.334E-02    0.05       1.0  T
  16   -758.2411536 -0.117833E-02  0.271E-02    0.05       1.0  T
  17   -758.2423984 -0.124481E-02  0.117E-02    0.06       1.0  T
  18   -758.2422997  0.987282E-04  0.140E-02    0.06       1.0  T
  19   -758.2425069 -0.207226E-03  0.818E-03    0.07       1.0  T
  20   -758.2425979 -0.910139E-04  0.287E-03    0.06       1.7  T
  21   -758.2426019 -0.396637E-05  0.225E-03    0.06       2.1  T
  22   -758.2425994  0.248944E-05  0.219E-03    0.06       2.2  T
  23   -758.2426052 -0.579626E-05  0.136E-03    0.06       3.6  T
  24   -758.2426077 -0.253298E-05  0.736E-04    0.06       6.6  T
  25   -758.2426086 -0.855544E-06  0.191E-04    0.06      25.3  T
  26   -758.2426086 -0.377281E-07  0.949E-05    0.06      50.9  T
     SCC iter.                  ...        0 min, 23.419 sec
     gradient                   ...        0 min,  1.032 sec
 * total energy  :  -745.9623925 Eh     change       -0.1702311E+00 Eh
   gradient norm :     0.2036531 Eh/α   predicted    -0.1735885E+00 (   1.97%)
   displ. norm   :     0.6857031 α      lambda       -0.1048338E+00
   maximum displ.:     0.2079783 α      in ANC's #605, #160, #717, ...

........................................................................
.............................. CYCLE    5 ..............................
........................................................................
   1   -758.2102615 -0.758210E+03  0.256E-01    0.17       0.0  T
   2   -757.2374726  0.972789E+00  0.988E-01    0.05       1.0  T
   3   -757.5416565 -0.304184E+00  0.656E-01    0.12       1.0  T
   4   -757.5615183 -0.198618E-01  0.620E-01    0.07       1.0  T
   5   -757.9989735 -0.437455E+00  0.453E-01    0.02       1.0  T
   6   -758.1149225 -0.115949E+00  0.379E-01    0.01       1.0  T
   7   -758.0787393  0.361832E-01  0.326E-01    0.03       1.0  T
   8   -758.2743263 -0.195587E+00  0.144E-01    0.06       1.0  T
   9   -758.2622586  0.120677E-01  0.166E-01    0.12       1.0  T
  10   -758.2894512 -0.271926E-01  0.714E-02    0.06       1.0  T
  11   -758.2728928  0.165584E-01  0.141E-01    0.10       1.0  T
  12   -758.2863789 -0.134861E-01  0.792E-02    0.06       1.0  T
  13   -758.2946247 -0.824577E-02  0.476E-02    0.06       1.0  T
  14   -758.3004008 -0.577609E-02  0.227E-02    0.07       1.0  T
  15   -758.3009750 -0.574244E-03  0.125E-02    0.07       1.0  T
  16   -758.3011431 -0.168118E-03  0.655E-03    0.07       1.0  T
  17   -758.3011618 -0.186615E-04  0.635E-03    0.07       1.0  T
  18   -758.3011985 -0.366900E-04  0.328E-03    0.07       1.5  T
  19   -758.3012098 -0.112913E-04  0.950E-04    0.07       5.1  T
  20   -758.3012103 -0.556003E-06  0.912E-04    0.07       5.3  T
  21   -758.3012110 -0.700292E-06  0.496E-04    0.07       9.7  T
  22   -758.3012111 -0.303980E-07  0.404E-04    0.07      12.0  T
  23   -758.3012112 -0.131328E-06  0.323E-04    0.07      15.0  T
  24   -758.3012113 -0.120874E-06  0.125E-04    0.07      38.7  T
  25   -758.3012113 -0.159750E-07  0.589E-05    0.07      82.0  T
     SCC iter.                  ...        0 min, 22.485 sec
     gradient                   ...        0 min,  0.985 sec
 * total energy  :  -746.0400109 Eh     change       -0.7761840E-01 Eh
   gradient norm :     0.1119603 Eh/α   predicted    -0.7706278E-01 (  -0.72%)
   displ. norm   :     0.7489654 α      lambda       -0.5705422E-01
   maximum displ.:     0.3423325 α      in ANC's #160, #156, #605, ...

........................................................................
.............................. CYCLE    6 ..............................
........................................................................
   1   -758.3844096 -0.758384E+03  0.183E-01    0.14       0.0  T
   2   -757.5526406  0.831769E+00  0.889E-01    0.07       1.0  T
   3   -757.6468567 -0.942161E-01  0.648E-01    0.15       1.0  T
   4   -757.9792520 -0.332395E+00  0.513E-01    0.04       1.0  T
   5   -758.1324583 -0.153206E+00  0.399E-01    0.02       1.0  T
   6   -758.3314258 -0.198967E+00  0.264E-01    0.01       1.0  T
   7   -758.4227358 -0.913100E-01  0.655E-02    0.10       1.0  T
   8   -758.4151922  0.754359E-02  0.687E-02    0.07       1.0  T
   9   -758.4253865 -0.101943E-01  0.492E-02    0.08       1.0  T
  10   -758.4243947  0.991772E-03  0.548E-02    0.08       1.0  T
  11   -758.4273897 -0.299495E-02  0.288E-02    0.07       1.0  T
  12   -758.4284092 -0.101952E-02  0.234E-02    0.08       1.0  T
  13   -758.4288211 -0.411864E-03  0.165E-02    0.08       1.0  T
  14   -758.4291978 -0.376771E-03  0.872E-03    0.08       1.0  T
  15   -758.4292335 -0.356392E-04  0.634E-03    0.08       1.0  T
  16   -758.4292641 -0.306376E-04  0.497E-03    0.08       1.0  T
  17   -758.4292955 -0.313737E-04  0.306E-03    0.08       1.6  T
  18   -758.4293141 -0.186150E-04  0.142E-03    0.08       3.4  T
  19   -758.4293184 -0.427976E-05  0.589E-04    0.08       8.2  T
  20   -758.4293189 -0.524066E-06  0.322E-04    0.08      15.0  T
  21   -758.4293191 -0.155608E-06  0.131E-04    0.08      37.0  T
  22   -758.4293191 -0.282513E-07  0.506E-05    0.08      95.6  T
     SCC iter.                  ...        0 min, 19.814 sec
     gradient                   ...        0 min,  0.995 sec
 * total energy  :  -746.0854113 Eh     change       -0.4540041E-01 Eh
   gradient norm :     0.0730078 Eh/α   predicted    -0.4452957E-01 (  -1.92%)
   displ. norm   :     0.8097084 α      lambda       -0.3900659E-01
   maximum displ.:     0.4520777 α      in ANC's #160, #156, #177, ...

........................................................................
.............................. CYCLE    7 ..............................
........................................................................
   1   -758.5265646 -0.758527E+03  0.157E-01    0.12       0.0  T
   2   -757.5158054  0.101076E+01  0.926E-01    0.10       1.0  T
   3   -757.9033124 -0.387507E+00  0.593E-01    0.11       1.0  T
   4   -758.4044665 -0.501154E+00  0.341E-01    0.01       1.0  T
   5   -758.3344330  0.700335E-01  0.383E-01    0.01       1.0  T
   6   -758.4534654 -0.119032E+00  0.292E-01    0.03       1.0  T
   7   -758.5480144 -0.945490E-01  0.838E-02    0.09       1.0  T
   8   -758.5478062  0.208166E-03  0.578E-02    0.06       1.0  T
   9   -758.5572983 -0.949202E-02  0.324E-02    0.09       1.0  T
  10   -758.5561697  0.112854E-02  0.312E-02    0.08       1.0  T
  11   -758.5585755 -0.240583E-02  0.115E-02    0.09       1.0  T
  12   -758.5587815 -0.205916E-03  0.658E-03    0.08       1.0  T
  13   -758.5587605  0.209944E-04  0.810E-03    0.08       1.0  T
  14   -758.5588596 -0.990871E-04  0.326E-03    0.08       1.5  T
  15   -758.5588751 -0.155726E-04  0.823E-04    0.08       5.9  T
  16   -758.5588759 -0.775884E-06  0.416E-04    0.08      11.6  T
  17   -758.5588750  0.873949E-06  0.766E-04    0.08       6.3  T
  18   -758.5588757 -0.692471E-06  0.515E-04    0.08       9.4  T
  19   -758.5588760 -0.266307E-06  0.324E-04    0.08      14.9  T
  20   -758.5588762 -0.258867E-06  0.123E-04    0.08      39.4  T
  21   -758.5588763 -0.253335E-07  0.521E-05    0.08      92.8  T
     SCC iter.                  ...        0 min, 19.092 sec
     gradient                   ...        0 min,  0.976 sec
 * total energy  :  -746.1183669 Eh     change       -0.3295556E-01 Eh
   gradient norm :     0.0481930 Eh/α   predicted    -0.3229030E-01 (  -2.02%)
   displ. norm   :     0.8519010 α      lambda       -0.3033134E-01
   maximum displ.:     0.5225799 α      in ANC's #160, #156, #177, ...

........................................................................
.............................. CYCLE    8 ..............................
........................................................................
   1   -758.6859907 -0.758686E+03  0.623E-02    0.10       0.0  T
   2   -757.6906372  0.995353E+00  0.765E-01    0.04       1.0  T
   3   -757.8007762 -0.110139E+00  0.640E-01    0.10       1.0  T
   4   -758.6841646 -0.883388E+00  0.708E-02    0.06       1.0  T
   5   -758.6610588  0.231058E-01  0.149E-01    0.05       1.0  T
   6   -758.6318431  0.292157E-01  0.137E-01    0.02       1.0  T
   7   -758.6815356 -0.496925E-01  0.621E-02    0.09       1.0  T
   8   -758.6870391 -0.550350E-02  0.549E-02    0.09       1.0  T
   9   -758.6894087 -0.236960E-02  0.344E-02    0.09       1.0  T
  10   -758.6911495 -0.174075E-02  0.772E-03    0.09       1.0  T
  11   -758.6911045  0.449788E-04  0.928E-03    0.09       1.0  T
  12   -758.6912210 -0.116506E-03  0.293E-03    0.09       1.7  T
  13   -758.6911922  0.288296E-04  0.451E-03    0.09       1.1  T
  14   -758.6912297 -0.375470E-04  0.137E-03    0.09       3.5  T
  15   -758.6912343 -0.459314E-05  0.424E-04    0.09      11.4  T
  16   -758.6912344 -0.134173E-06  0.441E-04    0.09      11.0  T
  17   -758.6912346 -0.148322E-06  0.302E-04    0.09      16.0  T
  18   -758.6912347 -0.116438E-06  0.101E-04    0.09      47.7  T
  19   -758.6912347 -0.229633E-07  0.389E-05    0.09     124.2  T
     SCC iter.                  ...        0 min, 16.983 sec
     gradient                   ...        0 min,  0.978 sec
 * total energy  :  -746.1447391 Eh     change       -0.2637227E-01 Eh
   gradient norm :     0.0397898 Eh/α   predicted    -0.2617194E-01 (  -0.76%)
   displ. norm   :     0.8789237 α      lambda       -0.2499350E-01
   maximum displ.:     0.5754465 α      in ANC's #160, #156, #117, ...

........................................................................
.............................. CYCLE    9 ..............................
........................................................................
   1   -758.7941298 -0.758794E+03  0.550E-02    0.08       0.0  T
   2   -758.0419291  0.752201E+00  0.729E-01    0.06       1.0  T
   3   -758.7145126 -0.672584E+00  0.238E-01    0.03       1.0  T
   4   -758.7839455 -0.694329E-01  0.971E-02    0.09       1.0  T
   5   -758.7740037  0.994180E-02  0.120E-01    0.06       1.0  T
   6   -758.7487946  0.252090E-01  0.142E-01    0.03       1.0  T
   7   -758.7901765 -0.413819E-01  0.742E-02    0.10       1.0  T
   8   -758.7969256 -0.674902E-02  0.250E-02    0.09       1.0  T
   9   -758.7961265  0.799090E-03  0.243E-02    0.08       1.0  T
  10   -758.7976706 -0.154413E-02  0.167E-02    0.08       1.0  T
  11   -758.7979036 -0.233021E-03  0.979E-03    0.08       1.0  T
  12   -758.7980634 -0.159808E-03  0.118E-03    0.08       4.1  T
  13   -758.7980623  0.114685E-05  0.149E-03    0.08       3.2  T
  14   -758.7980647 -0.240659E-05  0.871E-04    0.08       5.6  T
  15   -758.7980663 -0.157577E-05  0.411E-04    0.08      11.8  T
  16   -758.7980665 -0.265542E-06  0.157E-04    0.08      30.7  T
  17   -758.7980666 -0.324632E-07  0.557E-05    0.08      86.7  T
     SCC iter.                  ...        0 min, 15.588 sec
     gradient                   ...        0 min,  0.986 sec
 * total energy  :  -746.1661950 Eh     change       -0.2145586E-01 Eh
   gradient norm :     0.0378663 Eh/α   predicted    -0.2215059E-01 (   3.24%)
   displ. norm   :     0.9152081 α      lambda       -0.2232592E-01
   maximum displ.:     0.5815499 α      in ANC's #160, #156, #96, ...

........................................................................
.............................. CYCLE   10 ..............................
........................................................................
   1   -758.8871162 -0.758887E+03  0.242E-02    0.07       0.0  T
   2   -758.5449118  0.342204E+00  0.475E-01    0.12       1.0  T
   3   -758.8730651 -0.328153E+00  0.925E-02    0.13       1.0  T
   4   -758.8855964 -0.125314E-01  0.400E-02    0.07       1.0  T
   5   -758.8818254  0.377104E-02  0.620E-02    0.07       1.0  T
   6   -758.8855124 -0.368704E-02  0.383E-02    0.08       1.0  T
   7   -758.8871296 -0.161717E-02  0.231E-02    0.09       1.0  T
   8   -758.8758877  0.112418E-01  0.680E-02    0.06       1.0  T
   9   -758.8875382 -0.116505E-01  0.157E-02    0.08       1.0  T
  10   -758.8879578 -0.419648E-03  0.403E-03    0.08       1.2  T
  11   -758.8879717 -0.138253E-04  0.262E-03    0.08       1.8  T
  12   -758.8879837 -0.120360E-04  0.757E-04    0.08       6.4  T
  13   -758.8879843 -0.637032E-06  0.567E-04    0.08       8.5  T
  14   -758.8879850 -0.658986E-06  0.299E-04    0.08      16.2  T
  15   -758.8879852 -0.163122E-06  0.112E-04    0.08      43.1  T
  16   -758.8879852 -0.126486E-07  0.536E-05    0.08      90.3  T
     SCC iter.                  ...        0 min, 14.322 sec
     gradient                   ...        0 min,  0.985 sec
 * total energy  :  -746.1832260 Eh     change       -0.1703101E-01 Eh
   gradient norm :     0.0393298 Eh/α   predicted    -0.2051312E-01 (  20.45%)
   displ. norm   :     0.8470326 α      lambda       -0.1889383E-01
   maximum displ.:     0.5732091 α      in ANC's #160, #117, #128, ...

........................................................................
.............................. CYCLE   11 ..............................
........................................................................
   1   -758.9603178 -0.758960E+03  0.785E-02    0.07       0.0  T
   2   -758.8059527  0.154365E+00  0.399E-01    0.16       1.0  T
   3   -758.7088337  0.971190E-01  0.339E-01    0.04       1.0  T
   4   -758.8900686 -0.181235E+00  0.246E-01    0.05       1.0  T
   5   -758.9132035 -0.231349E-01  0.187E-01    0.08       1.0  T
   6   -758.9505988 -0.373954E-01  0.119E-01    0.07       1.0  T
   7   -758.9480604  0.253841E-02  0.125E-01    0.05       1.0  T
   8   -758.9287809  0.192795E-01  0.113E-01    0.03       1.0  T
   9   -758.9633649 -0.345840E-01  0.660E-02    0.08       1.0  T
  10   -758.9685147 -0.514978E-02  0.186E-02    0.08       1.0  T
  11   -758.9685083  0.639138E-05  0.192E-02    0.08       1.0  T
  12   -758.9689235 -0.415183E-03  0.591E-03    0.08       1.0  T
  13   -758.9689979 -0.744172E-04  0.110E-03    0.08       4.4  T
  14   -758.9689762  0.217260E-04  0.416E-03    0.08       1.2  T
  15   -758.9689947 -0.185192E-04  0.210E-03    0.08       2.3  T
  16   -758.9689995 -0.478955E-05  0.823E-04    0.08       5.9  T
  17   -758.9690004 -0.837690E-06  0.209E-04    0.08      23.1  T
  18   -758.9690004 -0.292207E-07  0.148E-04    0.08      32.7  T
  19   -758.9690004 -0.267206E-07  0.573E-05    0.08      84.4  T
     SCC iter.                  ...        0 min, 17.016 sec
     gradient                   ...        0 min,  0.993 sec
 * total energy  :  -746.1979135 Eh     change       -0.1468746E-01 Eh
   gradient norm :     0.0472341 Eh/α   predicted    -0.1622474E-01 (  10.47%)
   displ. norm   :     0.8307169 α      lambda       -0.1403563E-01
   maximum displ.:     0.5420884 α      in ANC's #160, #117, #156, ...

........................................................................
.............................. CYCLE   12 ..............................
........................................................................
   1   -759.0261435 -0.759026E+03  0.369E-02    0.07       0.0  T
   2   -758.3328047  0.693339E+00  0.635E-01    0.02       1.0  T
   3   -758.9980343 -0.665230E+00  0.133E-01    0.11       1.0  T
   4   -758.9851991  0.128353E-01  0.136E-01    0.06       1.0  T
   5   -759.0222411 -0.370420E-01  0.701E-02    0.07       1.0  T
   6   -759.0066885  0.155526E-01  0.781E-02    0.05       1.0  T
   7   -759.0254779 -0.187894E-01  0.460E-02    0.08       1.0  T
   8   -759.0271817 -0.170373E-02  0.268E-02    0.08       1.0  T
   9   -759.0277995 -0.617791E-03  0.174E-02    0.08       1.0  T
  10   -759.0280436 -0.244150E-03  0.695E-03    0.08       1.0  T
  11   -759.0280078  0.357717E-04  0.861E-03    0.08       1.0  T
  12   -759.0281738 -0.165979E-03  0.154E-03    0.08       3.1  T
  13   -759.0281757 -0.189667E-05  0.144E-03    0.08       3.4  T
  14   -759.0281771 -0.142025E-05  0.963E-04    0.08       5.0  T
  15   -759.0281781 -0.936519E-06  0.415E-04    0.08      11.6  T
  16   -759.0281783 -0.222472E-06  0.264E-05    0.08     183.3  T
  17   -759.0281783 -0.609589E-09  0.235E-05    0.08     205.8  T
     SCC iter.                  ...        0 min, 15.201 sec
     gradient                   ...        0 min,  0.982 sec
 * total energy  :  -746.2096846 Eh     change       -0.1177113E-01 Eh
   gradient norm :     0.0241701 Eh/α   predicted    -0.1186075E-01 (   0.76%)
   displ. norm   :     0.8648004 α      lambda       -0.1134218E-01
   maximum displ.:     0.5313469 α      in ANC's #160, #117, #96, ...

........................................................................
.............................. CYCLE   13 ..............................
........................................................................
   1   -759.0852726 -0.759085E+03  0.154E-02    0.07       0.0  T
   2   -758.8662465  0.219026E+00  0.372E-01    0.09       1.0  T
   3   -759.0796077 -0.213361E+00  0.532E-02    0.09       1.0  T
   4   -759.0796784 -0.706986E-04  0.528E-02    0.07       1.0  T
   5   -759.0767461  0.293223E-02  0.697E-02    0.06       1.0  T
   6   -759.0724805  0.426559E-02  0.765E-02    0.05       1.0  T
   7   -759.0793707 -0.689019E-02  0.483E-02    0.07       1.0  T
   8   -759.0851075 -0.573673E-02  0.162E-02    0.08       1.0  T
   9   -759.0852418 -0.134341E-03  0.147E-02    0.08       1.0  T
  10   -759.0855426 -0.300841E-03  0.635E-03    0.08       1.0  T
  11   -759.0855979 -0.552321E-04  0.126E-03    0.08       3.8  T
  12   -759.0855982 -0.328197E-06  0.854E-04    0.08       5.7  T
  13   -759.0855989 -0.741910E-06  0.702E-04    0.08       6.9  T
  14   -759.0855998 -0.809618E-06  0.356E-04    0.08      13.6  T
  15   -759.0855999 -0.151826E-06  0.132E-04    0.08      36.5  T
  16   -759.0855999 -0.138197E-07  0.880E-05    0.08      55.0  T
     SCC iter.                  ...        0 min, 14.338 sec
     gradient                   ...        0 min,  0.984 sec
 * total energy  :  -746.2189605 Eh     change       -0.9275919E-02 Eh
   gradient norm :     0.0245594 Eh/α   predicted    -0.9912386E-02 (   6.86%)
   displ. norm   :     0.8735387 α      lambda       -0.1070379E-01
   maximum displ.:     0.4824495 α      in ANC's #160, #117, #96, ...

........................................................................
.............................. CYCLE   14 ..............................
........................................................................
   1   -759.1410891 -0.759141E+03  0.288E-02    0.08       0.0  T
   2   -759.0400411  0.101048E+00  0.297E-01    0.11       1.0  T
   3   -759.0725560 -0.325148E-01  0.185E-01    0.02       1.0  T
   4   -759.1282471 -0.556912E-01  0.751E-02    0.05       1.0  T
   5   -759.1352465 -0.699939E-02  0.613E-02    0.07       1.0  T
   6   -759.1269420  0.830447E-02  0.909E-02    0.07       1.0  T
   7   -759.1271495 -0.207408E-03  0.669E-02    0.05       1.0  T
   8   -759.1388193 -0.116698E-01  0.497E-02    0.08       1.0  T
   9   -759.1414707 -0.265142E-02  0.164E-02    0.08       1.0  T
  10   -759.1418717 -0.400995E-03  0.117E-02    0.08       1.0  T
  11   -759.1420624 -0.190671E-03  0.295E-03    0.08       1.6  T
  12   -759.1420380  0.243959E-04  0.528E-03    0.08       1.0  T
  13   -759.1420624 -0.244472E-04  0.296E-03    0.08       1.6  T
  14   -759.1420735 -0.110976E-04  0.490E-04    0.08       9.9  T
  15   -759.1420736 -0.509378E-07  0.415E-04    0.08      11.7  T
  16   -759.1420738 -0.237961E-06  0.125E-04    0.08      38.6  T
  17   -759.1420738 -0.258979E-09  0.124E-04    0.08      39.1  T
     SCC iter.                  ...        0 min, 15.186 sec
     gradient                   ...        0 min,  0.985 sec
 * total energy  :  -746.2266370 Eh     change       -0.7676465E-02 Eh
   gradient norm :     0.0251615 Eh/α   predicted    -0.9435766E-02 (  22.92%)
   displ. norm   :     0.7929464 α      lambda       -0.7660936E-02
   maximum displ.:     0.3575217 α      in ANC's #160, #117, #104, ...

........................................................................
.............................. CYCLE   15 ..............................
........................................................................
   1   -759.1800492 -0.759180E+03  0.100E-02    0.08       0.0  T
   2   -759.1031963  0.768529E-01  0.173E-01    0.02       1.0  T
   3   -759.1660894 -0.628931E-01  0.101E-01    0.07       1.0  T
   4   -759.1790023 -0.129129E-01  0.221E-02    0.07       1.0  T
   5   -759.1779114  0.109095E-02  0.396E-02    0.08       1.0  T
   6   -759.1789193 -0.100794E-02  0.236E-02    0.08       1.0  T
   7   -759.1782940  0.625278E-03  0.244E-02    0.07       1.0  T
   8   -759.1798989 -0.160487E-02  0.145E-02    0.08       1.0  T
   9   -759.1801453 -0.246381E-03  0.754E-03    0.08       1.0  T
  10   -759.1802154 -0.700999E-04  0.187E-03    0.08       2.6  T
  11   -759.1802201 -0.477652E-05  0.928E-04    0.08       5.2  T
  12   -759.1802206 -0.463218E-06  0.827E-04    0.08       5.8  T
  13   -759.1802214 -0.788934E-06  0.241E-04    0.08      20.0  T
  14   -759.1802215 -0.133242E-06  0.125E-04    0.08      38.6  T
  15   -759.1802216 -0.189169E-07  0.609E-05    0.08      79.4  T
     SCC iter.                  ...        0 min, 13.476 sec
     gradient                   ...        0 min,  0.984 sec
 * total energy  :  -746.2328342 Eh     change       -0.6197197E-02 Eh
   gradient norm :     0.0181068 Eh/α   predicted    -0.6238936E-02 (   0.67%)
   displ. norm   :     0.8359059 α      lambda       -0.6827569E-02
   maximum displ.:     0.2953743 α      in ANC's #160, #96, #128, ...

........................................................................
.............................. CYCLE   16 ..............................
........................................................................
   1   -759.2065331 -0.759207E+03  0.254E-02    0.08       0.0  T
   2   -758.6899294  0.516604E+00  0.572E-01    0.03       1.0  T
   3   -759.1372166 -0.447287E+00  0.160E-01    0.02       1.0  T
   4   -759.2053351 -0.681185E-01  0.354E-02    0.07       1.0  T
   5   -759.1887738  0.165613E-01  0.891E-02    0.05       1.0  T
   6   -759.1919832 -0.320940E-02  0.777E-02    0.06       1.0  T
   7   -759.2035075 -0.115243E-01  0.421E-02    0.09       1.0  T
   8   -759.2038360 -0.328548E-03  0.367E-02    0.08       1.0  T
   9   -759.2067961 -0.296008E-02  0.171E-02    0.08       1.0  T
  10   -759.2072610 -0.464933E-03  0.782E-03    0.08       1.0  T
  11   -759.2073662 -0.105195E-03  0.343E-03    0.08       1.4  T
  12   -759.2073894 -0.231494E-04  0.155E-03    0.08       3.1  T
  13   -759.2073932 -0.382098E-05  0.512E-04    0.08       9.4  T
  14   -759.2073937 -0.528575E-06  0.235E-04    0.08      20.6  T
  15   -759.2073938 -0.313571E-07  0.148E-04    0.08      32.7  T
  16   -759.2073938 -0.258415E-07  0.873E-05    0.08      55.4  T
     SCC iter.                  ...        0 min, 14.375 sec
     gradient                   ...        0 min,  0.983 sec
 * total energy  :  -746.2376827 Eh     change       -0.4848545E-02 Eh
   gradient norm :     0.0279248 Eh/α   predicted    -0.5799128E-02 (  19.61%)
   displ. norm   :     0.7814012 α      lambda       -0.5976531E-02
   maximum displ.:     0.2008406 α      in ANC's #117, #160, #100, ...

........................................................................
.............................. CYCLE   17 ..............................
........................................................................
   1   -759.2298021 -0.759230E+03  0.227E-02    0.09       0.0  T
   2   -758.9503056  0.279496E+00  0.448E-01    0.00       1.0  T
   3   -759.1722903 -0.221985E+00  0.151E-01    0.02       1.0  T
   4   -759.2259004 -0.536101E-01  0.459E-02    0.06       1.0  T
   5   -759.2287982 -0.289782E-02  0.359E-02    0.08       1.0  T
   6   -759.2250050  0.379319E-02  0.602E-02    0.09       1.0  T
   7   -759.2296024 -0.459737E-02  0.230E-02    0.08       1.0  T
   8   -759.2300920 -0.489594E-03  0.154E-02    0.08       1.0  T
   9   -759.2304448 -0.352810E-03  0.672E-03    0.08       1.0  T
  10   -759.2305511 -0.106254E-03  0.337E-03    0.08       1.4  T
  11   -759.2305663 -0.152819E-04  0.811E-04    0.08       6.0  T
  12   -759.2305673 -0.929679E-06  0.607E-04    0.08       8.0  T
  13   -759.2305677 -0.468869E-06  0.224E-04    0.08      21.6  T
  14   -759.2305678 -0.520785E-07  0.876E-05    0.08      55.2  T
  15   -759.2305678 -0.923671E-08  0.730E-05    0.08      66.2  T
     SCC iter.                  ...        0 min, 13.407 sec
     gradient                   ...        0 min,  0.992 sec
 * total energy  :  -746.2419078 Eh     change       -0.4225052E-02 Eh
   gradient norm :     0.0227953 Eh/α   predicted    -0.4812862E-02 (  13.91%)
   displ. norm   :     0.7655213 α      lambda       -0.6227498E-02
   maximum displ.:     0.1911840 α      in ANC's #104, #117, #48, ...

........................................................................
.............................. CYCLE   18 ..............................
........................................................................
   1   -759.2491628 -0.759249E+03  0.274E-02    0.09       0.0  T
   2   -758.7648824  0.484280E+00  0.491E-01    0.06       1.0  T
   3   -759.1292799 -0.364398E+00  0.278E-01    0.02       1.0  T
   4   -759.2093497 -0.800697E-01  0.146E-01    0.05       1.0  T
   5   -759.2485215 -0.391718E-01  0.390E-02    0.08       1.0  T
   6   -759.2401819  0.833958E-02  0.705E-02    0.05       1.0  T
   7   -759.2371571  0.302479E-02  0.619E-02    0.05       1.0  T
   8   -759.2482913 -0.111342E-01  0.414E-02    0.08       1.0  T
   9   -759.2501786 -0.188729E-02  0.150E-02    0.08       1.0  T
  10   -759.2502455 -0.668384E-04  0.106E-02    0.08       1.0  T
  11   -759.2503898 -0.144285E-03  0.781E-03    0.08       1.0  T
  12   -759.2504613 -0.715545E-04  0.349E-03    0.08       1.4  T
  13   -759.2504748 -0.134573E-04  0.139E-03    0.08       3.5  T
  14   -759.2504758 -0.103796E-05  0.104E-03    0.08       4.6  T
  15   -759.2504770 -0.120775E-05  0.341E-04    0.08      14.2  T
  16   -759.2504771 -0.959152E-07  0.245E-04    0.08      19.7  T
  17   -759.2504772 -0.588369E-07  0.119E-04    0.08      40.5  T
  18   -759.2504772 -0.156645E-07  0.411E-05    0.08     117.5  T
     SCC iter.                  ...        0 min, 16.086 sec
     gradient                   ...        0 min,  0.986 sec
 * total energy  :  -746.2457996 Eh     change       -0.3891792E-02 Eh
   gradient norm :     0.0291669 Eh/α   predicted    -0.4938490E-02 (  26.90%)
   displ. norm   :     0.7410303 α      lambda       -0.4575561E-02
   maximum displ.:     0.1817233 α      in ANC's #96, #100, #67, ...

........................................................................
.............................. CYCLE   19 ..............................
........................................................................
   1   -759.2515024 -0.759252E+03  0.265E-02    0.09       0.0  T
   2   -758.8453954  0.406107E+00  0.548E-01    0.04       1.0  T
   3   -759.1774901 -0.332095E+00  0.174E-01    0.01       1.0  T
   4   -759.2461131 -0.686230E-01  0.526E-02    0.06       1.0  T
   5   -759.2514855 -0.537241E-02  0.243E-02    0.08       1.0  T
   6   -759.2494085  0.207703E-02  0.495E-02    0.08       1.0  T
   7   -759.2517987 -0.239019E-02  0.156E-02    0.08       1.0  T
   8   -759.2523994 -0.600779E-03  0.553E-03    0.08       1.0  T
   9   -759.2520525  0.346947E-03  0.119E-02    0.08       1.0  T
  10   -759.2524401 -0.387649E-03  0.233E-03    0.08       2.1  T
  11   -759.2524534 -0.133098E-04  0.645E-04    0.08       7.5  T
  12   -759.2524540 -0.539458E-06  0.478E-04    0.08      10.1  T
  13   -759.2524543 -0.347478E-06  0.146E-04    0.08      33.2  T
  14   -759.2524543 -0.123032E-07  0.865E-05    0.08      55.9  T
     SCC iter.                  ...        0 min, 12.555 sec
     gradient                   ...        0 min,  0.987 sec
 * total energy  :  -746.2496590 Eh     change       -0.3859487E-02 Eh
   gradient norm :     0.0168571 Eh/α   predicted    -0.3544064E-02 (  -8.17%)
   displ. norm   :     0.8273018 α      lambda       -0.5172333E-02
   maximum displ.:     0.2147452 α      in ANC's #100, #29, #108, ...

........................................................................
.............................. CYCLE   20 ..............................
........................................................................
   1   -759.2508846 -0.759251E+03  0.492E-02    0.09       0.0  T
   2   -758.4034724  0.847412E+00  0.718E-01    0.02       1.0  T
   3   -758.6454708 -0.241998E+00  0.491E-01    0.03       1.0  T
   4   -759.2441971 -0.598726E+00  0.870E-02    0.06       1.0  T
   5   -759.2479312 -0.373403E-02  0.680E-02    0.07       1.0  T
   6   -759.2465432  0.138795E-02  0.626E-02    0.10       1.0  T
   7   -759.2465984 -0.551408E-04  0.515E-02    0.07       1.0  T
   8   -759.2525551 -0.595677E-02  0.316E-02    0.09       1.0  T
   9   -759.2537159 -0.116075E-02  0.140E-02    0.08       1.0  T
  10   -759.2540184 -0.302533E-03  0.102E-02    0.08       1.0  T
  11   -759.2541485 -0.130041E-03  0.282E-03    0.08       1.7  T
  12   -759.2541590 -0.105061E-04  0.146E-03    0.08       3.3  T
  13   -759.2541627 -0.374334E-05  0.656E-04    0.08       7.4  T
  14   -759.2541637 -0.966378E-06  0.271E-04    0.08      17.8  T
  15   -759.2541637 -0.479394E-07  0.253E-04    0.08      19.1  T
  16   -759.2541638 -0.922805E-07  0.179E-04    0.08      26.9  T
  17   -759.2541639 -0.478374E-07  0.669E-05    0.08      72.2  T
     SCC iter.                  ...        0 min, 15.185 sec
     gradient                   ...        0 min,  0.998 sec
 * total energy  :  -746.2525446 Eh     change       -0.2885534E-02 Eh
   gradient norm :     0.0292242 Eh/α   predicted    -0.4356221E-02 (  50.97%)
   displ. norm   :     0.6970765 α      lambda       -0.4796028E-02
   maximum displ.:     0.1901819 α      in ANC's #29, #100, #67, ...
 * RMSD in coord.:     0.5654243 α      energy gain  -0.1707927E+01 Eh

generating ANC from model Hessian ...
Using Lindh-Hessian (1995)
 Shifting diagonal of input Hessian by    1.0037310390660966E-002
 Lowest  eigenvalues of input Hessian
    0.010000    0.010005    0.010037    0.010037    0.010037    0.010037
    0.010037    0.010037    0.000000    0.000000    0.000000    0.000000
    0.000000    0.000000    0.010037    0.010038    0.010038    0.010038
 Highest eigenvalues
    2.967463    2.968020    2.979245    2.982155    2.983652    2.984438


........................................................................
.............................. CYCLE   21 ..............................
........................................................................
   1   -759.2574810 -0.759257E+03  0.170E-02    0.09       0.0  T
   2   -758.8188376  0.438643E+00  0.483E-01    0.02       1.0  T
   3   -759.2179024 -0.399065E+00  0.127E-01    0.03       1.0  T
   4   -759.2562475 -0.383452E-01  0.289E-02    0.07       1.0  T
   5   -759.2569041 -0.656611E-03  0.240E-02    0.09       1.0  T
   6   -759.2576924 -0.788298E-03  0.108E-02    0.08       1.0  T
   7   -759.2574471  0.245333E-03  0.192E-02    0.08       1.0  T
   8   -759.2578160 -0.368873E-03  0.504E-03    0.08       1.0  T
   9   -759.2578827 -0.666748E-04  0.388E-03    0.08       1.2  T
  10   -759.2579235 -0.408793E-04  0.147E-03    0.08       3.3  T
  11   -759.2579267 -0.319545E-05  0.613E-04    0.08       7.9  T
  12   -759.2579274 -0.720564E-06  0.139E-04    0.08      34.8  T
  13   -759.2579275 -0.298992E-07  0.102E-04    0.08      47.5  T
     SCC iter.                  ...        0 min, 11.633 sec
     gradient                   ...        0 min,  0.989 sec
 * total energy  :  -746.2562235 Eh     change       -0.3678895E-02 Eh
   gradient norm :     0.0181407 Eh/α   predicted     0.0000000E+00 (-100.00%)
   displ. norm   :     0.3218645 α      lambda       -0.1645916E-02
   maximum displ.:     0.1073128 α      in ANC's #107, #111, #110, ...

........................................................................
.............................. CYCLE   22 ..............................
........................................................................
   1   -759.2573093 -0.759257E+03  0.116E-02    0.08       0.0  T
   2   -759.2121263  0.451830E-01  0.192E-01    0.10       1.0  T
   3   -759.2554418 -0.433155E-01  0.305E-02    0.07       1.0  T
   4   -759.2570786 -0.163685E-02  0.141E-02    0.08       1.0  T
   5   -759.2564829  0.595674E-03  0.204E-02    0.08       1.0  T
   6   -759.2560815  0.401409E-03  0.266E-02    0.08       1.0  T
   7   -759.2571214 -0.103988E-02  0.105E-02    0.08       1.0  T
   8   -759.2574289 -0.307518E-03  0.660E-03    0.08       1.0  T
   9   -759.2574621 -0.331897E-04  0.388E-03    0.08       1.2  T
  10   -759.2574835 -0.213474E-04  0.136E-03    0.08       3.5  T
  11   -759.2574872 -0.377829E-05  0.743E-04    0.08       6.5  T
  12   -759.2574880 -0.714583E-06  0.994E-05    0.08      48.6  T
  13   -759.2574880 -0.148837E-07  0.702E-05    0.08      68.9  T
     SCC iter.                  ...        0 min, 11.646 sec
     gradient                   ...        0 min,  0.992 sec
 * total energy  :  -746.2574787 Eh     change       -0.1255224E-02 Eh
   gradient norm :     0.0084001 Eh/α   predicted    -0.9087205E-03 ( -27.60%)
   displ. norm   :     0.7923220 α      lambda       -0.3710772E-02
   maximum displ.:     0.2808617 α      in ANC's #107, #111, #110, ...

........................................................................
.............................. CYCLE   23 ..............................
........................................................................
   1   -759.2536927 -0.759254E+03  0.214E-02    0.08       0.0  T
   2   -759.1656909  0.880018E-01  0.270E-01    0.12       1.0  T
   3   -759.2426989 -0.770080E-01  0.796E-02    0.06       1.0  T
   4   -759.2513121 -0.861322E-02  0.343E-02    0.07       1.0  T
   5   -759.2496730  0.163913E-02  0.450E-02    0.08       1.0  T
   6   -759.2503066 -0.633576E-03  0.452E-02    0.08       1.0  T
   7   -759.2508854 -0.578830E-03  0.330E-02    0.07       1.0  T
   8   -759.2535408 -0.265537E-02  0.227E-02    0.08       1.0  T
   9   -759.2541177 -0.576911E-03  0.103E-02    0.08       1.0  T
  10   -759.2542504 -0.132737E-03  0.390E-03    0.08       1.2  T
  11   -759.2542824 -0.320015E-04  0.178E-03    0.08       2.7  T
  12   -759.2542871 -0.466349E-05  0.852E-04    0.08       5.7  T
  13   -759.2542880 -0.904399E-06  0.190E-04    0.08      25.5  T
  14   -759.2542881 -0.543159E-07  0.895E-05    0.08      54.0  T
     SCC iter.                  ...        0 min, 12.550 sec
     gradient                   ...        0 min,  0.989 sec
 * total energy  :  -746.2597065 Eh     change       -0.2227845E-02 Eh
   gradient norm :     0.0372900 Eh/α   predicted    -0.3020153E-02 (  35.56%)
   displ. norm   :     0.6488631 α      lambda       -0.3038147E-02
   maximum displ.:     0.2260567 α      in ANC's #107, #111, #110, ...

........................................................................
.............................. CYCLE   24 ..............................
........................................................................
   1   -759.2516806 -0.759252E+03  0.486E-03    0.08       0.0  T
   2   -759.2394487  0.122320E-01  0.781E-02    0.08       1.0  T
   3   -759.2503879 -0.109392E-01  0.241E-02    0.08       1.0  T
   4   -759.2512607 -0.872816E-03  0.170E-02    0.08       1.0  T
   5   -759.2514838 -0.223124E-03  0.116E-02    0.08       1.0  T
   6   -759.2505763  0.907489E-03  0.216E-02    0.08       1.0  T
   7   -759.2515516 -0.975242E-03  0.102E-02    0.08       1.0  T
   8   -759.2515823 -0.307096E-04  0.665E-03    0.08       1.0  T
   9   -759.2516978 -0.115520E-03  0.229E-03    0.08       2.1  T
  10   -759.2517113 -0.135028E-04  0.710E-04    0.08       6.8  T
  11   -759.2517120 -0.692879E-06  0.489E-04    0.08       9.9  T
  12   -759.2517123 -0.323200E-06  0.612E-05    0.08      78.9  T
  13   -759.2517123 -0.675732E-08  0.150E-05    0.08     321.9  T
     SCC iter.                  ...        0 min, 11.630 sec
     gradient                   ...        0 min,  0.993 sec
 * total energy  :  -746.2621166 Eh     change       -0.2410022E-02 Eh
   gradient norm :     0.0282145 Eh/α   predicted    -0.2158668E-02 ( -10.43%)
   displ. norm   :     0.7351009 α      lambda       -0.3829699E-02
   maximum displ.:     0.2531410 α      in ANC's #107, #111, #110, ...

........................................................................
.............................. CYCLE   25 ..............................
........................................................................
   1   -759.2490704 -0.759249E+03  0.151E-02    0.08       0.0  T
   2   -759.0119378  0.237133E+00  0.400E-01    0.07       1.0  T
   3   -759.2419889 -0.230051E+00  0.520E-02    0.06       1.0  T
   4   -759.2460312 -0.404231E-02  0.385E-02    0.07       1.0  T
   5   -759.2452394  0.791861E-03  0.400E-02    0.08       1.0  T
   6   -759.2460839 -0.844470E-03  0.348E-02    0.07       1.0  T
   7   -759.2485856 -0.250176E-02  0.177E-02    0.08       1.0  T
   8   -759.2489144 -0.328776E-03  0.156E-02    0.09       1.0  T
   9   -759.2490427 -0.128342E-03  0.129E-02    0.08       1.0  T
  10   -759.2493423 -0.299588E-03  0.319E-03    0.08       1.5  T
  11   -759.2493636 -0.212622E-04  0.453E-04    0.08      10.7  T
  12   -759.2493638 -0.260950E-06  0.149E-04    0.08      32.4  T
  13   -759.2493638 -0.521368E-09  0.195E-04    0.08      24.8  T
     SCC iter.                  ...        0 min, 11.636 sec
     gradient                   ...        0 min,  0.989 sec
 * total energy  :  -746.2637868 Eh     change       -0.1670253E-02 Eh
   gradient norm :     0.0232084 Eh/α   predicted    -0.2949587E-02 (  76.60%)
   displ. norm   :     0.6322994 α      lambda       -0.3568816E-02
   maximum displ.:     0.2122066 α      in ANC's #107, #111, #110, ...

........................................................................
.............................. CYCLE   26 ..............................
........................................................................
   1   -759.2499248 -0.759250E+03  0.445E-03    0.08       0.0  T
   2   -759.2368666  0.130582E-01  0.971E-02    0.07       1.0  T
   3   -759.2494649 -0.125983E-01  0.158E-02    0.08       1.0  T
   4   -759.2497989 -0.333951E-03  0.792E-03    0.08       1.0  T
   5   -759.2494994  0.299414E-03  0.138E-02    0.08       1.0  T
   6   -759.2499141 -0.414699E-03  0.396E-03    0.08       1.2  T
   7   -759.2499402 -0.260788E-04  0.329E-03    0.08       1.5  T
   8   -759.2499008  0.393782E-04  0.367E-03    0.08       1.3  T
   9   -759.2499538 -0.529371E-04  0.624E-04    0.08       7.7  T
  10   -759.2499544 -0.646022E-06  0.191E-04    0.08      25.3  T
  11   -759.2499544 -0.176825E-07  0.113E-04    0.08      42.6  T
     SCC iter.                  ...        0 min,  9.836 sec
     gradient                   ...        0 min,  0.989 sec
 * total energy  :  -746.2659304 Eh     change       -0.2143568E-02 Eh
   gradient norm :     0.0213457 Eh/α   predicted    -0.2497822E-02 (  16.53%)
   displ. norm   :     0.6710155 α      lambda       -0.3426878E-02
   maximum displ.:     0.2323938 α      in ANC's #107, #111, #110, ...

........................................................................
.............................. CYCLE   27 ..............................
........................................................................
   1   -759.2466171 -0.759247E+03  0.169E-02    0.08       0.0  T
   2   -759.1926698  0.539474E-01  0.209E-01    0.08       1.0  T
   3   -759.2394806 -0.468108E-01  0.589E-02    0.06       1.0  T
   4   -759.2445491 -0.506851E-02  0.373E-02    0.07       1.0  T
   5   -759.2450254 -0.476332E-03  0.316E-02    0.08       1.0  T
   6   -759.2445998  0.425581E-03  0.354E-02    0.08       1.0  T
   7   -759.2463001 -0.170027E-02  0.175E-02    0.08       1.0  T
   8   -759.2465810 -0.280894E-03  0.172E-02    0.08       1.0  T
   9   -759.2470302 -0.449191E-03  0.171E-03    0.08       2.8  T
  10   -759.2470219  0.834394E-05  0.277E-03    0.08       1.7  T
  11   -759.2470342 -0.123436E-04  0.148E-03    0.08       3.3  T
  12   -759.2470367 -0.250366E-05  0.511E-04    0.08       9.5  T
  13   -759.2470371 -0.406566E-06  0.991E-05    0.08      48.8  T
  14   -759.2470371 -0.566558E-08  0.675E-05    0.08      71.6  T
     SCC iter.                  ...        0 min, 12.535 sec
     gradient                   ...        0 min,  0.994 sec
 * total energy  :  -746.2673830 Eh     change       -0.1452574E-02 Eh
   gradient norm :     0.0202370 Eh/α   predicted    -0.2484937E-02 (  71.07%)
   displ. norm   :     0.6432705 α      lambda       -0.3046142E-02
   maximum displ.:     0.2189235 α      in ANC's #107, #111, #110, ...

........................................................................
.............................. CYCLE   28 ..............................
........................................................................
   1   -759.2469375 -0.759247E+03  0.105E-02    0.08       0.0  T
   2   -759.1313797  0.115558E+00  0.280E-01    0.04       1.0  T
   3   -759.2413650 -0.109985E+00  0.485E-02    0.06       1.0  T
   4   -759.2458596 -0.449461E-02  0.230E-02    0.08       1.0  T
   5   -759.2463140 -0.454403E-03  0.210E-02    0.08       1.0  T
   6   -759.2455211  0.792963E-03  0.316E-02    0.09       1.0  T
   7   -759.2468798 -0.135876E-02  0.937E-03    0.08       1.0  T
   8   -759.2470255 -0.145677E-03  0.521E-03    0.08       1.0  T
   9   -759.2470698 -0.442723E-04  0.239E-03    0.08       2.0  T
  10   -759.2470850 -0.152753E-04  0.734E-04    0.08       6.6  T
  11   -759.2470859 -0.824356E-06  0.339E-04    0.08      14.2  T
  12   -759.2470860 -0.122758E-06  0.186E-04    0.08      26.0  T
  13   -759.2470861 -0.663272E-07  0.649E-05    0.08      74.4  T
     SCC iter.                  ...        0 min, 11.629 sec
     gradient                   ...        0 min,  0.991 sec
 * total energy  :  -746.2691562 Eh     change       -0.1773250E-02 Eh
   gradient norm :     0.0173523 Eh/α   predicted    -0.2153316E-02 (  21.43%)
   displ. norm   :     0.6454008 α      lambda       -0.3294132E-02
   maximum displ.:     0.2012843 α      in ANC's #107, #111, #110, ...

........................................................................
.............................. CYCLE   29 ..............................
........................................................................
   1   -759.2541808 -0.759254E+03  0.116E-02    0.09       0.0  T
   2   -759.1800486  0.741323E-01  0.236E-01    0.04       1.0  T
   3   -759.2522261 -0.721776E-01  0.339E-02    0.07       1.0  T
   4   -759.2522114  0.147473E-04  0.298E-02    0.08       1.0  T
   5   -759.2525284 -0.317066E-03  0.293E-02    0.08       1.0  T
   6   -759.2536327 -0.110426E-02  0.218E-02    0.08       1.0  T
   7   -759.2526429  0.989742E-03  0.255E-02    0.08       1.0  T
   8   -759.2542523 -0.160936E-02  0.764E-03    0.08       1.0  T
   9   -759.2543356 -0.832866E-04  0.425E-03    0.08       1.1  T
  10   -759.2543651 -0.295055E-04  0.184E-03    0.08       2.6  T
  11   -759.2543734 -0.829839E-05  0.269E-04    0.08      18.0  T
  12   -759.2543735 -0.104619E-06  0.155E-04    0.08      31.1  T
  13   -759.2543735 -0.452139E-07  0.516E-05    0.08      93.7  T
     SCC iter.                  ...        0 min, 11.648 sec
     gradient                   ...        0 min,  0.985 sec
 * total energy  :  -746.2703636 Eh     change       -0.1207431E-02 Eh
   gradient norm :     0.0221360 Eh/α   predicted    -0.2333143E-02 (  93.23%)
   displ. norm   :     0.6100827 α      lambda       -0.2788329E-02
   maximum displ.:     0.2107504 α      in ANC's #107, #111, #110, ...

........................................................................
.............................. CYCLE   30 ..............................
........................................................................
   1   -759.2543740 -0.759254E+03  0.381E-03    0.08       0.0  T
   2   -759.2495946  0.477934E-02  0.547E-02    0.06       1.0  T
   3   -759.2537245 -0.412981E-02  0.212E-02    0.08       1.0  T
   4   -759.2542090 -0.484562E-03  0.101E-02    0.08       1.0  T
   5   -759.2543356 -0.126568E-03  0.528E-03    0.09       1.0  T
   6   -759.2542442  0.913706E-04  0.917E-03    0.08       1.0  T
   7   -759.2541151  0.129118E-03  0.984E-03    0.08       1.0  T
   8   -759.2543848 -0.269667E-03  0.240E-03    0.08       2.0  T
   9   -759.2543951 -0.102899E-04  0.782E-04    0.08       6.2  T
  10   -759.2543960 -0.894997E-06  0.323E-04    0.08      15.0  T
  11   -759.2543961 -0.182772E-06  0.143E-04    0.08      33.7  T
  12   -759.2543962 -0.333258E-07  0.245E-05    0.08     196.9  T
     SCC iter.                  ...        0 min, 10.686 sec
     gradient                   ...        0 min,  0.985 sec
 * total energy  :  -746.2720256 Eh     change       -0.1661989E-02 Eh
   gradient norm :     0.0156250 Eh/α   predicted    -0.1913080E-02 (  15.11%)
   displ. norm   :     0.6389481 α      lambda       -0.2985829E-02
   maximum displ.:     0.1946329 α      in ANC's #107, #23, #111, ...

........................................................................
.............................. CYCLE   31 ..............................
........................................................................
   1   -759.2566825 -0.759257E+03  0.871E-03    0.09       0.0  T
   2   -759.2299104  0.267721E-01  0.126E-01    0.04       1.0  T
   3   -759.2543782 -0.244678E-01  0.437E-02    0.08       1.0  T
   4   -759.2566683 -0.229008E-02  0.976E-03    0.09       1.0  T
   5   -759.2524706  0.419766E-02  0.419E-02    0.07       1.0  T
   6   -759.2563271 -0.385650E-02  0.184E-02    0.08       1.0  T
   7   -759.2562224  0.104772E-03  0.164E-02    0.08       1.0  T
   8   -759.2564741 -0.251751E-03  0.899E-03    0.08       1.0  T
   9   -759.2567838 -0.309681E-03  0.199E-03    0.08       2.4  T
  10   -759.2567917 -0.788535E-05  0.115E-03    0.08       4.2  T
  11   -759.2567945 -0.278580E-05  0.350E-04    0.08      13.8  T
  12   -759.2567946 -0.108541E-06  0.186E-04    0.08      26.1  T
  13   -759.2567946 -0.720104E-07  0.583E-05    0.08      83.0  T
     SCC iter.                  ...        0 min, 11.577 sec
     gradient                   ...        0 min,  0.993 sec
 * total energy  :  -746.2727127 Eh     change       -0.6870818E-03 Eh
   gradient norm :     0.0219842 Eh/α   predicted    -0.2102411E-02 ( 205.99%)
   displ. norm   :     0.5447882 α      lambda       -0.2770155E-02
   maximum displ.:     0.1729438 α      in ANC's #107, #23, #110, ...

........................................................................
.............................. CYCLE   32 ..............................
........................................................................
   1   -759.2574896 -0.759257E+03  0.470E-03    0.08       0.0  T
   2   -759.2469474  0.105422E-01  0.651E-02    0.06       1.0  T
   3   -759.2561824 -0.923502E-02  0.261E-02    0.08       1.0  T
   4   -759.2565462 -0.363798E-03  0.232E-02    0.08       1.0  T
   5   -759.2574236 -0.877350E-03  0.712E-03    0.09       1.0  T
   6   -759.2569261  0.497499E-03  0.148E-02    0.08       1.0  T
   7   -759.2573227 -0.396602E-03  0.971E-03    0.09       1.0  T
   8   -759.2574433 -0.120580E-03  0.779E-03    0.09       1.0  T
   9   -759.2575301 -0.868501E-04  0.111E-03    0.08       4.3  T
  10   -759.2575327 -0.256119E-05  0.535E-04    0.08       9.0  T
  11   -759.2575330 -0.374678E-06  0.300E-04    0.08      16.1  T
  12   -759.2575332 -0.142513E-06  0.119E-04    0.08      40.5  T
  13   -759.2575332 -0.159682E-07  0.634E-05    0.08      76.3  T
     SCC iter.                  ...        0 min, 11.587 sec
     gradient                   ...        0 min,  0.987 sec
 * total energy  :  -746.2744665 Eh     change       -0.1753797E-02 Eh
   gradient norm :     0.0107453 Eh/α   predicted    -0.1796175E-02 (   2.42%)
   displ. norm   :     0.6579980 α      lambda       -0.2309790E-02
   maximum displ.:     0.2091920 α      in ANC's #23, #107, #38, ...

........................................................................
.............................. CYCLE   33 ..............................
........................................................................
   1   -759.2629658 -0.759263E+03  0.157E-02    0.09       0.0  T
   2   -759.0500623  0.212904E+00  0.377E-01    0.03       1.0  T
   3   -759.2411301 -0.191068E+00  0.962E-02    0.04       1.0  T
   4   -759.2595546 -0.184245E-01  0.412E-02    0.07       1.0  T
   5   -759.2626951 -0.314046E-02  0.180E-02    0.09       1.0  T
   6   -759.2628802 -0.185151E-03  0.184E-02    0.08       1.0  T
   7   -759.2632168 -0.336576E-03  0.769E-03    0.09       1.0  T
   8   -759.2632931 -0.762426E-04  0.263E-03    0.08       1.8  T
   9   -759.2632432  0.498549E-04  0.489E-03    0.08       1.0  T
  10   -759.2633070 -0.638025E-04  0.177E-03    0.08       2.7  T
  11   -759.2633130 -0.596187E-05  0.656E-04    0.08       7.4  T
  12   -759.2633141 -0.108788E-05  0.129E-04    0.08      37.6  T
  13   -759.2633141 -0.166634E-07  0.876E-05    0.08      55.2  T
  14   -759.2633141 -0.922034E-08  0.524E-05    0.08      92.2  T
     SCC iter.                  ...        0 min, 12.457 sec
     gradient                   ...        0 min,  0.991 sec
 * total energy  :  -746.2747956 Eh     change       -0.3291182E-03 Eh
   gradient norm :     0.0212288 Eh/α   predicted    -0.1654924E-02 ( 402.84%)
   displ. norm   :     0.4925615 α      lambda       -0.2664601E-02
   maximum displ.:     0.1562655 α      in ANC's #23, #107, #111, ...

........................................................................
.............................. CYCLE   34 ..............................
........................................................................
   1   -759.2667002 -0.759267E+03  0.400E-03    0.08       0.0  T
   2   -759.2639860  0.271421E-02  0.401E-02    0.08       1.0  T
   3   -759.2659337 -0.194775E-02  0.241E-02    0.08       1.0  T
   4   -759.2665574 -0.623721E-03  0.933E-03    0.09       1.0  T
   5   -759.2663419  0.215529E-03  0.118E-02    0.08       1.0  T
   6   -759.2666001 -0.258236E-03  0.919E-03    0.08       1.0  T
   7   -759.2663849  0.215283E-03  0.116E-02    0.08       1.0  T
   8   -759.2666814 -0.296548E-03  0.493E-03    0.09       1.0  T
   9   -759.2667229 -0.414865E-04  0.163E-03    0.09       3.0  T
  10   -759.2667295 -0.658160E-05  0.200E-04    0.08      24.1  T
  11   -759.2667295  0.275204E-07  0.205E-04    0.09      23.6  T
  12   -759.2667296 -0.102892E-06  0.367E-05    0.09     131.5  T
  13   -759.2667296 -0.202147E-08  0.110E-05    0.09     437.6  T
     SCC iter.                  ...        0 min, 11.565 sec
     gradient                   ...        0 min,  0.988 sec
 * total energy  :  -746.2764669 Eh     change       -0.1671233E-02 Eh
   gradient norm :     0.0100232 Eh/α   predicted    -0.1655540E-02 (  -0.94%)
[...]
   170   6 C      200   1 H                                       1.0860902
   171   6 C      201   1 H                                       1.0835486
   173   6 C      202   1 H                                       1.0778589
   174   6 C      203   1 H                                       1.0781926
   179   6 C      204   1 H                                       1.0779916
   180   6 C      205   1 H                                       1.0776936
   182   7 N      206   1 H                                       1.0145251
   185   6 C      207   1 H                                       1.0834586
   186   6 C      208   1 H                                       1.0860580
   188   6 C      209   1 H                                       1.0861106
   189   6 C      210   1 H                                       1.0835406
   191   6 C      211   1 H                                       1.0778382
   192   6 C      212   1 H                                       1.0781851
   213   6 C      214   6 C                                       1.4087230
   214   6 C      215   6 C                                       1.4187231
   215   6 C      216   6 C                                       1.3681947
   216   6 C      217   6 C                                       1.4214599
   214   6 C      218   7 N                                       1.3627180
   217   6 C      218   7 N                                       1.3692582
   217   6 C      219   6 C                                       1.4001962
   220   6 C      221   6 C                                       1.3944254
   221   6 C      222   6 C                                       1.3858943
   222   6 C      223   7 N                                       1.3291446
   223   7 N      224   6 C                                       1.3289841
   220   6 C      225   6 C                                       1.3943492
   224   6 C      225   6 C                                       1.3861039
   219   6 C      226   6 C                                       1.3955688
   226   6 C      227   6 C                                       1.4521421
   227   6 C      228   6 C                                       1.3489562
   226   6 C      229   7 N                                       1.3617669
   228   6 C      230   6 C                                       1.4496380
   229   7 N      230   6 C                                       1.3480567
   230   6 C      231   6 C                                       1.4098962
   231   6 C      232   6 C                                       1.4087436
   232   6 C      233   6 C                                       1.4187002
   233   6 C      234   6 C                                       1.3681952
   234   6 C      235   6 C                                       1.4214717
   232   6 C      236   7 N                                       1.3626807
   235   6 C      236   7 N                                       1.3692883
   235   6 C      237   6 C                                       1.4001945
   238   6 C      239   6 C                                       1.3944290
   239   6 C      240   6 C                                       1.3859107
   240   6 C      241   7 N                                       1.3291421
   241   7 N      242   6 C                                       1.3289940
   238   6 C      243   6 C                                       1.3943983
   242   6 C      243   6 C                                       1.3860805
   237   6 C      244   6 C                                       1.3956287
   244   6 C      245   6 C                                       1.4521074
   245   6 C      246   6 C                                       1.3489876
   213   6 C      247   6 C                                       1.4099125
   246   6 C      247   6 C                                       1.4496010
   244   6 C      248   7 N                                       1.3617548
   247   6 C      248   7 N                                       1.3480749
   215   6 C      249   1 H                                       1.0779918
   216   6 C      250   1 H                                       1.0776856
   218   7 N      251   1 H                                       1.0145289
   221   6 C      252   1 H                                       1.0834431
   222   6 C      253   1 H                                       1.0860526
   224   6 C      254   1 H                                       1.0860730
   225   6 C      255   1 H                                       1.0835424
   227   6 C      256   1 H                                       1.0778449
   228   6 C      257   1 H                                       1.0781958
   233   6 C      258   1 H                                       1.0779897
   234   6 C      259   1 H                                       1.0776810
   236   7 N      260   1 H                                       1.0145260
   239   6 C      261   1 H                                       1.0834422
   240   6 C      262   1 H                                       1.0860558
   242   6 C      263   1 H                                       1.0860747
   243   6 C      264   1 H                                       1.0835455
   245   6 C      265   1 H                                       1.0778473
   246   6 C      266   1 H                                       1.0781995
   267   6 C      268   6 C                                       1.4087480
   268   6 C      269   6 C                                       1.4187285
   269   6 C      270   6 C                                       1.3682057
   270   6 C      271   6 C                                       1.4214515
   268   6 C      272   7 N                                       1.3626970
   271   6 C      272   7 N                                       1.3692793
   271   6 C      273   6 C                                       1.4001904
   274   6 C      275   6 C                                       1.3944327
   275   6 C      276   6 C                                       1.3858974
   276   6 C      277   7 N                                       1.3291474
   277   7 N      278   6 C                                       1.3289762
   274   6 C      279   6 C                                       1.3943674
   278   6 C      279   6 C                                       1.3861016
   273   6 C      280   6 C                                       1.3955989
   280   6 C      281   6 C                                       1.4521253
   281   6 C      282   6 C                                       1.3489524
   280   6 C      283   7 N                                       1.3617722
   282   6 C      284   6 C                                       1.4496254
   283   7 N      284   6 C                                       1.3480503
   284   6 C      285   6 C                                       1.4099255
   285   6 C      286   6 C                                       1.4087062
   286   6 C      287   6 C                                       1.4187122
   287   6 C      288   6 C                                       1.3681919
   288   6 C      289   6 C                                       1.4214786
   286   6 C      290   7 N                                       1.3627093
   289   6 C      290   7 N                                       1.3692840
   289   6 C      291   6 C                                       1.4002650
   292   6 C      293   6 C                                       1.3944598
   293   6 C      294   6 C                                       1.3858943
   294   6 C      295   7 N                                       1.3291409
   295   7 N      296   6 C                                       1.3289766
   292   6 C      297   6 C                                       1.3944055
   296   6 C      297   6 C                                       1.3860916
   291   6 C      298   6 C                                       1.3956647
   298   6 C      299   6 C                                       1.4521453
   299   6 C      300   6 C                                       1.3489573
   267   6 C      301   6 C                                       1.4099102
   300   6 C      301   6 C                                       1.4496119
   298   6 C      302   7 N                                       1.3617800
   301   6 C      302   7 N                                       1.3480681
   269   6 C      303   1 H                                       1.0779927
   270   6 C      304   1 H                                       1.0776885
   272   7 N      305   1 H                                       1.0145319
   275   6 C      306   1 H                                       1.0834419
   276   6 C      307   1 H                                       1.0860480
   278   6 C      308   1 H                                       1.0860749
   279   6 C      309   1 H                                       1.0835411
   281   6 C      310   1 H                                       1.0778381
   282   6 C      311   1 H                                       1.0781911
   287   6 C      312   1 H                                       1.0779954
   288   6 C      313   1 H                                       1.0776805
   290   7 N      314   1 H                                       1.0145330
   293   6 C      315   1 H                                       1.0834367
   294   6 C      316   1 H                                       1.0860446
   296   6 C      317   1 H                                       1.0860694
   297   6 C      318   1 H                                       1.0835396
   299   6 C      319   1 H                                       1.0778368
   300   6 C      320   1 H                                       1.0781993
   321   6 C      322   6 C                                       1.4087571
   322   6 C      323   6 C                                       1.4187571
   323   6 C      324   6 C                                       1.3681959
   324   6 C      325   6 C                                       1.4214542
   322   6 C      326   7 N                                       1.3626709
   325   6 C      326   7 N                                       1.3693215
   325   6 C      327   6 C                                       1.4001334
   328   6 C      329   6 C                                       1.3944407
   329   6 C      330   6 C                                       1.3858857
   330   6 C      331   7 N                                       1.3291765
   331   7 N      332   6 C                                       1.3289673
   328   6 C      333   6 C                                       1.3943644
   332   6 C      333   6 C                                       1.3861094
   327   6 C      334   6 C                                       1.3956303
   334   6 C      335   6 C                                       1.4521304
   335   6 C      336   6 C                                       1.3489616
   334   6 C      337   7 N                                       1.3617246
   336   6 C      338   6 C                                       1.4495991
   337   7 N      338   6 C                                       1.3480686
   338   6 C      339   6 C                                       1.4098320
   339   6 C      340   6 C                                       1.4087141
   340   6 C      341   6 C                                       1.4186816
   341   6 C      342   6 C                                       1.3681795
   342   6 C      343   6 C                                       1.4214647
   340   6 C      344   7 N                                       1.3627003
   343   6 C      344   7 N                                       1.3692305
   343   6 C      345   6 C                                       1.4002776
   346   6 C      347   6 C                                       1.3944206
   347   6 C      348   6 C                                       1.3859227
   348   6 C      349   7 N                                       1.3291447
   349   7 N      350   6 C                                       1.3290080
   346   6 C      351   6 C                                       1.3944462
   350   6 C      351   6 C                                       1.3860686
   345   6 C      352   6 C                                       1.3955824
   352   6 C      353   6 C                                       1.4521118
   353   6 C      354   6 C                                       1.3489683
   321   6 C      355   6 C                                       1.4099591
   354   6 C      355   6 C                                       1.4496625
   352   6 C      356   7 N                                       1.3618221
   355   6 C      356   7 N                                       1.3480395
   323   6 C      357   1 H                                       1.0779962
   324   6 C      358   1 H                                       1.0776950
   326   7 N      359   1 H                                       1.0145281
   329   6 C      360   1 H                                       1.0834538
   330   6 C      361   1 H                                       1.0860511
   332   6 C      362   1 H                                       1.0860930
   333   6 C      363   1 H                                       1.0835432
   335   6 C      364   1 H                                       1.0778387
   336   6 C      365   1 H                                       1.0781964
   341   6 C      366   1 H                                       1.0779849
   342   6 C      367   1 H                                       1.0776737
   344   7 N      368   1 H                                       1.0145300
   347   6 C      369   1 H                                       1.0834436
   348   6 C      370   1 H                                       1.0860529
   350   6 C      371   1 H                                       1.0860823
   351   6 C      372   1 H                                       1.0835536
   353   6 C      373   1 H                                       1.0778483
   354   6 C      374   1 H                                       1.0781977
   375   6 C      376   6 C                                       1.4086655
   376   6 C      377   6 C                                       1.4187967
   377   6 C      378   6 C                                       1.3681529
   378   6 C      379   6 C                                       1.4215194
   376   6 C      380   7 N                                       1.3626438
   379   6 C      380   7 N                                       1.3693297
   379   6 C      381   6 C                                       1.3999890
   382   6 C      383   6 C                                       1.3944128
   383   6 C      384   6 C                                       1.3859074
   384   6 C      385   7 N                                       1.3291704
   385   7 N      386   6 C                                       1.3290007
   382   6 C      387   6 C                                       1.3943759
   386   6 C      387   6 C                                       1.3860929
   381   6 C      388   6 C                                       1.3957256
   388   6 C      389   6 C                                       1.4520913
   389   6 C      390   6 C                                       1.3489775
   388   6 C      391   7 N                                       1.3615653
   390   6 C      392   6 C                                       1.4495964
   391   7 N      392   6 C                                       1.3482734
   392   6 C      393   6 C                                       1.4097103
   393   6 C      394   6 C                                       1.4085904
   394   6 C      395   6 C                                       1.4186997
   395   6 C      396   6 C                                       1.3682152
   396   6 C      397   6 C                                       1.4214489
   394   6 C      398   7 N                                       1.3628378
   397   6 C      398   7 N                                       1.3691372
   397   6 C      399   6 C                                       1.4003430
   400   6 C      401   6 C                                       1.3944220
   401   6 C      402   6 C                                       1.3859127
   402   6 C      403   7 N                                       1.3291553
   403   7 N      404   6 C                                       1.3290202
   400   6 C      405   6 C                                       1.3944332
   404   6 C      405   6 C                                       1.3860548
   399   6 C      406   6 C                                       1.3954943
   406   6 C      407   6 C                                       1.4521663
   407   6 C      408   6 C                                       1.3489466
   375   6 C      409   6 C                                       1.4099497
   408   6 C      409   6 C                                       1.4496584
   406   6 C      410   7 N                                       1.3618507
   409   6 C      410   7 N                                       1.3479482
   377   6 C      411   1 H                                       1.0779945
   378   6 C      412   1 H                                       1.0776981
   380   7 N      413   1 H                                       1.0145159
   383   6 C      414   1 H                                       1.0834526
   384   6 C      415   1 H                                       1.0860645
   386   6 C      416   1 H                                       1.0860945
   387   6 C      417   1 H                                       1.0835545
   389   6 C      418   1 H                                       1.0778453
   390   6 C      419   1 H                                       1.0781860
   395   6 C      420   1 H                                       1.0779967
   396   6 C      421   1 H                                       1.0776914
   398   7 N      422   1 H                                       1.0145264
   401   6 C      423   1 H                                       1.0834428
   402   6 C      424   1 H                                       1.0860645
   404   6 C      425   1 H                                       1.0860860
   405   6 C      426   1 H                                       1.0835607
   407   6 C      427   1 H                                       1.0778429
   408   6 C      428   1 H                                       1.0782006

 * 4 distinct bonds (by element types)

   Z      Z             #   av. dist./Å        max./Å        min./Å
   1 H    6 C         114     1.0814543     1.0861151     1.0776737
   6 C    6 C         218     1.3825431     1.4524705     1.2248340
   1 H    7 N          14     1.0145542     1.0147321     1.0145063
   6 C    7 N          84     1.3500081     1.3699995     1.3289673


optimized geometry written to: xtbopt.xyz


           -------------------------------------------------
          | TOTAL ENERGY             -746.757529318312 Eh   |
          | GRADIENT NORM               0.000521223495 Eh/α |
          | HOMO-LUMO GAP               0.738158894684 eV   |
           -------------------------------------------------

------------------------------------------------------------------------
 * finished run on 2022/07/27 at 12:33:26.436     
------------------------------------------------------------------------
 total:
 * wall-time:     0 d,  0 h, 42 min, 15.919 sec
 *  cpu-time:     0 d,  0 h, 42 min,  2.908 sec
 * ratio c/w:     0.995 speedup
 SCF:
 * wall-time:     0 d,  0 h,  1 min, 48.303 sec
 *  cpu-time:     0 d,  0 h,  1 min, 47.767 sec
 * ratio c/w:     0.995 speedup
 ANC optimizer:
 * wall-time:     0 d,  0 h, 40 min, 26.928 sec
 *  cpu-time:     0 d,  0 h, 40 min, 14.505 sec
 * ratio c/w:     0.995 speedup

