660
 energy: -1079.986788430373 gnorm: 0.000868689255 xtb: 6.5.1 (b24c23e)
C          123.69185891251324        0.44988424131603        0.02141879621311
C          124.29493103819601        0.54180134435236       -1.22675839071365
C          123.63433457324700        0.66377826912615       -2.48077083052451
C          124.58826883525234        0.67766437706519       -3.45984626858094
C          125.86313058249964        0.57782004729107       -2.83436912298534
N          125.63508562308554        0.49623331066841       -1.48970878917977
C          127.11988689003869        0.53465023635169       -3.45163942040901
C          127.14386643860196        0.65226141211928       -4.92803297503939
C          127.69603597719612       -0.36137436449722       -5.71369051744595
C          127.71433997828930       -0.26809870818928       -7.09468051677039
C          127.17717813086068        0.85559455146391       -7.72963001358234
N          127.21856949720221        1.02689010668768       -9.10501767885808
C          127.30916987327922       -0.13777073646700       -9.97529348041069
C          126.63499596567517        1.88149219169906       -6.94558688077738
C          126.61362613205768        1.77627274796774       -5.56769146292838
C          128.33405913514261        0.38951795435870       -2.77541707063908
C          129.63184979591836        0.43858155654111       -3.42390957461697
C          130.55305432498790        0.29235512029564       -2.44888145819089
N          128.49001093489008        0.22583451502316       -1.43202567365186
C          129.81731304031544        0.15892769642121       -1.20685853758394
C          130.45682981789878        0.00056792529362        0.04032357008368
C          129.82560509803358       -0.11040325226414        1.29466805526769
C          130.47703731906191       -0.24267306795514        2.54900938711718
C          129.51530858490540       -0.29930661888845        3.51993776390336
C          128.24542539726690       -0.20989773763640        2.88629684055894
N          128.48573068483191       -0.09425265297909        1.54182876007119
C          126.98865383948048       -0.19603035842820        3.50237380036374
C          126.96206117628566       -0.37320661159302        4.97193576739274
C          126.39723304617186        0.59851295620741        5.80048571851591
C          126.37427312235653        0.44214582584075        7.17576904172239
C          126.91921623726338       -0.70433398437587        7.76153954256793
N          126.87275592186228       -0.93943025871395        9.12714819690634
C          126.76505760444070        0.18214031156051       10.05038403498027
C          127.47562410326509       -1.68782451082792        6.93420137186532
C          127.50185532572590       -1.51953846076583        5.56292389858409
C          125.77416115074196       -0.02592104600269        2.82679195291573
C          124.46860519240651       -0.07326277955529        3.46583014474420
C          123.55758196374529        0.11870524674523        2.49020907401343
C          124.30438182141431        0.26835463417269        1.25426302531587
N          125.63556862541765        0.17305206623446        1.49469960064694
H          122.60770887718259        0.50480196941633        0.02060468238830
H          122.56463998265045        0.72080279060624       -2.60547998740556
H          124.42642866478150        0.73781282531537       -4.52388721931599
H          126.36465603394079        0.39618722131411       -0.79179349849386
H          128.09898068453541       -1.24676827047809       -5.23400603484046
H          128.14847891298027       -1.07417530619248       -7.67330248173424
H          126.54270289887171        1.70469493352256       -9.43620656917541
H          126.53111456993003       -0.87462508543022       -9.74498404387308
H          127.19114338676903        0.20109379150169      -11.00452753789992
H          128.28883145912187       -0.60615257808474       -9.87244555061590
H          126.23105449606381        2.76510362730394       -7.42851578556018
H          126.20156792815106        2.58514869310253       -4.97408345244286
H          129.79594056103741        0.58856195392166       -4.47867787964979
H          131.62784788969358        0.28068876442462       -2.53506506708656
H          131.54614141366741       -0.28080461007708        2.68276583525126
H          129.67052358242324       -0.37892843305420        4.58353053520812
H          127.76034942869005        0.00590267863167        0.83932362327636
H          125.98946679441366        1.50209928124024        5.36043895813897
H          125.93067451826268        1.21723934132490        7.78857151205975
H          127.55358578219429       -1.62530193589408        9.43036835467508
H          125.78116735310219        0.64487169115854        9.96350010805753
H          127.53673437890006        0.93676017193813        9.85966125148515
H          126.88071131888903       -0.20346561082154       11.06330735099917
H          127.88675019826536       -2.58830782926698        7.37831418001575
H          127.92535294601501       -2.29584853968894        4.93490346285391
H          124.29499108964073       -0.24955427720383        4.51519002976038
H          122.48177576449342        0.14753000468476        2.56672816663234
C          279.09828419962241        0.47249624365284       -0.05094025162687
C          278.49465111921666        0.61898481458221        1.19175167232200
C          279.15410340938143        0.81349393642217        2.43717976051598
C          278.20053088296299        0.86396544821530        3.41542264506357
C          276.92686901197715        0.71508121029832        2.79732009163061
N          277.15538489567149        0.56833779850329        1.45827577421378
C          275.67106740606511        0.68672138780309        3.41737804265082
C          275.64593413303680        0.87960028524675        4.88580841100983
C          275.10704429758283       -0.09940383799682        5.72292610532070
C          275.08725201676219        0.06464420201733        7.09728061349556
C          275.60937995917658        1.22656917339299        7.67322661334681
N          275.56517383636515        1.46811452980839        9.03791854370770
C          275.48874271765936        0.34903505323358        9.96731902882590
C          276.13833930709018        2.21766697558908        6.83711165405179
C          276.16134848144060        2.04188747763540        5.46645657110845
C          274.45862232634306        0.49133846024347        2.75077381758686
C          273.16055692060723        0.55719875122345        3.39723908354719
C          272.24090717053912        0.34967991267415        2.43192679733054
N          274.30426386317180        0.25689537425928        1.41772313999747
C          272.97781252770329        0.16191061165154        1.19764900439422
C          272.33986688100765       -0.06860409634023       -0.03904084646553
C          272.97207156159578       -0.23700144533295       -1.28647344987224
C          272.32204207117007       -0.44321843667035       -2.53153419515058
C          273.28408698028204       -0.53708279410672       -3.49924596419264
C          274.55286335637101       -0.39731329999495       -2.87251093437305
N          274.31152613866936       -0.21568641327403       -1.53554893945144
C          275.80897995583956       -0.39690590743304       -3.49005937792706
C          275.83709131169468       -0.64805077379614       -4.94881358703759
C          276.38570045185719        0.28919942877567       -5.82648960966940
C          276.40908459877505        0.06405411299877       -7.19220098034013
C          275.88105136307706       -1.11871815258202       -7.71822614492544
N          275.92876415663721       -1.42139542822039       -9.07048566824242
C          276.01566402471985       -0.34573887554690      -10.04894764297043
C          275.34142898158888       -2.06783054848082       -6.84113719010999
C          275.31449758954983       -1.83100587671307       -5.48002481502337
C          277.02126387190066       -0.17483931473129       -2.82572899197762
C          278.32691355131465       -0.23528747252155       -3.46345072564805
C          279.23571160980555        0.01907052912953       -2.50008948674837
C          278.48766071264208        0.22011817233045       -1.27221451593183
N          277.15785254302165        0.09339779426843       -1.50562497923406
H          280.18154531260245        0.54275201538661       -0.05431050537342
H          280.22297258690173        0.89146860512703        2.55757993372594
H          278.36203436046026        0.98027455084036        4.47485055431756
H          276.42691753421411        0.42312584667005        0.76717627999073
H          274.71580578201053       -1.01352337017687        5.28968048437815
H          274.66360798231364       -0.71617253768492        7.71686649039790
H          276.23194849935817        2.17086705284752        9.33360699831014
H          276.27638847947071       -0.38870998382476        9.77567997642667
H          275.60149020937450        0.74223826235468       10.97764832929027
H          274.51525821882541       -0.13658809589469        9.88864181497542
H          276.53052888693531        3.13022310097265        7.27367839448215
H          276.56282347827579        2.82446640891604        4.83176508271188
H          272.99497348534993        0.75899820299156        4.44308998587254
H          271.16638487080746        0.32891418801938        2.51969939261144
H          271.25351452447336       -0.50290337448191       -2.66195161707308
H          273.12959557679500       -0.67404547871182       -4.55708850885702
H          275.03569333444790       -0.06899369669849       -0.84000376719292
H          276.78004609819698        1.21999387158719       -5.43342768042508
H          276.83968624671053        0.81401923619717       -7.84428675947919
H          275.25822795300002       -2.13228051466914       -9.33685604550992
H          276.99196909484573        0.13683651387720       -9.98849943878985
H          275.23207275423852        0.40469985989813       -9.89360970217727
H          275.90392912557894       -0.78333856819796      -11.04096759744403
H          274.94374133653349       -2.99582219049646       -7.23838704611353
H          274.90393279406322       -2.58104594398868       -4.81272235685719
H          278.50231698225906       -0.46174395595711       -4.50284410694203
H          280.31092666864947        0.05977409491038       -2.57953494712748
C          131.86099684415083       -0.03683175616615        0.04907586112820
C          133.08589856773409       -0.06177409624273        0.05962849245603
C          134.42761967680588       -0.08083670944973        0.06589305956821
C          135.65887002777856       -0.09049270808242        0.07407185090821
C          136.99596691020272       -0.09437180960909        0.07523490855796
C          138.22732982834515       -0.09017865303938        0.07786657432149
C          139.56894391762779       -0.08111802503285        0.07655153013534
C          140.79426078717046       -0.06787867266321        0.07068528522649
C          150.45248583143541       -0.02136946303886        0.03432244924710
C          151.67793758874262       -0.01177539760023        0.02501343425249
C          153.01923190031391        0.00336633829701        0.01835324636279
C          154.25074212714898        0.01167151888949        0.01358425280303
C          155.58748363303295        0.02073179604707        0.00873362798228
C          156.81904789962655        0.02905978042912        0.00319547288137
C          158.16041611764416        0.03792761640530       -0.00097764505999
C          159.38591061743588        0.04493226164305       -0.00570432545431
C          169.04434666343883        0.00683256032626        0.00417608483635
C          170.26988908894577        0.00869747047794        0.00141313166891
C          171.61126110517839        0.01803046070577        0.00209253289297
C          172.84281659481059        0.02273133667944       -0.00117472520920
C          174.17957105924717        0.02858883139561       -0.00232470951660
C          175.41112658019014        0.03285589376836       -0.00155646847283
C          176.75249285154933        0.04042265668713       -0.00416543354229
C          177.97802332849710        0.04570875483589       -0.00634341768193
C          187.63667508947847        0.00796901190614        0.00685616551927
C          188.86219114207213        0.01263941526417        0.00390712514680
C          190.20359175532187        0.01795069632212        0.00419042879071
C          191.43519276631238        0.02384714048040        0.00183051604912
C          192.77195446758159        0.02996029244500        0.00009261215723
C          194.00350825542500        0.03602454704709       -0.00157358699667
C          195.34490126662419        0.04278163444594       -0.00163569789613
C          196.57042769872618        0.04777115309184       -0.00523189054745
C          206.22918228180069        0.00841670350976        0.00578953158911
C          207.45471712758433        0.01165902596389        0.00331788056573
C          208.79609843851298        0.01814147940628        0.00345234262986
C          210.02767291392578        0.02274170536864        0.00316957875949
C          211.36443073032385        0.02837266596906        0.00099824539062
C          212.59598815097289        0.03344022746970       -0.00094798140458
C          213.93737160809056        0.04178278143938       -0.00190155853664
C          215.16291016679284        0.04672796483751       -0.00584196999986
C          224.82157271370281        0.00530851716644        0.00597797550457
C          226.04710275698079        0.00966863321649        0.00290096191700
C          227.38850332893520        0.01579935524426        0.00236151494509
C          228.62005849670405        0.02250416806932        0.00104267662223
C          229.95681038658151        0.02972725250389        0.00061423644490
C          231.18837443255518        0.03771187041673       -0.00205986862979
C          232.52974480700198        0.04574146023310       -0.00223741339352
C          233.75526596815976        0.05257850823895       -0.00505815219582
C          243.41370245416763        0.01989079686747        0.00447341978106
C          244.63918962126672        0.02265206497641       -0.00027435369686
C          245.98059233751067        0.02426095742964       -0.00283813020176
C          247.21222790725582        0.02446705602642       -0.00762425200446
C          248.54899184197802        0.02379698848245       -0.01346988258503
C          249.78053092939155        0.02178181350698       -0.01950679407471
C          251.12192775144297        0.01783552947753       -0.02504762556532
C          252.34754208505620        0.00865119325495       -0.03350389358715
C          262.00358081187164       -0.20259568979946       -0.05907349857708
C          263.22890246459224       -0.21553352907048       -0.06407028824178
C          264.57053131096711       -0.22108781573095       -0.06483862464618
C          265.80190939783199       -0.21965226253974       -0.06509615436045
C          267.13894764666412       -0.20901383482667       -0.06205417777870
C          268.37010848390037       -0.19076442641617       -0.05695056468407
C          269.71160787086126       -0.15954347378995       -0.05361369346155
C          270.93620489156200       -0.12197683428302       -0.04458726621015
C          142.19772832258275       -0.04314509679305        0.06562060147545
C          142.82663362594340        0.01708048679842        1.32516874393135
C          142.17798106370677        0.01823302203188        2.58625221456191
C          143.14336780598609        0.05986619464076        3.55563861689743
C          144.40980706039414        0.09549612595450        2.91256261439261
N          144.16736712824232        0.06284032415856        1.56487468189488
C          145.67024806077757        0.12310926643582        3.52484947043158
C          145.68453527988319        0.18905406904026        5.00490329995533
C          146.30406041903811       -0.81202528446733        5.75874166604992
C          146.30851447546596       -0.75676803400784        7.13936147132754
C          145.69768401470211        0.30953387921638        7.81124033325686
N          145.77685948435348        0.35161173125182        9.19464824228057
C          144.79240923826450        1.11355713819935        9.95123414298585
C          145.09091286789388        1.32172044850924        7.06178114670161
C          145.07991161708804        1.25165592810792        5.67920184884135
C          146.89347258982809        0.09262288730341        2.85194317917321
C          148.18204328135852        0.19403713457175        3.51269982724070
C          149.11636538037197        0.14132020073068        2.54056477434249
N          147.06639757182862       -0.00206403258546        1.50403441456184
C          148.39697120176825        0.01974975066147        1.28860219013598
C          149.04913851026706       -0.03933864961472        0.03968110780973
C          148.42035697309507       -0.09718946219823       -1.22009315552008
C          149.06949568438691       -0.09650144478466       -2.48114207586083
C          148.10438056075901       -0.12684444771757       -3.45097459557407
C          146.83739507777193       -0.15871644229422       -2.80848916804657
N          147.07963769975541       -0.13501093370349       -1.46032217551091
C          145.57715576244291       -0.17627952193748       -3.42061272243336
C          145.56007751500093       -0.22520290576180       -4.90126276686500
C          144.94497838433065        0.78744489979091       -5.64009030090682
C          144.92666080486009        0.75424123378136       -7.02371916269062
C          145.51409523356850       -0.31382908412702       -7.70837120921946
N          145.56280086104545       -0.37567125966719       -9.09247995988325
C          144.56231490507690        0.33075816815443       -9.88147996776535
C          146.13668711412888       -1.32948023563496       -6.97204548350259
C          146.16169634082078       -1.28163387367738       -5.59115318124931
C          144.35372780298638       -0.15007975279214       -2.74705214780712
C          143.06545115144533       -0.24711470923228       -3.40890187253662
C          142.13085859363483       -0.20579787328181       -2.43637162909599
C          142.84978287940561       -0.09333070137946       -1.18346573296167
N          144.18064863631321       -0.06743000291572       -1.39875569476981
H          141.10963530364049       -0.01810652363218        2.72607283449421
H          142.99188111210540        0.05140447648156        4.62264646058951
H          144.88876525086218        0.06057139881644        0.85146707984506
H          146.76491087405788       -1.65334340591512        5.25289992512849
H          146.78572836334166       -1.54481941182790        7.71233375111420
H          145.96144091206000       -0.55590054188046        9.60478484560405
H          143.76881598858020        0.83820398780507        9.67245118369770
H          144.94622488012851        0.90477750969600       11.00990637128475
H          144.93542205004331        2.18156213960552        9.78192344872313
H          144.62878938844958        2.16980452608180        7.55195965397447
H          144.61541525788067        2.04937566503507        5.10952841909546
H          148.33096218897089        0.31009014046654        4.57392936147678
H          150.18945270900321        0.19013102294493        2.63458726122527
H          150.13805736231012       -0.06539517190185       -2.62043729836064
H          148.25635481069139       -0.11298033817858       -4.51781255097359
H          146.35800311085785       -0.13075526514008       -0.74718574666678
H          144.49385741724640        1.62606971324673       -5.12093005153702
H          144.45610768597521        1.56513576221321       -7.56598008922601
H          145.73474422732809       -1.31251919713438       -9.43701201276422
H          144.71138723011612        1.40793475053837       -9.79667652516542
H          144.69091177706056        0.04206851807225      -10.92462274588375
H          143.54512271844260        0.08096059102245       -9.55889295547580
H          146.59897267653079       -2.16040733961984       -7.49448747165001
H          146.62991033951189       -2.08620664607236       -5.03453492385480
H          142.91684359065641       -0.35305076459126       -4.47127742073800
H          141.05788306507500       -0.25563665340806       -2.53109266324269
C          160.78931910181862        0.05810174074227       -0.00493209087852
C          161.41264971672695        0.11595251041057        1.25764207591747
C          160.75767541918958        0.12571393335974        2.51545295619210
C          161.71855439502360        0.15616579009152        3.48965350372352
C          162.98859383101328        0.17652154225695        2.85299829352933
N          162.75252550490984        0.14660046107510        1.50401536743785
C          164.24611723803110        0.18876999088510        3.47158283079137
C          164.25393934959382        0.25059929201553        4.95181859415095
C          164.85873311431041       -0.75982707553571        5.70521516655895
C          164.85631115469988       -0.70977619476828        7.08600240717522
C          164.25328173069505        0.36053006211301        7.75862177237427
N          164.32493431679313        0.39634352437222        9.14249746635862
C          163.34465507763821        1.16607778585926        9.89663075456271
C          163.66186597534769        1.38219094095913        7.00968473237953
C          163.65750542028584        1.31737777035005        5.62682433368897
C          165.47242299488204        0.14621319965465        2.80473910150558
C          166.75844354486310        0.23531168675571        3.47215367374398
C          167.69720333765761        0.17597403940569        2.50465934744044
N          165.65130157299342        0.05104090368131        1.45772889232772
C          166.98317849202871        0.06153490444978        1.24900347494536
C          167.64090726155902       -0.00332696056359        0.00332849820997
C          167.01766533502351       -0.06034757529623       -1.25926830550372
C          167.67276385612629       -0.06997465019756       -2.51712269522876
C          166.71203484837937       -0.09815073751118       -3.49141269084605
C          165.44186871970587       -0.11759886789424       -2.85483285577203
N          165.67782233678705       -0.08934303953730       -1.50571304268226
C          164.18447388991140       -0.12815940243666       -3.47326320950827
C          164.17510618635245       -0.18731241703582       -4.95359905364936
C          163.57330688833954        0.82517240575060       -5.70348460351564
C          163.56302710674078        0.78193271705198       -7.08693526180282
C          164.14525444666532       -0.29617864141690       -7.76022125319533
N          164.20198242227903       -0.36855948192435       -9.14346338176579
C          163.21310226083136        0.34114503900558       -9.94403413655157
C          164.75447082202132       -1.31180734747391       -7.01273440308778
C          164.77162251704587       -1.25398255460589       -5.63213452450432
C          162.95804823056866       -0.08624582603292       -2.80626485123820
C          161.67211776854867       -0.17410826290661       -3.47395625073100
C          160.73319070228325       -0.11720930217631       -2.50638850265568
C          161.44707531972108       -0.00491143574296       -1.25057076071144
N          162.77903037803574        0.00617339303977       -1.45922857932077
H          159.68831149830766        0.10199031887801        2.64998714138668
H          161.56149274452792        0.14978305905095        4.55585597276328
H          163.47742955991643        0.13475989768709        0.79427210813624
H          165.31315686404744       -1.60419889643713        5.19864233128303
H          165.32179770857763       -1.50511742636915        7.65854245377198
H          164.49762832382345       -0.51459499968513        9.55019265902634
H          162.31973189313109        0.90316334656598        9.61088289175293
H          163.49010711762566        0.95128770727647       10.95527664434297
H          163.50041663488011        2.23311046772268        9.73253355590683
H          163.20647249840513        2.23348223909925        7.50058701518700
H          163.20496909788605        2.12231472048186        5.05768618938505
H          166.90290182352433        0.34877772579125        4.53427791377272
H          168.77018017564660        0.21533491443430        2.60415453189887
H          168.74217043838428       -0.04733658056763       -2.65146674682740
H          166.86915728210363       -0.09050794305929       -4.55756399178457
H          164.95291353997479       -0.07658280410164       -0.79600452844737
H          163.12656499803620        1.67157604571853       -5.19324058836463
H          163.10290593715931        1.59290672723929       -7.63795851373236
H          164.36793815535458       -1.30929842236567       -9.48021835013577
H          163.37134996828914        1.41751826338801       -9.86591795031969
H          163.34589603615012        0.04382274106324      -10.98422097789190
H          162.19160974078747        0.10281924484392       -9.62639250609131
H          165.21265386729067       -2.15051494153742       -7.52627810024818
H          165.22959212158125       -2.05837203384446       -5.06679401117617
H          161.52769557583139       -0.28483257215914       -4.53642335029961
H          159.66021236399487       -0.15645141401919       -2.60609164311149
C          179.38143835713814        0.05796961183840       -0.00477667712685
C          180.00441149207981        0.11579551809799        1.25795959781550
C          179.34913521299515        0.12565593939160        2.51561730783636
C          180.30978763654088        0.15608046969360        3.49003728760619
C          181.57999256015515        0.17641492027470        2.85368631806997
N          181.34422609337605        0.14642205139201        1.50463855893188
C          182.83735205066037        0.18881594454121        3.47256294681198
C          182.84489420766423        0.25081648365940        4.95278759573282
C          183.44981980529974       -0.75936634407913        5.70641408203528
C          183.44731565907358       -0.70905293864973        7.08718702328963
C          182.84408075590721        0.36129054702567        7.75957513521261
N          182.91571828888735        0.39741717150816        9.14342015698021
C          181.93543756066896        1.16725837463503        9.89743624878742
C          182.25249465511081        1.38268774134948        7.01040336426987
C          182.24821614214949        1.31760855693384        5.62755861028093
C          184.06386488419238        0.14639238505547        2.80604137844742
C          185.34966855884326        0.23580000431948        3.47383920982011
C          186.28873096861017        0.17656181379817        2.50663682039005
N          184.24314464364218        0.05113758332436        1.45911095080878
C          185.57510415904389        0.06184294520143        1.25079375157910
C          186.23324234332469       -0.00295508586332        0.00535942911846
C          185.61038230463029       -0.05989683021057       -1.25744296695318
C          186.26578136455470       -0.06911462501490       -2.51513564692235
C          185.30528383301800       -0.09729709086448       -3.48966713275925
C          184.03497621006605       -0.11711434931909       -2.85339558503344
N          184.27059640266117       -0.08907219242626       -1.50422908362062
C          182.77770415477241       -0.12781747635169       -3.47213345077348
C          182.76867090122067       -0.18655829277035       -4.95248589896320
C          182.16666266426498        0.82596750981913       -5.70215848417955
C          182.15660092974727        0.78315174795436       -7.08561967623794
C          182.73928372208826       -0.29456289493154       -7.75915129307197
N          182.79622521745142       -0.36649509307384       -9.14239903047735
C          181.80720629069543        0.34309660553348       -9.94289887397844
C          183.34872633650153       -1.31021795190683       -7.01188073557873
C          183.36564270397571       -1.25282175498729       -5.63125939293815
C          181.55111070317628       -0.08627074034811       -2.80545631208363
C          180.26539166107742       -0.17428163062332       -3.47354684082166
C          179.32615663812805       -0.11745166665811       -2.50628481512081
C          180.03963419216132       -0.00515022646873       -1.25022468659440
N          181.37163759010087        0.00604703187260       -1.45844948994285
H          178.27973406570780        0.10196667863579        2.64987036007740
H          180.15248637423170        0.14970891761706        4.55620470826637
H          182.06928070110035        0.13463226032594        0.79504717814177
H          183.90443148616259       -1.60374930469192        5.20002796897152
H          183.91292191094959       -1.50419699006367        7.65990254097258
H          183.08862656041308       -0.51336795582110        9.55135977251167
H          180.91051627111256        0.90415183195388        9.61186378996031
H          182.08102129180406        0.95277738239023       10.95612571972532
H          182.09106945622619        2.23426143865444        9.73302439489550
H          181.79692759193577        2.23399439428947        7.50111560452265
H          181.79559142613388        2.12236916005934        5.05824173733649
H          185.49380837514099        0.34939587731148        4.53599148368671
H          187.36167182057790        0.21614619662536        2.60644962812428