      -----------------------------------------------------------      
     |                   =====================                   |     
     |                           x T B                           |     
     |                   =====================                   |     
     |                         S. Grimme                         |     
     |          Mulliken Center for Theoretical Chemistry        |     
     |                    University of Bonn                     |     
      -----------------------------------------------------------      

   * xtb version 6.5.1 (b24c23e) compiled by 'conda@728c89f4b128' on 2022-07-12

   xtb is free software: you can redistribute it and/or modify it under
   the terms of the GNU Lesser General Public License as published by
   the Free Software Foundation, either version 3 of the License, or
   (at your option) any later version.
   
   xtb is distributed in the hope that it will be useful,
   but WITHOUT ANY WARRANTY; without even the implied warranty of
   MERCHANTABILITY or FITNESS FOR A PARTICULAR PURPOSE.  See the
   GNU Lesser General Public License for more details.
   
   Cite this work as:
   * C. Bannwarth, E. Caldeweyher, S. Ehlert, A. Hansen, P. Pracht,
     J. Seibert, S. Spicher, S. Grimme, WIREs Comput. Mol. Sci., 2020, 11,
     e01493. DOI: 10.1002/wcms.1493
   
   for GFN2-xTB:
   * C. Bannwarth, S. Ehlert and S. Grimme., J. Chem. Theory Comput., 2019,
     15, 1652-1671. DOI: 10.1021/acs.jctc.8b01176
   for GFN1-xTB:
   * S. Grimme, C. Bannwarth, P. Shushkov, J. Chem. Theory Comput., 2017,
     13, 1989-2009. DOI: 10.1021/acs.jctc.7b00118
   for GFN0-xTB:
   * P. Pracht, E. Caldeweyher, S. Ehlert, S. Grimme, ChemRxiv, 2019, preprint.
     DOI: 10.26434/chemrxiv.8326202.v1
   for GFN-FF:
   * S. Spicher and S. Grimme, Angew. Chem. Int. Ed., 2020, 59, 15665-15673.
     DOI: 10.1002/anie.202004239
   
   for ALPB and GBSA implicit solvation:
   * S. Ehlert, M. Stahn, S. Spicher, S. Grimme, J. Chem. Theory Comput.,
     2021, 17, 4250-4261. DOI: 10.1021/acs.jctc.1c00471
   
   for DFT-D4:
   * E. Caldeweyher, C. Bannwarth and S. Grimme, J. Chem. Phys., 2017,
     147, 034112. DOI: 10.1063/1.4993215
   * E. Caldeweyher, S. Ehlert, A. Hansen, H. Neugebauer, S. Spicher,
     C. Bannwarth and S. Grimme, J. Chem. Phys., 2019, 150, 154122.
     DOI: 10.1063/1.5090222
   * E. Caldeweyher, J.-M. Mewes, S. Ehlert and S. Grimme, Phys. Chem. Chem. Phys.
     2020, 22, 8499-8512. DOI: 10.1039/D0CP00502A
   
   for sTDA-xTB:
   * S. Grimme and C. Bannwarth, J. Chem. Phys., 2016, 145, 054103.
     DOI: 10.1063/1.4959605
   
   in the mass-spec context:
   * V. Asgeirsson, C. Bauer and S. Grimme, Chem. Sci., 2017, 8, 4879.
     DOI: 10.1039/c7sc00601b
   * J. Koopman and S. Grimme, ACS Omega 2019, 4, 12, 15120-15133.
     DOI: 10.1021/acsomega.9b02011
   
   for metadynamics refer to:
   * S. Grimme, J. Chem. Theory Comput., 2019, 155, 2847-2862
     DOI: 10.1021/acs.jctc.9b00143
   
   for SPH calculations refer to:
   * S. Spicher and S. Grimme, J. Chem. Theory Comput., 2021, 17, 1701-1714
     DOI: 10.1021/acs.jctc.0c01306
   
   with help from (in alphabetical order)
   P. Atkinson, C. Bannwarth, F. Bohle, G. Brandenburg, E. Caldeweyher
   M. Checinski, S. Dohm, S. Ehlert, S. Ehrlich, I. Gerasimov, C. Hölzer
   A. Katbashev, J. Koopman, C. Lavigne, S. Lehtola, F. März, M. Müller,
   F. Musil, H. Neugebauer, J. Pisarek, C. Plett, P. Pracht, F. Pultar,
   J. Seibert, P. Shushkov, S. Spicher, M. Stahn, M. Steiner, T. Strunk,
   J. Stückrath, T. Rose, and J. Unsleber
   
 * started run on 2022/07/28 at 09:58:35.064     

           -------------------------------------------------
          |                Calculation Setup                |
           -------------------------------------------------

          program call               : xtb DHP_C8_8.xyz --gfn 1 --opt -T 48
          hostname                   : cx3-14-14.cx3.hpc.ic.ac.uk
          coordinate file            : DHP_C8_8.xyz
          omp threads                :                     1

   ID    Z sym.   atoms
    1    6 C      1-5, 7-10, 12-16, 18-23, 25-28, 30-35, 60-64, 66-69, 71-75,
                  77-82, 84-87, 89-94, 119-179, 181-184, 186-190, 192-197,
                  199-202, 204-209, 233-237, 239-242, 244-248, 250-255,
                  257-260, 262-267, 291-295, 297-300, 302-306, 308-313,
                  315-318, 320-325, 349-353, 355-358, 360-364, 366-371,
                  373-376, 378-383, 407-411, 413-416, 418-422, 424-429,
                  431-434, 436-441, 465-469, 471-474, 476-480, 482-487,
                  489-492, 494-499
    2    7 N      6, 11, 17, 24, 29, 36, 65, 70, 76, 83, 88, 95, 180, 185,
                  191, 198, 203, 210, 238, 243, 249, 256, 261, 268, 296, 301,
                  307, 314, 319, 326, 354, 359, 365, 372, 377, 384, 412, 417,
                  423, 430, 435, 442, 470, 475, 481, 488, 493, 500
    3    1 H      37-59, 96-118, 211-232, 269-290, 327-348, 385-406, 443-464,
                  501-522

molecular fragmentation (1/2 indicates fragments):
111111111111111111111111111111111111111111111111111111111112222222222222
222222222222222222222222222222222222222222222222222222222222222222222222
222222222222222222222222222222222222222222222222222222222222222222222222
222222222222222222222222222222222222222222222222222222222222222222222222
222222222222222222222222222222222222222222222222222222222222222222222222
222222222222222222222222222222222222222222222222222222222222222222222222
222222222222222222222222222222222222222222222222222222222222222222222222
222222222222222222
# atoms in fragment 1/2:    59   463
 fragment masses (1/2) :      467.54     3939.37
CMA distance (Bohr)    : 137.806
constraining FC (au)   :  0.0500
########################################################################
[WARNING] Please study the warnings concerning your input carefully
-1- prog_main_parseArguments: Unknown option '-T' provided
########################################################################

           -------------------------------------------------
          |                 G F N 1 - x T B                 |
           -------------------------------------------------

        Reference                      10.1021/acs.jctc.7b00118
      * Hamiltonian:
        H0-scaling (s, p, d)           1.850000    2.250000    2.000000
        zeta-weighting                 0.000000
      * Dispersion:
        s8                             2.400000
        a1                             0.630000
        a2                             5.000000
        s9                             0.000000
      * Repulsion:
        kExp                           1.500000
        rExp                           1.000000
      * Coulomb:
        alpha                          2.000000
        third order                    atomic
        anisotropic                    false
      * Halogen bond correction:
        rad-scale                      1.300000
        damping                        0.440000


          ...................................................
          :                      SETUP                      :
          :.................................................:
          :  # basis functions                1732          :
          :  # atomic orbitals                1732          :
          :  # shells                         1044          :
          :  # electrons                      1602          :
          :  # halogen bonds                     0          :
          :  max. iterations                   250          :
          :  Hamiltonian                  GFN1-xTB          :
          :  restarted?                      false          :
          :  GBSA solvation                  false          :
          :  PC potential                    false          :
          :  electronic temp.          300.0000000     K    :
          :  accuracy                    1.0000000          :
          :  -> integral cutoff          0.2500000E+02      :
          :  -> integral neglect         0.1000000E-07      :
          :  -> SCF convergence          0.1000000E-05 Eh   :
          :  -> wf. convergence          0.2000000E-04 e    :
          :  Broyden damping             0.4000000          :
          ...................................................

 iter      E             dE          RMSdq      gap      omega  full diag
   1   -885.6890914 -0.885689E+03  0.104E+01    0.00       0.0  T
   2   -833.0158873  0.526732E+02  0.707E+00    0.02       1.0  T
   3   7049.6721234  0.788269E+04  0.197E+01    0.04       1.0  T
   4  10036.8248212  0.298715E+04  0.217E+01    0.04       1.0  T
   5   2213.8050203 -0.782302E+04  0.145E+01    0.00       1.0  T
   6   -144.1004507 -0.235791E+04  0.838E+00    0.02       1.0  T
   7   1398.5196989  0.154262E+04  0.115E+01    0.08       1.0  T
   8    279.8123637 -0.111871E+04  0.863E+00    0.03       1.0  T
   9   -646.8904345 -0.926703E+03  0.519E+00    0.01       1.0  T
  10   -625.5157058  0.213747E+02  0.512E+00    0.01       1.0  T
  11   -720.9681373 -0.954524E+02  0.408E+00    0.02       1.0  T
  12   -616.4022884  0.104566E+03  0.459E+00    0.01       1.0  T
  13   -630.5140129 -0.141117E+02  0.449E+00    0.04       1.0  T
  14   -587.5082948  0.430057E+02  0.458E+00    0.01       1.0  T
  15   -578.5699480  0.893835E+01  0.461E+00    0.01       1.0  T
  16   -570.2521178  0.831783E+01  0.468E+00    0.01       1.0  T
  17   -576.5906787 -0.633856E+01  0.463E+00    0.01       1.0  T
  18   -582.1225039 -0.553183E+01  0.461E+00    0.00       1.0  T
  19   -579.0315101  0.309099E+01  0.468E+00    0.00       1.0  T
  20   -558.4054288  0.206261E+02  0.471E+00    0.03       1.0  T
  21   -599.7951277 -0.413897E+02  0.445E+00    0.03       1.0  T
  22   -644.6074122 -0.448123E+02  0.429E+00    0.03       1.0  T
  23   -644.8936148 -0.286203E+00  0.427E+00    0.01       1.0  T
  24   -663.9815592 -0.190879E+02  0.396E+00    0.00       1.0  T
  25   -661.3779095  0.260365E+01  0.416E+00    0.01       1.0  T
  26   -710.1864726 -0.488086E+02  0.387E+00    0.02       1.0  T
  27   -734.6528674 -0.244664E+02  0.365E+00    0.01       1.0  T
  28   -743.2155420 -0.856267E+01  0.372E+00    0.01       1.0  T
  29   -779.3118637 -0.360963E+02  0.325E+00    0.02       1.0  T
  30   -804.0611078 -0.247492E+02  0.311E+00    0.07       1.0  T
  31   -799.1981053  0.486300E+01  0.304E+00    0.01       1.0  T
  32   -809.7637046 -0.105656E+02  0.294E+00    0.01       1.0  T
  33   -814.6343245 -0.487062E+01  0.280E+00    0.00       1.0  T
  34   -829.2617349 -0.146274E+02  0.271E+00    0.05       1.0  T
  35   -832.2699621 -0.300823E+01  0.261E+00    0.01       1.0  T
  36   -831.2844471  0.985515E+00  0.275E+00    0.01       1.0  T
  37   -846.3155638 -0.150311E+02  0.245E+00    0.01       1.0  T
  38   -837.6843892  0.863117E+01  0.259E+00    0.01       1.0  T
  39   -850.5027332 -0.128183E+02  0.246E+00    0.02       1.0  T
  40   -860.3492859 -0.984655E+01  0.217E+00    0.03       1.0  T
  41   -867.8001575 -0.745087E+01  0.201E+00    0.00       1.0  T
  42   -865.3698597  0.243030E+01  0.205E+00    0.00       1.0  T
  43   -866.2331130 -0.863253E+00  0.201E+00    0.01       1.0  T
  44   -867.1128945 -0.879782E+00  0.199E+00    0.01       1.0  T
  45   -866.0980406  0.101485E+01  0.199E+00    0.01       1.0  T
  46   -866.2060743 -0.108034E+00  0.199E+00    0.00       1.0  T
  47   -873.4678880 -0.726181E+01  0.176E+00    0.00       1.0  T
  48   -878.4489746 -0.498109E+01  0.162E+00    0.01       1.0  T
  49   -878.4899037 -0.409290E-01  0.157E+00    0.01       1.0  T
  50   -878.8828469 -0.392943E+00  0.156E+00    0.03       1.0  T
  51   -878.3410184  0.541829E+00  0.162E+00    0.01       1.0  T
  52   -881.7114084 -0.337039E+01  0.146E+00    0.01       1.0  T
  53   -881.7231394 -0.117310E-01  0.144E+00    0.04       1.0  T
  54   -881.8234590 -0.100320E+00  0.144E+00    0.00       1.0  T
  55   -881.8396777 -0.162187E-01  0.139E+00    0.02       1.0  T
  56   -883.8077565 -0.196808E+01  0.140E+00    0.02       1.0  T
  57   -884.8835297 -0.107577E+01  0.125E+00    0.02       1.0  T
  58   -884.7118419  0.171688E+00  0.125E+00    0.01       1.0  T
  59   -884.7149117 -0.306980E-02  0.123E+00    0.02       1.0  T
  60   -884.1452351  0.569677E+00  0.124E+00    0.01       1.0  T
  61   -883.1317611  0.101347E+01  0.140E+00    0.02       1.0  T
  62   -883.2254923 -0.937312E-01  0.134E+00    0.02       1.0  T
  63   -882.9844800  0.241012E+00  0.136E+00    0.01       1.0  T
  64   -884.2631798 -0.127870E+01  0.119E+00    0.02       1.0  T
  65   -883.1481545  0.111503E+01  0.126E+00    0.07       1.0  T
  66   -883.5666711 -0.418517E+00  0.122E+00    0.01       1.0  T
  67   -882.6462508  0.920420E+00  0.130E+00    0.01       1.0  T
  68   -884.1880185 -0.154177E+01  0.114E+00    0.02       1.0  T
  69   -885.6517101 -0.146369E+01  0.949E-01    0.09       1.0  T
  70   -885.5507074  0.101003E+00  0.938E-01    0.03       1.0  T
  71   -885.7195747 -0.168867E+00  0.928E-01    0.06       1.0  T
  72   -884.0939706  0.162560E+01  0.101E+00    0.01       1.0  T
  73   -884.2907935 -0.196823E+00  0.989E-01    0.00       1.0  T
  74   -884.5736134 -0.282820E+00  0.935E-01    0.05       1.0  T
  75   -884.3821371  0.191476E+00  0.873E-01    0.03       1.0  T
  76   -885.0916049 -0.709468E+00  0.784E-01    0.02       1.0  T
  77   -885.5495067 -0.457902E+00  0.662E-01    0.03       1.0  T
  78   -886.5061260 -0.956619E+00  0.516E-01    0.04       1.0  T
  79   -886.8193782 -0.313252E+00  0.492E-01    0.01       1.0  T
  80   -887.1104937 -0.291116E+00  0.488E-01    0.02       1.0  T
  81   -887.1679939 -0.575002E-01  0.519E-01    0.01       1.0  T
  82   -887.1909471 -0.229532E-01  0.504E-01    0.01       1.0  T
  83   -887.2193242 -0.283771E-01  0.490E-01    0.02       1.0  T
  84   -887.1557902  0.635339E-01  0.484E-01    0.03       1.0  T
  85   -887.2583808 -0.102591E+00  0.459E-01    0.00       1.0  T
  86   -887.2611731 -0.279224E-02  0.447E-01    0.02       1.0  T
  87   -887.1373792  0.123794E+00  0.426E-01    0.01       1.0  T
  88   -887.3727370 -0.235358E+00  0.356E-01    0.04       1.0  T
  89   -887.3579390  0.147980E-01  0.355E-01    0.03       1.0  T
  90   -887.2337863  0.124153E+00  0.343E-01    0.00       1.0  T
  91   -887.4048026 -0.171016E+00  0.294E-01    0.02       1.0  T
  92   -887.3940349  0.107677E-01  0.293E-01    0.02       1.0  T
  93   -887.4998394 -0.105805E+00  0.253E-01    0.02       1.0  T
  94   -887.5167930 -0.169537E-01  0.234E-01    0.03       1.0  T
  95   -887.5480556 -0.312626E-01  0.210E-01    0.03       1.0  T
  96   -887.5334105  0.146451E-01  0.192E-01    0.03       1.0  T
  97   -887.5617876 -0.283771E-01  0.171E-01    0.02       1.0  T
  98   -887.5606258  0.116177E-02  0.159E-01    0.02       1.0  T
  99   -887.5663871 -0.576134E-02  0.178E-01    0.00       1.0  T
 100   -887.6006462 -0.342591E-01  0.138E-01    0.02       1.0  T
 101   -887.6056340 -0.498781E-02  0.127E-01    0.02       1.0  T
 102   -887.6099926 -0.435856E-02  0.119E-01    0.02       1.0  T
 103   -887.6213920 -0.113994E-01  0.981E-02    0.02       1.0  T
 104   -887.6274838 -0.609182E-02  0.834E-02    0.02       1.0  T
 105   -887.6319918 -0.450796E-02  0.699E-02    0.02       1.0  T
 106   -887.6340885 -0.209676E-02  0.656E-02    0.01       1.0  T
 107   -887.6364524 -0.236387E-02  0.578E-02    0.01       1.0  T
 108   -887.6381579 -0.170552E-02  0.510E-02    0.01       1.0  T
 109   -887.6391542 -0.996256E-03  0.451E-02    0.01       1.0  T
 110   -887.6400133 -0.859137E-03  0.409E-02    0.01       1.0  T
 111   -887.6402012 -0.187851E-03  0.373E-02    0.01       1.0  T
 112   -887.6409840 -0.782847E-03  0.313E-02    0.01       1.0  T
 113   -887.6410534 -0.694067E-04  0.302E-02    0.01       1.0  T
 114   -887.6409869  0.665580E-04  0.293E-02    0.01       1.0  T
 115   -887.6414275 -0.440609E-03  0.257E-02    0.01       1.0  T
 116   -887.6415678 -0.140307E-03  0.243E-02    0.01       1.0  T
 117   -887.6416457 -0.778906E-04  0.230E-02    0.01       1.0  T
 118   -887.6418452 -0.199577E-03  0.211E-02    0.01       1.0  T
 119   -887.6419914 -0.146113E-03  0.189E-02    0.01       1.0  T
 120   -887.6422385 -0.247115E-03  0.162E-02    0.01       1.0  T
 121   -887.6422981 -0.596097E-04  0.148E-02    0.01       1.0  T
 122   -887.6423777 -0.796139E-04  0.133E-02    0.01       1.0  T
 123   -887.6424197 -0.419965E-04  0.121E-02    0.01       1.0  T
 124   -887.6425020 -0.822805E-04  0.997E-03    0.00       1.0  T
 125   -887.6425145 -0.125068E-04  0.934E-03    0.00       1.0  T
 126   -887.6424949  0.195465E-04  0.882E-03    0.00       1.0  T
 127   -887.6425072 -0.123083E-04  0.801E-03    0.00       1.0  T
 128   -887.6425441 -0.368756E-04  0.695E-03    0.00       1.0  T
 129   -887.6425538 -0.969072E-05  0.648E-03    0.00       1.0  T
 130   -887.6425889 -0.351136E-04  0.561E-03    0.00       1.0  T
 131   -887.6425890 -0.622748E-07  0.535E-03    0.00       1.0  T
 132   -887.6426085 -0.195678E-04  0.477E-03    0.00       1.0  T
 133   -887.6426123 -0.378499E-05  0.449E-03    0.00       1.0  T
 134   -887.6426172 -0.484585E-05  0.412E-03    0.00       1.1  T
 135   -887.6426201 -0.287668E-05  0.388E-03    0.00       1.1  T
 136   -887.6426223 -0.228183E-05  0.371E-03    0.00       1.2  T
 137   -887.6426238 -0.142710E-05  0.352E-03    0.00       1.2  T
 138   -887.6426263 -0.252596E-05  0.325E-03    0.00       1.3  T
 139   -887.6426289 -0.263865E-05  0.294E-03    0.00       1.5  T
 140   -887.6426298 -0.862311E-06  0.273E-03    0.00       1.6  T
 141   -887.6426338 -0.396813E-05  0.230E-03    0.00       1.9  T
 142   -887.6426358 -0.199083E-05  0.189E-03    0.00       2.3  T
 143   -887.6426368 -0.106706E-05  0.158E-03    0.00       2.8  T
 144   -887.6426375 -0.732812E-06  0.137E-03    0.00       3.2  T
 145   -887.6426379 -0.342156E-06  0.128E-03    0.00       3.4  T
 146   -887.6426383 -0.395936E-06  0.116E-03    0.00       3.8  T
 147   -887.6426386 -0.311501E-06  0.104E-03    0.00       4.2  T
 148   -887.6426388 -0.191369E-06  0.100E-03    0.00       4.4  T
 149   -887.6426390 -0.236087E-06  0.911E-04    0.00       4.8  T
 150   -887.6426394 -0.412351E-06  0.766E-04    0.00       5.7  T
 151   -887.6426396 -0.157180E-06  0.699E-04    0.00       6.3  T
 152   -887.6426398 -0.167431E-06  0.627E-04    0.00       7.0  T
 153   -887.6426400 -0.193157E-06  0.513E-04    0.00       8.5  T
 154   -887.6426400 -0.683830E-07  0.466E-04    0.00       9.4  T
 155   -887.6426401 -0.973528E-07  0.392E-04    0.00      11.2  T
 156   -887.6426402 -0.651436E-07  0.328E-04    0.00      13.3  T
 157   -887.6426403 -0.632657E-07  0.260E-04    0.00      16.8  T
 158   -887.6426403 -0.270170E-07  0.214E-04    0.00      20.5  T
 159   -887.6426403 -0.134788E-07  0.183E-04    0.00      23.9  T
 160   -887.6426403 -0.125214E-07  0.156E-04    0.00      28.1  T

   *** convergence criteria satisfied after 160 iterations ***

         #    Occupation            Energy/Eh            Energy/eV
      -------------------------------------------------------------
         1        2.0000           -0.7984920             -21.7281
       ...           ...                  ...                  ...
       795        2.0000           -0.3678863             -10.0107
       796        2.0000           -0.3677725             -10.0076
       797        2.0000           -0.3672561              -9.9935
       798        2.0000           -0.3669586              -9.9855
       799        1.9998           -0.3651636              -9.9366
       800        1.9995           -0.3644075              -9.9160
       801        0.7520           -0.3560230              -9.6879 (HOMO)
       802        0.6686           -0.3558499              -9.6832 (LUMO)
       803        0.3367           -0.3549868              -9.6597
       804        0.2436           -0.3546274              -9.6499
       805        0.0000           -0.3427041              -9.3255
       806        0.0000           -0.3413279              -9.2880
       ...           ...                  ...                  ...
      1732                          3.4149615              92.9258
      -------------------------------------------------------------
                  HL-Gap            0.0001731 Eh            0.0047 eV
             Fermi-level           -0.3565043 Eh           -9.7010 eV

 SCC (total)                   0 d,  0 h,  6 min, 31.724 sec
 SCC setup                      ...        0 min,  0.129 sec (  0.033%)
 Dispersion                     ...        0 min,  0.064 sec (  0.016%)
 classical contributions        ...        0 min,  0.011 sec (  0.003%)
 integral evaluation            ...        0 min,  1.603 sec (  0.409%)
 iterations                     ...        6 min, 27.838 sec ( 99.008%)
 molecular gradient             ...        0 min,  1.723 sec (  0.440%)
 printout                       ...        0 min,  0.356 sec (  0.091%)

         :::::::::::::::::::::::::::::::::::::::::::::::::::::
         ::                     SUMMARY                     ::
         :::::::::::::::::::::::::::::::::::::::::::::::::::::
         :: total energy            -868.641694539477 Eh    ::
         :: gradient norm              4.541526171549 Eh/a0 ::
         :: HOMO-LUMO gap              0.004710795956 eV    ::
         ::.................................................::
         :: SCC energy              -887.642640304248 Eh    ::
         :: -> electrostatic           0.688853128167 Eh    ::
         :: repulsion energy          19.423433490599 Eh    ::
         :: dispersion energy         -0.422487725827 Eh    ::
         :: halogen bond corr.         0.000000000000 Eh    ::
         :: add. restraining           0.000000000000 Eh    ::
         :: total charge               0.000000000001 e     ::
         :::::::::::::::::::::::::::::::::::::::::::::::::::::

      ----------------------------------------------------------- 
     |                       L-ANC optimizer                     |
      ----------------------------------------------------------- 
          low memory version by Sebastian Ehlert

          ...................................................
          :                      SETUP                      :
          :.................................................:
          :   energy convergence        0.5000000E-05 Eh    :
          :   grad. convergence         0.1000000E-02 Eh/a0 :
          :   optimization log               true           :
          :   writing optlog all                1     steps :
          :   Hessian reset                    20     steps :
          :   maximium step len.        1.0000000     a0    :
          :   LBFGS images                     20           :
          ...................................................
 * calculating model hessian...
Using Lindh-Hessian (1995)
 Shifting diagonal of input Hessian by    1.0008090899427771E-002
 Lowest  eigenvalues of input Hessian
    0.010000    0.010002    0.010003    0.010004    0.010005    0.010005
    0.010006    0.010006    0.010007    0.010007    0.010008    0.010008
    0.010008    0.000000    0.010008    0.000000    0.000000    0.000000
 Highest eigenvalues
    3.873947    3.873965    3.873966    3.873967    3.873967    3.873969


........................................................................
.............................. CYCLE    1 ..............................
........................................................................
   1   -887.5183428 -0.887518E+03  0.271E-01    0.02       0.0  T
   2   -886.3358422  0.118250E+01  0.771E-01    0.01       1.0  T
   3   -887.1985343 -0.862692E+00  0.426E-01    0.09       1.0  T
   4   -887.0381873  0.160347E+00  0.431E-01    0.03       1.0  T
   5   -887.5690441 -0.530857E+00  0.157E-01    0.02       1.0  T
   6   -887.5629660  0.607809E-02  0.141E-01    0.02       1.0  T
   7   -887.4514926  0.111473E+00  0.214E-01    0.03       1.0  T
   8   -887.5645450 -0.113052E+00  0.110E-01    0.03       1.0  T
   9   -887.5899761 -0.254311E-01  0.597E-02    0.03       1.0  T
  10   -887.5972458 -0.726975E-02  0.448E-02    0.01       1.0  T
  11   -887.6014350 -0.418919E-02  0.292E-02    0.01       1.0  T
  12   -887.5932080  0.822701E-02  0.522E-02    0.02       1.0  T
  13   -887.5997073 -0.649928E-02  0.345E-02    0.01       1.0  T
  14   -887.6013488 -0.164151E-02  0.252E-02    0.00       1.0  T
  15   -887.6011650  0.183756E-03  0.250E-02    0.01       1.0  T
  16   -887.6031954 -0.203037E-02  0.408E-03    0.00       1.1  T
  17   -887.6030116  0.183772E-03  0.774E-03    0.00       1.0  T
  18   -887.6031139 -0.102292E-03  0.528E-03    0.00       1.0  T
  19   -887.6032182 -0.104261E-03  0.168E-03    0.00       2.6  T
  20   -887.6032099  0.823108E-05  0.219E-03    0.00       2.0  T
  21   -887.6032168 -0.682859E-05  0.174E-03    0.00       2.5  T
  22   -887.6032249 -0.812792E-05  0.975E-04    0.00       4.5  T
  23   -887.6032282 -0.325064E-05  0.366E-04    0.00      12.0  T
  24   -887.6032286 -0.415615E-06  0.150E-04    0.00      29.2  T
  25   -887.6032286 -0.283721E-07  0.107E-04    0.00      41.0  T
     SCC iter.                  ...        0 min, 55.609 sec
     gradient                   ...        0 min,  1.716 sec
 * total energy  :  -870.8122225 Eh     change       -0.2170528E+01 Eh
   gradient norm :     1.9100332 Eh/a0  converged?    E=F G=F D=F
   step length   :     0.7252720 a0

........................................................................
.............................. CYCLE    2 ..............................
........................................................................
   1   -887.6001880 -0.887600E+03  0.143E-01    0.01       0.0  T
   2   -886.4138286  0.118636E+01  0.750E-01    0.09       1.0  T
   3   -887.4328664 -0.101904E+01  0.298E-01    0.08       1.0  T
   4   -887.0963716  0.336495E+00  0.443E-01    0.11       1.0  T
   5   -887.6008931 -0.504521E+00  0.120E-01    0.06       1.0  T
   6   -887.5361074  0.647856E-01  0.169E-01    0.08       1.0  T
   7   -887.6242384 -0.881310E-01  0.729E-02    0.02       1.0  T
   8   -887.5935893  0.306491E-01  0.109E-01    0.04       1.0  T
   9   -887.5964456 -0.285624E-02  0.973E-02    0.04       1.0  T
  10   -887.6246371 -0.281915E-01  0.472E-02    0.03       1.0  T
  11   -887.6326667 -0.802961E-02  0.150E-02    0.01       1.0  T
  12   -887.6327710 -0.104293E-03  0.118E-02    0.01       1.0  T
  13   -887.6319272  0.843792E-03  0.198E-02    0.01       1.0  T
  14   -887.6327778 -0.850601E-03  0.992E-03    0.01       1.0  T
  15   -887.6331323 -0.354474E-03  0.188E-03    0.01       2.3  T
  16   -887.6331236  0.871898E-05  0.240E-03    0.01       1.8  T
  17   -887.6331390 -0.154690E-04  0.551E-04    0.01       7.9  T
  18   -887.6331398 -0.811965E-06  0.265E-04    0.01      16.5  T
  19   -887.6331397  0.134414E-06  0.331E-04    0.01      13.2  T
  20   -887.6331400 -0.284007E-06  0.207E-04    0.01      21.1  T
  21   -887.6331401 -0.903353E-07  0.101E-04    0.01      43.5  T
  22   -887.6331401 -0.378711E-07  0.177E-05    0.01     247.6  T
     SCC iter.                  ...        0 min, 50.402 sec
     gradient                   ...        0 min,  1.733 sec
 * total energy  :  -871.3821576 Eh     change       -0.5699351E+00 Eh
   gradient norm :     1.4683702 Eh/a0  converged?    E=F G=F D=F
   step length   :     3.2675465 a0

........................................................................
.............................. CYCLE    3 ..............................
........................................................................
   1   -887.6576887 -0.887658E+03  0.949E-02    0.03       0.0  T
   2   -886.9976336  0.660055E+00  0.542E-01    0.21       1.0  T
   3   -887.5312809 -0.533647E+00  0.217E-01    0.03       1.0  T
   4   -887.6091202 -0.778393E-01  0.140E-01    0.12       1.0  T
   5   -887.6596793 -0.505591E-01  0.713E-02    0.05       1.0  T
   6   -887.4786023  0.181077E+00  0.248E-01    0.03       1.0  T
   7   -887.6553108 -0.176708E+00  0.847E-02    0.05       1.0  T
   8   -887.6662571 -0.109463E-01  0.530E-02    0.03       1.0  T
   9   -887.6639836  0.227349E-02  0.564E-02    0.03       1.0  T
  10   -887.6641024 -0.118772E-03  0.558E-02    0.03       1.0  T
  11   -887.6642433 -0.140908E-03  0.559E-02    0.03       1.0  T
  12   -887.6665081 -0.226478E-02  0.491E-02    0.03       1.0  T
  13   -887.6687687 -0.226065E-02  0.393E-02    0.03       1.0  T
  14   -887.6720133 -0.324455E-02  0.210E-02    0.03       1.0  T
  15   -887.6725477 -0.534446E-03  0.177E-02    0.02       1.0  T
  16   -887.6728496 -0.301881E-03  0.141E-02    0.02       1.0  T
  17   -887.6732263 -0.376656E-03  0.688E-03    0.02       1.0  T
  18   -887.6732932 -0.669755E-04  0.402E-03    0.03       1.1  T
  19   -887.6733006 -0.735041E-05  0.323E-03    0.02       1.4  T
  20   -887.6733258 -0.252309E-04  0.102E-03    0.02       4.3  T
  21   -887.6733293 -0.350429E-05  0.224E-04    0.02      19.5  T
  22   -887.6733292  0.125559E-06  0.303E-04    0.02      14.4  T
  23   -887.6733294 -0.232397E-06  0.721E-05    0.02      60.7  T
  24   -887.6733294 -0.723412E-08  0.477E-05    0.02      91.8  T
     SCC iter.                  ...        0 min, 53.676 sec
     gradient                   ...        0 min,  1.606 sec
 * total energy  :  -871.6776110 Eh     change       -0.2954534E+00 Eh
   gradient norm :     1.2418325 Eh/a0  converged?    E=F G=F D=F
   step length   :     6.2818387 a0

........................................................................
.............................. CYCLE    4 ..............................
........................................................................
   1   -887.6888569 -0.887689E+03  0.500E-02    0.04       0.0  T
   2   -887.6708521  0.180048E-01  0.136E-01    0.05       1.0  T
   3   -887.6790044 -0.815228E-02  0.761E-02    0.06       1.0  T
   4   -887.6482930  0.307115E-01  0.118E-01    0.11       1.0  T
   5   -887.6823694 -0.340764E-01  0.806E-02    0.05       1.0  T
   6   -887.6778958  0.447362E-02  0.698E-02    0.06       1.0  T
   7   -887.6920561 -0.141603E-01  0.180E-02    0.04       1.0  T
   8   -887.6923297 -0.273635E-03  0.106E-02    0.04       1.0  T
   9   -887.6926279 -0.298186E-03  0.716E-03    0.04       1.0  T
  10   -887.6926955 -0.675752E-04  0.480E-03    0.04       1.0  T
  11   -887.6926964 -0.902477E-06  0.380E-03    0.04       1.2  T
  12   -887.6927467 -0.503169E-04  0.941E-04    0.04       4.7  T
  13   -887.6927482 -0.151364E-05  0.571E-04    0.04       7.7  T
  14   -887.6927496 -0.134607E-05  0.236E-04    0.04      18.5  T
  15   -887.6927498 -0.197266E-06  0.102E-04    0.04      42.9  T
  16   -887.6927498 -0.180910E-07  0.592E-05    0.04      73.9  T
     SCC iter.                  ...        0 min, 33.978 sec
     gradient                   ...        0 min,  1.769 sec
 * total energy  :  -871.8558295 Eh     change       -0.1782186E+00 Eh
   gradient norm :     1.1185145 Eh/a0  converged?    E=F G=F D=F
   step length   :    16.2104925 a0

........................................................................
.............................. CYCLE    5 ..............................
........................................................................
   1   -887.7081814 -0.887708E+03  0.351E-02    0.06       0.0  T
   2   -887.7075391  0.642288E-03  0.489E-02    0.06       1.0  T
   3   -887.7063263  0.121283E-02  0.309E-02    0.07       1.0  T
   4   -887.6876284  0.186979E-01  0.729E-02    0.09       1.0  T
   5   -887.7089949 -0.213665E-01  0.149E-02    0.06       1.0  T
   6   -887.7086124  0.382458E-03  0.135E-02    0.06       1.0  T
   7   -887.7092528 -0.640363E-03  0.536E-03    0.06       1.0  T
   8   -887.7093256 -0.728505E-04  0.151E-03    0.06       2.9  T
   9   -887.7093286 -0.296170E-05  0.814E-04    0.06       5.4  T
  10   -887.7093298 -0.119841E-05  0.526E-04    0.06       8.3  T
  11   -887.7093311 -0.128633E-05  0.251E-04    0.06      17.4  T
  12   -887.7093313 -0.206428E-06  0.837E-05    0.06      52.3  T
  13   -887.7093313 -0.913383E-08  0.484E-05    0.06      90.4  T
     SCC iter.                  ...        0 min, 28.665 sec
     gradient                   ...        0 min,  1.707 sec
 * total energy  :  -872.0063142 Eh     change       -0.1504846E+00 Eh
   gradient norm :     1.0227118 Eh/a0  converged?    E=F G=F D=F
   step length   :   100.4214304 a0

........................................................................
.............................. CYCLE    6 ..............................
........................................................................
   1   -887.7283809 -0.887728E+03  0.336E-02    0.09       0.0  T
   2   -887.7282935  0.874600E-04  0.412E-02    0.08       1.0  T
   3   -887.7287734 -0.479930E-03  0.184E-02    0.08       1.0  T
   4   -887.7148404  0.139330E-01  0.600E-02    0.10       1.0  T
   5   -887.7284310 -0.135905E-01  0.182E-02    0.08       1.0  T
   6   -887.7286109 -0.179938E-03  0.133E-02    0.08       1.0  T
   7   -887.7292185 -0.607601E-03  0.433E-03    0.08       1.0  T
   8   -887.7292588 -0.402878E-04  0.159E-03    0.08       2.8  T
   9   -887.7292660 -0.718012E-05  0.573E-04    0.08       7.6  T
  10   -887.7292663 -0.315278E-06  0.422E-04    0.08      10.4  T
  11   -887.7292671 -0.788665E-06  0.180E-04    0.08      24.3  T
  12   -887.7292672 -0.744334E-07  0.821E-05    0.08      53.3  T
     SCC iter.                  ...        0 min, 26.826 sec
     gradient                   ...        0 min,  1.668 sec
 * total energy  :  -872.1426857 Eh     change       -0.1363715E+00 Eh
   gradient norm :     0.9407275 Eh/a0  converged?    E=F G=F D=F
   step length   :   119.1548410 a0

........................................................................
.............................. CYCLE    7 ..............................
........................................................................
   1   -887.7528469 -0.887753E+03  0.332E-02    0.11       0.0  T
   2   -887.7528861 -0.391827E-04  0.383E-02    0.11       1.0  T
   3   -887.7534434 -0.557367E-03  0.166E-02    0.11       1.0  T
   4   -887.7497697  0.367376E-02  0.331E-02    0.11       1.0  T
   5   -887.7522135 -0.244380E-02  0.217E-02    0.11       1.0  T
   6   -887.7531574 -0.943944E-03  0.105E-02    0.11       1.0  T
   7   -887.7534910 -0.333621E-03  0.421E-03    0.11       1.0  T
   8   -887.7535465 -0.554312E-04  0.906E-04    0.11       4.8  T
   9   -887.7535476 -0.114918E-05  0.408E-04    0.11      10.7  T
  10   -887.7535478 -0.188030E-06  0.314E-04    0.11      14.0  T
  11   -887.7535482 -0.383317E-06  0.121E-04    0.11      36.3  T
  12   -887.7535482 -0.335910E-07  0.546E-05    0.11      80.1  T
     SCC iter.                  ...        0 min, 26.788 sec
     gradient                   ...        0 min,  1.687 sec
 * total energy  :  -872.2666273 Eh     change       -0.1239417E+00 Eh
   gradient norm :     0.8648538 Eh/a0  converged?    E=F G=F D=F
   step length   :    62.9752867 a0

........................................................................
.............................. CYCLE    8 ..............................
........................................................................
   1   -887.7842871 -0.887784E+03  0.319E-02    0.14       0.0  T
   2   -887.7842909 -0.381949E-05  0.374E-02    0.14       1.0  T
   3   -887.7848568 -0.565949E-03  0.156E-02    0.14       1.0  T
   4   -887.7842379  0.618976E-03  0.206E-02    0.14       1.0  T
   5   -887.7845808 -0.342993E-03  0.109E-02    0.14       1.0  T
   6   -887.7848095 -0.228692E-03  0.483E-03    0.14       1.0  T
   7   -887.7848662 -0.566811E-04  0.250E-03    0.14       1.8  T
   8   -887.7848874 -0.211849E-04  0.831E-04    0.14       5.3  T
   9   -887.7848891 -0.174735E-05  0.248E-04    0.14      17.6  T
  10   -887.7848892 -0.426015E-07  0.186E-04    0.14      23.5  T
  11   -887.7848893 -0.114890E-06  0.678E-05    0.14      64.5  T
     SCC iter.                  ...        0 min, 23.716 sec
     gradient                   ...        0 min,  1.700 sec
 * total energy  :  -872.3736127 Eh     change       -0.1069854E+00 Eh
   gradient norm :     0.7910024 Eh/a0  converged?    E=F G=F D=F
   step length   :    23.4458744 a0

........................................................................
.............................. CYCLE    9 ..............................
........................................................................
   1   -887.8247970 -0.887825E+03  0.318E-02    0.18       0.0  T
   2   -887.8247139  0.830471E-04  0.382E-02    0.18       1.0  T
   3   -887.8254231 -0.709213E-03  0.144E-02    0.18       1.0  T
   4   -887.8250071  0.416027E-03  0.187E-02    0.18       1.0  T
   5   -887.8253400 -0.332901E-03  0.771E-03    0.18       1.0  T
   6   -887.8254341 -0.940706E-04  0.276E-03    0.18       1.6  T
   7   -887.8254513 -0.172080E-04  0.807E-04    0.18       5.4  T
   8   -887.8254522 -0.914770E-06  0.363E-04    0.18      12.1  T
   9   -887.8254526 -0.363646E-06  0.157E-04    0.18      27.9  T
  10   -887.8254526 -0.599164E-07  0.672E-05    0.18      65.1  T
     SCC iter.                  ...        0 min, 22.356 sec
     gradient                   ...        0 min,  1.693 sec
 * total energy  :  -872.4550328 Eh     change       -0.8142000E-01 Eh
   gradient norm :     0.7210797 Eh/a0  converged?    E=F G=F D=F
   step length   :    14.2015541 a0

........................................................................
.............................. CYCLE   10 ..............................
........................................................................
   1   -887.8718690 -0.887872E+03  0.231E-02    0.22       0.0  T
   2   -887.8718706 -0.152655E-05  0.241E-02    0.22       1.0  T
   3   -887.8722259 -0.355339E-03  0.781E-03    0.22       1.0  T
   4   -887.8721452  0.807140E-04  0.986E-03    0.22       1.0  T
   5   -887.8722373 -0.921148E-04  0.331E-03    0.22       1.3  T
   6   -887.8722455 -0.819628E-05  0.136E-03    0.22       3.2  T
   7   -887.8722493 -0.385690E-05  0.634E-04    0.22       6.9  T
   8   -887.8722503 -0.911061E-06  0.129E-04    0.22      33.8  T
   9   -887.8722503 -0.134552E-07  0.670E-05    0.22      65.3  T
     SCC iter.                  ...        0 min, 20.066 sec
     gradient                   ...        0 min,  1.715 sec
 * total energy  :  -872.5130738 Eh     change       -0.5804103E-01 Eh
   gradient norm :     0.6628751 Eh/a0  converged?    E=F G=F D=F
   step length   :     9.6997767 a0

........................................................................
.............................. CYCLE   11 ..............................
........................................................................
   1   -887.9419227 -0.887942E+03  0.216E-02    0.27       0.0  T
   2   -887.9419686 -0.458536E-04  0.184E-02    0.26       1.0  T
   3   -887.9421853 -0.216738E-03  0.669E-03    0.26       1.0  T
   4   -887.9421524  0.329354E-04  0.787E-03    0.26       1.0  T
   5   -887.9422195 -0.671514E-04  0.261E-03    0.26       1.7  T
   6   -887.9422244 -0.491544E-05  0.992E-04    0.26       4.4  T
   7   -887.9422257 -0.122686E-05  0.428E-04    0.26      10.2  T
   8   -887.9422261 -0.392780E-06  0.117E-04    0.26      37.5  T
   9   -887.9422261 -0.172732E-07  0.515E-05    0.26      85.0  T
     SCC iter.                  ...        0 min, 18.984 sec
     gradient                   ...        0 min,  1.722 sec
 * total energy  :  -872.5679423 Eh     change       -0.5486848E-01 Eh
   gradient norm :     0.5993311 Eh/a0  converged?    E=F G=F D=F
   step length   :     9.5147549 a0

........................................................................
.............................. CYCLE   12 ..............................
........................................................................
   1   -888.0090083 -0.888009E+03  0.175E-02    0.32       0.0  T
   2   -888.0090938 -0.855278E-04  0.117E-02    0.32       1.0  T
   3   -888.0091854 -0.915623E-04  0.550E-03    0.32       1.0  T
   4   -888.0092013 -0.158612E-04  0.441E-03    0.32       1.0  T
   5   -888.0092203 -0.190170E-04  0.192E-03    0.32       2.3  T
   6   -888.0092234 -0.315129E-05  0.753E-04    0.32       5.8  T
   7   -888.0092241 -0.727998E-06  0.317E-04    0.32      13.8  T
   8   -888.0092243 -0.185907E-06  0.102E-04    0.32      42.8  T
   9   -888.0092243 -0.116188E-07  0.401E-05    0.32     109.2  T
     SCC iter.                  ...        0 min, 19.178 sec
     gradient                   ...        0 min,  1.754 sec
 * total energy  :  -872.6159076 Eh     change       -0.4796532E-01 Eh
   gradient norm :     0.5356025 Eh/a0  converged?    E=F G=F D=F
   step length   :     7.5298727 a0

........................................................................
.............................. CYCLE   13 ..............................
........................................................................
   1   -888.0674616 -0.888067E+03  0.154E-02    0.37       0.0  T
   2   -888.0675413 -0.796251E-04  0.999E-03    0.37       1.0  T
   3   -888.0676119 -0.705936E-04  0.460E-03    0.37       1.0  T
   4   -888.0676198 -0.794654E-05  0.376E-03    0.37       1.2  T
   5   -888.0676338 -0.140328E-04  0.169E-03    0.37       2.6  T
   6   -888.0676366 -0.277628E-05  0.593E-04    0.37       7.4  T
   7   -888.0676371 -0.469631E-06  0.235E-04    0.37      18.6  T
   8   -888.0676372 -0.853597E-07  0.883E-05    0.37      49.6  T
   9   -888.0676372 -0.905152E-08  0.321E-05    0.37     136.3  T
     SCC iter.                  ...        0 min, 19.597 sec
     gradient                   ...        0 min,  1.748 sec
 * total energy  :  -872.6562242 Eh     change       -0.4031659E-01 Eh
   gradient norm :     0.4741877 Eh/a0  converged?    E=F G=F D=F
   step length   :    10.3620173 a0

........................................................................
.............................. CYCLE   14 ..............................
........................................................................
   1   -888.1183299 -0.888118E+03  0.166E-02    0.43       0.0  T
   2   -888.1183912 -0.613835E-04  0.130E-02    0.42       1.0  T
   3   -888.1185065 -0.115310E-03  0.493E-03    0.42       1.0  T
   4   -888.1184968  0.978525E-05  0.516E-03    0.42       1.0  T
   5   -888.1185256 -0.288327E-04  0.179E-03    0.42       2.4  T
   6   -888.1185282 -0.262506E-05  0.558E-04    0.42       7.8  T
   7   -888.1185287 -0.444757E-06  0.243E-04    0.42      18.0  T
   8   -888.1185288 -0.101321E-06  0.793E-05    0.42      55.2  T
   9   -888.1185288 -0.596060E-08  0.289E-05    0.42     151.4  T
     SCC iter.                  ...        0 min, 20.605 sec
     gradient                   ...        0 min,  1.718 sec
 * total energy  :  -872.6910473 Eh     change       -0.3482312E-01 Eh
   gradient norm :     0.4141913 Eh/a0  converged?    E=F G=F D=F
   step length   :     8.3611232 a0

........................................................................
.............................. CYCLE   15 ..............................
........................................................................
   1   -888.1638136 -0.888164E+03  0.153E-02    0.48       0.0  T
   2   -888.1638758 -0.621173E-04  0.116E-02    0.48       1.0  T
   3   -888.1639740 -0.982345E-04  0.452E-03    0.48       1.0  T
   4   -888.1639714  0.257851E-05  0.409E-03    0.48       1.1  T
   5   -888.1639877 -0.162617E-04  0.167E-03    0.48       2.6  T
   6   -888.1639905 -0.279500E-05  0.475E-04    0.48       9.2  T
   7   -888.1639908 -0.307349E-06  0.187E-04    0.48      23.5  T
   8   -888.1639908 -0.482836E-07  0.767E-05    0.48      57.1  T
     SCC iter.                  ...        0 min, 18.079 sec
     gradient                   ...        0 min,  1.708 sec
 * total energy  :  -872.7213159 Eh     change       -0.3026864E-01 Eh
   gradient norm :     0.3545830 Eh/a0  converged?    E=F G=F D=F
   step length   :     7.7689910 a0

........................................................................
.............................. CYCLE   16 ..............................
........................................................................
   1   -888.1972933 -0.888197E+03  0.133E-02    0.53       0.0  T
   2   -888.1973469 -0.535936E-04  0.987E-03    0.53       1.0  T
   3   -888.1974181 -0.711774E-04  0.375E-03    0.53       1.2  T
   4   -888.1974156  0.247264E-05  0.333E-03    0.53       1.3  T
   5   -888.1974255 -0.989077E-05  0.151E-03    0.53       2.9  T
   6   -888.1974281 -0.260043E-05  0.388E-04    0.53      11.3  T
   7   -888.1974283 -0.204068E-06  0.143E-04    0.53      30.7  T
   8   -888.1974283 -0.227078E-07  0.648E-05    0.53      67.5  T
     SCC iter.                  ...        0 min, 18.375 sec
     gradient                   ...        0 min,  1.725 sec
 * total energy  :  -872.7451117 Eh     change       -0.2379576E-01 Eh
   gradient norm :     0.2977330 Eh/a0  converged?    E=F G=F D=F
   step length   :     4.9037292 a0

........................................................................
.............................. CYCLE   17 ..............................
........................................................................
   1   -888.2237516 -0.888224E+03  0.148E-02    0.57       0.0  T
   2   -888.2237936 -0.419294E-04  0.125E-02    0.57       1.0  T
   3   -888.2239037 -0.110139E-03  0.414E-03    0.57       1.1  T
   4   -888.2238907  0.129949E-04  0.440E-03    0.57       1.0  T
   5   -888.2239104 -0.196512E-04  0.156E-03    0.57       2.8  T
   6   -888.2239124 -0.200749E-05  0.384E-04    0.57      11.4  T
   7   -888.2239125 -0.170627E-06  0.167E-04    0.57      26.2  T
   8   -888.2239126 -0.437105E-07  0.600E-05    0.57      73.0  T
     SCC iter.                  ...        0 min, 18.128 sec
     gradient                   ...        0 min,  1.702 sec
 * total energy  :  -872.7634985 Eh     change       -0.1838683E-01 Eh
   gradient norm :     0.2443596 Eh/a0  converged?    E=F G=F D=F
   step length   :     6.3976387 a0

........................................................................
.............................. CYCLE   18 ..............................
........................................................................
   1   -888.2413864 -0.888241E+03  0.110E-02    0.61       0.0  T
   2   -888.2414228 -0.364404E-04  0.882E-03    0.61       1.0  T
   3   -888.2414738 -0.509330E-04  0.330E-03    0.61       1.3  T
   4   -888.2414681  0.561112E-05  0.299E-03    0.61       1.5  T
   5   -888.2414758 -0.769197E-05  0.132E-03    0.61       3.3  T
   6   -888.2414780 -0.211185E-05  0.276E-04    0.61      15.8  T
   7   -888.2414781 -0.985260E-07  0.967E-05    0.61      45.2  T
   8   -888.2414781 -0.819762E-08  0.477E-05    0.61      91.8  T
     SCC iter.                  ...        0 min, 18.737 sec
     gradient                   ...        0 min,  1.654 sec
 * total energy  :  -872.7791937 Eh     change       -0.1569516E-01 Eh
   gradient norm :     0.1927981 Eh/a0  converged?    E=F G=F D=F
   step length   :     4.0254520 a0

........................................................................
.............................. CYCLE   19 ..............................
........................................................................
   1   -888.2516735 -0.888252E+03  0.956E-03    0.65       0.0  T
   2   -888.2516962 -0.227089E-04  0.806E-03    0.65       1.0  T
   3   -888.2517407 -0.444857E-04  0.284E-03    0.65       1.5  T
   4   -888.2517362  0.450674E-05  0.261E-03    0.65       1.7  T
   5   -888.2517420 -0.586631E-05  0.114E-03    0.65       3.9  T
   6   -888.2517434 -0.139719E-05  0.238E-04    0.65      18.4  T
   7   -888.2517435 -0.691265E-07  0.856E-05    0.65      51.1  T
   8   -888.2517435 -0.781347E-08  0.420E-05    0.65     104.2  T
     SCC iter.                  ...        0 min, 16.085 sec
     gradient                   ...        0 min,  1.597 sec
 * total energy  :  -872.7903977 Eh     change       -0.1120406E-01 Eh
   gradient norm :     0.1473370 Eh/a0  converged?    E=F G=F D=F
   step length   :     3.5351565 a0

........................................................................
.............................. CYCLE   20 ..............................
........................................................................
   1   -888.2561594 -0.888256E+03  0.869E-03    0.68       0.0  T
   2   -888.2561747 -0.152709E-04  0.791E-03    0.68       1.0  T
   3   -888.2562148 -0.401587E-04  0.273E-03    0.68       1.6  T
   4   -888.2562089  0.589039E-05  0.258E-03    0.68       1.7  T
   5   -888.2562152 -0.626133E-05  0.104E-03    0.68       4.2  T
   6   -888.2562163 -0.111385E-05  0.195E-04    0.68      22.5  T
   7   -888.2562164 -0.399472E-07  0.779E-05    0.68      56.2  T
   8   -888.2562164 -0.643479E-08  0.344E-05    0.68     127.2  T
     SCC iter.                  ...        0 min, 16.900 sec
     gradient                   ...        0 min,  1.764 sec
 * total energy  :  -872.7997306 Eh     change       -0.9332888E-02 Eh
   gradient norm :     0.1080780 Eh/a0  converged?    E=F G=F D=F
   step length   :     3.9746435 a0
 * RMSD in coord.:     0.7152688 a0     energy gain  -0.4158036E+01 Eh
 * calculating model hessian...
Using Lindh-Hessian (1995)
 Shifting diagonal of input Hessian by    1.0001112991299124E-002
 Lowest  eigenvalues of input Hessian
    0.010000    0.010000    0.010001    0.010001    0.010001    0.010001
    0.010001    0.000000    0.000000    0.000000    0.000000    0.000000
    0.000000    0.010001    0.010002    0.010002    0.010003    0.010003
 Highest eigenvalues
    3.056027    3.086560    3.086606    3.092140    3.092411    3.103184


........................................................................
.............................. CYCLE   21 ..............................
........................................................................
   1   -888.2360237 -0.888236E+03  0.119E-02    0.69       0.0  T
   2   -888.2360601 -0.364549E-04  0.100E-02    0.69       1.0  T
   3   -888.2361060 -0.458254E-04  0.391E-03    0.69       1.1  T
   4   -888.2361000  0.594452E-05  0.318E-03    0.69       1.4  T
   5   -888.2361049 -0.492653E-05  0.135E-03    0.69       3.2  T
   6   -888.2361073 -0.232202E-05  0.314E-04    0.69      13.9  T
   7   -888.2361074 -0.170665E-06  0.762E-05    0.69      57.4  T
   8   -888.2361074 -0.653904E-08  0.378E-05    0.69     115.8  T
     SCC iter.                  ...        0 min, 17.279 sec
     gradient                   ...        0 min,  1.728 sec
 * total energy  :  -872.8095566 Eh     change       -0.9825946E-02 Eh
   gradient norm :     0.0409065 Eh/a0  converged?    E=F G=F D=F
   step length   :     0.4022852 a0

........................................................................
.............................. CYCLE   22 ..............................
........................................................................
   1   -888.1742039 -0.888174E+03  0.137E-02    0.70       0.0  T
   2   -888.1742409 -0.370705E-04  0.984E-03    0.70       1.0  T
   3   -888.1742824 -0.414671E-04  0.450E-03    0.70       1.0  T
   4   -888.1742758  0.656732E-05  0.380E-03    0.70       1.2  T
   5   -888.1742883 -0.124970E-04  0.152E-03    0.70       2.9  T
   6   -888.1742911 -0.277472E-05  0.295E-04    0.70      14.8  T
   7   -888.1742912 -0.103833E-06  0.134E-04    0.70      32.7  T
   8   -888.1742912 -0.261381E-07  0.494E-05    0.70      88.7  T
     SCC iter.                  ...        0 min, 18.621 sec
     gradient                   ...        0 min,  1.751 sec
 * total energy  :  -872.8151969 Eh     change       -0.5640289E-02 Eh
   gradient norm :     0.0476198 Eh/a0  converged?    E=F G=F D=F
   step length   :     1.0605676 a0

........................................................................
.............................. CYCLE   23 ..............................
........................................................................
   1   -888.1273595 -0.888127E+03  0.896E-03    0.71       0.0  T
   2   -888.1273719 -0.124148E-04  0.649E-03    0.71       1.0  T
   3   -888.1273930 -0.210646E-04  0.309E-03    0.71       1.4  T
   4   -888.1273917  0.131121E-05  0.255E-03    0.71       1.7  T
   5   -888.1273984 -0.674390E-05  0.879E-04    0.71       5.0  T
   6   -888.1273992 -0.800712E-06  0.221E-04    0.71      19.8  T
   7   -888.1273993 -0.599579E-07  0.989E-05    0.71      44.3  T
   8   -888.1273993 -0.143177E-07  0.320E-05    0.71     136.7  T
     SCC iter.                  ...        0 min, 18.874 sec
     gradient                   ...        0 min,  1.710 sec
 * total energy  :  -872.8198170 Eh     change       -0.4620137E-02 Eh
   gradient norm :     0.0610206 Eh/a0  converged?    E=F G=F D=F
   step length   :     1.5433731 a0

........................................................................
.............................. CYCLE   24 ..............................
........................................................................
   1   -888.1073462 -0.888107E+03  0.612E-03    0.71       0.0  T
   2   -888.1073554 -0.919889E-05  0.515E-03    0.71       1.0  T
   3   -888.1073675 -0.120314E-04  0.217E-03    0.71       2.0  T
   4   -888.1073636  0.382571E-05  0.200E-03    0.71       2.2  T
   5   -888.1073678 -0.417866E-05  0.693E-04    0.71       6.3  T
   6   -888.1073683 -0.508446E-06  0.159E-04    0.71      27.5  T
   7   -888.1073684 -0.299108E-07  0.576E-05    0.71      76.0  T
     SCC iter.                  ...        0 min, 16.579 sec
     gradient                   ...        0 min,  1.741 sec
 * total energy  :  -872.8233899 Eh     change       -0.3572895E-02 Eh
   gradient norm :     0.0371333 Eh/a0  converged?    E=F G=F D=F
   step length   :     0.6350745 a0

........................................................................
.............................. CYCLE   25 ..............................
........................................................................
   1   -888.0850641 -0.888085E+03  0.919E-03    0.70       0.0  T
   2   -888.0850858 -0.216834E-04  0.708E-03    0.70       1.0  T
   3   -888.0851089 -0.230537E-04  0.300E-03    0.70       1.5  T
   4   -888.0851037  0.518508E-05  0.260E-03    0.70       1.7  T
   5   -888.0851098 -0.608266E-05  0.103E-03    0.70       4.3  T
   6   -888.0851110 -0.120671E-05  0.254E-04    0.70      17.2  T
   7   -888.0851111 -0.841042E-07  0.841E-05    0.70      52.1  T
   8   -888.0851111 -0.783541E-08  0.323E-05    0.70     135.4  T
     SCC iter.                  ...        0 min, 16.619 sec
     gradient                   ...        0 min,  1.688 sec
 * total energy  :  -872.8269497 Eh     change       -0.3559827E-02 Eh
   gradient norm :     0.0262905 Eh/a0  converged?    E=F G=F D=F
   step length   :     1.7090814 a0

........................................................................
.............................. CYCLE   26 ..............................
........................................................................
   1   -888.0543253 -0.888054E+03  0.446E-03    0.70       0.0  T
   2   -888.0543291 -0.383097E-05  0.343E-03    0.70       1.3  T
   3   -888.0543352 -0.612116E-05  0.148E-03    0.70       3.0  T
   4   -888.0543344  0.852970E-06  0.124E-03    0.70       3.5  T
   5   -888.0543357 -0.134368E-05  0.496E-04    0.70       8.8  T
   6   -888.0543361 -0.369778E-06  0.106E-04    0.70      41.4  T
   7   -888.0543361 -0.131215E-07  0.405E-05    0.70     108.0  T
     SCC iter.                  ...        0 min, 14.619 sec
     gradient                   ...        0 min,  1.713 sec
 * total energy  :  -872.8288917 Eh     change       -0.1941973E-02 Eh
   gradient norm :     0.0291806 Eh/a0  converged?    E=F G=F D=F
   step length   :     1.0754538 a0

........................................................................
.............................. CYCLE   27 ..............................
........................................................................
   1   -888.0310718 -0.888031E+03  0.388E-03    0.70       0.0  T
   2   -888.0310755 -0.370958E-05  0.303E-03    0.70       1.4  T
   3   -888.0310800 -0.441874E-05  0.133E-03    0.70       3.3  T
   4   -888.0310795  0.451069E-06  0.925E-04    0.70       4.7  T
   5   -888.0310801 -0.551548E-06  0.352E-04    0.70      12.4  T
   6   -888.0310802 -0.157994E-06  0.108E-04    0.70      40.5  T
   7   -888.0310802 -0.208494E-07  0.325E-05    0.70     134.5  T
     SCC iter.                  ...        0 min, 15.990 sec
     gradient                   ...        0 min,  1.743 sec
 * total energy  :  -872.8308661 Eh     change       -0.1974452E-02 Eh
   gradient norm :     0.0256301 Eh/a0  converged?    E=F G=F D=F
   step length   :     1.3567194 a0

........................................................................
.............................. CYCLE   28 ..............................
........................................................................
   1   -888.0268614 -0.888027E+03  0.383E-03    0.70       0.0  T
   2   -888.0268669 -0.556598E-05  0.298E-03    0.70       1.5  T
   3   -888.0268712 -0.427339E-05  0.117E-03    0.70       3.8  T
   4   -888.0268707  0.461791E-06  0.944E-04    0.70       4.6  T
   5   -888.0268713 -0.509863E-06  0.293E-04    0.70      14.9  T
   6   -888.0268714 -0.110400E-06  0.906E-05    0.70      48.3  T
   7   -888.0268714 -0.124611E-07  0.284E-05    0.70     154.2  T
     SCC iter.                  ...        0 min, 17.557 sec
     gradient                   ...        0 min,  1.691 sec
 * total energy  :  -872.8333112 Eh     change       -0.2445104E-02 Eh
   gradient norm :     0.0238435 Eh/a0  converged?    E=F G=F D=F
   step length   :     2.1732159 a0

........................................................................
.............................. CYCLE   29 ..............................
........................................................................
   1   -888.0384640 -0.888038E+03  0.414E-03    0.70       0.0  T
   2   -888.0384694 -0.533515E-05  0.315E-03    0.70       1.4  T
   3   -888.0384749 -0.558014E-05  0.123E-03    0.70       3.6  T
   4   -888.0384744  0.547206E-06  0.107E-03    0.70       4.1  T
   5   -888.0384752 -0.801070E-06  0.354E-04    0.70      12.3  T
   6   -888.0384754 -0.199176E-06  0.104E-04    0.70      42.0  T
   7   -888.0384754 -0.154118E-07  0.352E-05    0.70     124.5  T
     SCC iter.                  ...        0 min, 15.103 sec
     gradient                   ...        0 min,  1.692 sec
 * total energy  :  -872.8357973 Eh     change       -0.2486081E-02 Eh
   gradient norm :     0.0256289 Eh/a0  converged?    E=F G=F D=F
   step length   :     3.2322831 a0

........................................................................
.............................. CYCLE   30 ..............................
........................................................................
   1   -888.0589093 -0.888059E+03  0.412E-03    0.69       0.0  T
   2   -888.0589136 -0.430089E-05  0.281E-03    0.70       1.6  T
   3   -888.0589184 -0.479953E-05  0.128E-03    0.70       3.4  T
   4   -888.0589185 -0.106084E-06  0.105E-03    0.70       4.2  T
   5   -888.0589195 -0.950539E-06  0.320E-04    0.70      13.7  T
   6   -888.0589196 -0.130256E-06  0.107E-04    0.70      40.9  T
   7   -888.0589196 -0.138799E-07  0.422E-05    0.70     103.8  T
     SCC iter.                  ...        0 min, 14.570 sec
     gradient                   ...        0 min,  1.709 sec
 * total energy  :  -872.8382757 Eh     change       -0.2478392E-02 Eh
   gradient norm :     0.0260251 Eh/a0  converged?    E=F G=F D=F
   step length   :     3.3446583 a0

........................................................................
.............................. CYCLE   31 ..............................
........................................................................
   1   -888.0743045 -0.888074E+03  0.360E-03    0.69       0.0  T
   2   -888.0743082 -0.367131E-05  0.234E-03    0.69       1.9  T
   3   -888.0743114 -0.325070E-05  0.107E-03    0.69       4.1  T
   4   -888.0743114 -0.342231E-08  0.868E-04    0.69       5.0  T
   5   -888.0743121 -0.686977E-06  0.279E-04    0.69      15.7  T
   6   -888.0743122 -0.912554E-07  0.931E-05    0.69      47.0  T
   7   -888.0743122 -0.963166E-08  0.370E-05    0.69     118.2  T
     SCC iter.                  ...        0 min, 18.374 sec
     gradient                   ...        0 min,  1.720 sec
 * total energy  :  -872.8402962 Eh     change       -0.2020458E-02 Eh
   gradient norm :     0.0254252 Eh/a0  converged?    E=F G=F D=F
   step length   :     3.5558649 a0

........................................................................
.............................. CYCLE   32 ..............................
........................................................................
   1   -888.0891746 -0.888089E+03  0.331E-03    0.69       0.0  T
   2   -888.0891779 -0.326492E-05  0.206E-03    0.69       2.1  T
   3   -888.0891801 -0.222940E-05  0.978E-04    0.69       4.5  T
   4   -888.0891800  0.603385E-07  0.794E-04    0.69       5.5  T
   5   -888.0891807 -0.635552E-06  0.228E-04    0.69      19.2  T
   6   -888.0891807 -0.662161E-07  0.856E-05    0.69      51.1  T
   7   -888.0891807 -0.846956E-08  0.334E-05    0.69     130.9  T
     SCC iter.                  ...        0 min, 16.764 sec
     gradient                   ...        0 min,  1.610 sec
 * total energy  :  -872.8420033 Eh     change       -0.1707159E-02 Eh
   gradient norm :     0.0237404 Eh/a0  converged?    E=F G=F D=F
   step length   :     3.8682937 a0

........................................................................
.............................. CYCLE   33 ..............................
........................................................................
   1   -888.1051796 -0.888105E+03  0.329E-03    0.69       0.0  T
   2   -888.1051830 -0.337966E-05  0.203E-03    0.69       2.2  T
   3   -888.1051850 -0.208828E-05  0.972E-04    0.69       4.5  T
   4   -888.1051849  0.133525E-06  0.797E-04    0.69       5.5  T
   5   -888.1051856 -0.675896E-06  0.223E-04    0.69      19.6  T
   6   -888.1051857 -0.667314E-07  0.921E-05    0.69      47.5  T
   7   -888.1051857 -0.111503E-07  0.336E-05    0.69     130.4  T
     SCC iter.                  ...        0 min, 14.740 sec
     gradient                   ...        0 min,  1.694 sec
 * total energy  :  -872.8434762 Eh     change       -0.1472892E-02 Eh
   gradient norm :     0.0210094 Eh/a0  converged?    E=F G=F D=F
   step length   :     3.6574048 a0

........................................................................
.............................. CYCLE   34 ..............................
........................................................................
   1   -888.1204231 -0.888120E+03  0.335E-03    0.69       0.0  T
   2   -888.1204269 -0.388198E-05  0.206E-03    0.69       2.1  T
   3   -888.1204291 -0.218259E-05  0.953E-04    0.69       4.6  T
   4   -888.1204289  0.222192E-06  0.771E-04    0.69       5.7  T
   5   -888.1204295 -0.618475E-06  0.241E-04    0.69      18.2  T
   6   -888.1204296 -0.834655E-07  0.963E-05    0.69      45.4  T
   7   -888.1204296 -0.132173E-07  0.340E-05    0.69     128.6  T
     SCC iter.                  ...        0 min, 19.971 sec
     gradient                   ...        0 min,  1.766 sec
 * total energy  :  -872.8447081 Eh     change       -0.1231890E-02 Eh
   gradient norm :     0.0183372 Eh/a0  converged?    E=F G=F D=F
   step length   :     2.6116795 a0

........................................................................
.............................. CYCLE   35 ..............................
........................................................................
   1   -888.1341002 -0.888134E+03  0.341E-03    0.69       0.0  T
   2   -888.1341046 -0.439161E-05  0.200E-03    0.69       2.2  T
   3   -888.1341068 -0.220895E-05  0.912E-04    0.69       4.8  T
   4   -888.1341068  0.562384E-07  0.688E-04    0.69       6.4  T
   5   -888.1341072 -0.400322E-06  0.251E-04    0.69      17.5  T
   6   -888.1341073 -0.895222E-07  0.104E-04    0.69      42.1  T
   7   -888.1341073 -0.160773E-07  0.336E-05    0.69     130.4  T
     SCC iter.                  ...        0 min, 15.445 sec
     gradient                   ...        0 min,  1.723 sec
 * total energy  :  -872.8457325 Eh     change       -0.1024355E-02 Eh
   gradient norm :     0.0158714 Eh/a0  converged?    E=F G=F D=F
   step length   :     2.3031361 a0

........................................................................
.............................. CYCLE   36 ..............................
........................................................................
   1   -888.1431864 -0.888143E+03  0.359E-03    0.69       0.0  T
   2   -888.1431915 -0.508200E-05  0.201E-03    0.69       2.2  T
   3   -888.1431938 -0.236121E-05  0.897E-04    0.69       4.9  T
   4   -888.1431939 -0.477513E-07  0.625E-04    0.69       7.0  T
   5   -888.1431941 -0.249500E-06  0.252E-04    0.69      17.4  T
   6   -888.1431942 -0.858894E-07  0.106E-04    0.69      41.2  T
   7   -888.1431942 -0.171236E-07  0.331E-05    0.69     132.2  T
     SCC iter.                  ...        0 min, 16.614 sec
     gradient                   ...        0 min,  1.682 sec
 * total energy  :  -872.8466277 Eh     change       -0.8951834E-03 Eh
   gradient norm :     0.0150921 Eh/a0  converged?    E=F G=F D=F
   step length   :     2.3655100 a0

........................................................................
.............................. CYCLE   37 ..............................
........................................................................
   1   -888.1504459 -0.888150E+03  0.375E-03    0.69       0.0  T
   2   -888.1504514 -0.549074E-05  0.213E-03    0.69       2.1  T
   3   -888.1504543 -0.284868E-05  0.920E-04    0.69       4.8  T
   4   -888.1504544 -0.141605E-06  0.638E-04    0.69       6.9  T
   5   -888.1504546 -0.178667E-06  0.280E-04    0.69      15.6  T
   6   -888.1504547 -0.104876E-06  0.112E-04    0.69      39.2  T
   7   -888.1504547 -0.191610E-07  0.333E-05    0.69     131.2  T
     SCC iter.                  ...        0 min, 20.065 sec
     gradient                   ...        0 min,  1.619 sec
 * total energy  :  -872.8475033 Eh     change       -0.8756340E-03 Eh
   gradient norm :     0.0174976 Eh/a0  converged?    E=F G=F D=F
   step length   :     2.0264571 a0

........................................................................
.............................. CYCLE   38 ..............................
........................................................................
   1   -888.1571888 -0.888157E+03  0.383E-03    0.69       0.0  T
   2   -888.1571946 -0.580182E-05  0.207E-03    0.69       2.1  T
   3   -888.1571976 -0.294279E-05  0.877E-04    0.69       5.0  T
   4   -888.1571978 -0.214621E-06  0.566E-04    0.69       7.7  T
   5   -888.1571979 -0.714533E-07  0.277E-04    0.69      15.8  T
   6   -888.1571980 -0.100565E-06  0.105E-04    0.69      41.9  T
   7   -888.1571980 -0.160391E-07  0.319E-05    0.69     137.2  T
     SCC iter.                  ...        0 min, 13.297 sec
     gradient                   ...        0 min,  1.461 sec
 * total energy  :  -872.8485356 Eh     change       -0.1032349E-02 Eh
   gradient norm :     0.0207340 Eh/a0  converged?    E=F G=F D=F
   step length   :     1.7090586 a0

........................................................................
.............................. CYCLE   39 ..............................
........................................................................
   1   -888.1456975 -0.888146E+03  0.393E-03    0.69       0.0  T
   2   -888.1457027 -0.525949E-05  0.210E-03    0.69       2.1  T
   3   -888.1457054 -0.264430E-05  0.915E-04    0.69       4.8  T
   4   -888.1457056 -0.185462E-06  0.642E-04    0.69       6.8  T
   5   -888.1457057 -0.134596E-06  0.285E-04    0.69      15.4  T
   6   -888.1457058 -0.140771E-06  0.951E-05    0.69      46.0  T
   7   -888.1457059 -0.133233E-07  0.267E-05    0.69     164.2  T
     SCC iter.                  ...        0 min, 12.987 sec
     gradient                   ...        0 min,  1.577 sec
 * total energy  :  -872.8496185 Eh     change       -0.1082889E-02 Eh
   gradient norm :     0.0236011 Eh/a0  converged?    E=F G=F D=F
   step length   :     1.8820286 a0

........................................................................
.............................. CYCLE   40 ..............................
........................................................................
   1   -888.1296200 -0.888130E+03  0.388E-03    0.69       0.0  T
   2   -888.1296248 -0.482992E-05  0.208E-03    0.69       2.1  T
   3   -888.1296274 -0.256722E-05  0.952E-04    0.69       4.6  T
   4   -888.1296276 -0.256543E-06  0.659E-04    0.69       6.6  T
   5   -888.1296279 -0.246356E-06  0.279E-04    0.69      15.7  T
   6   -888.1296280 -0.100800E-06  0.104E-04    0.69      42.1  T
   7   -888.1296280 -0.160106E-07  0.295E-05    0.69     148.1  T
     SCC iter.                  ...        0 min, 13.631 sec
     gradient                   ...        0 min,  1.582 sec
 * total energy  :  -872.8508650 Eh     change       -0.1246479E-02 Eh
   gradient norm :     0.0228203 Eh/a0  converged?    E=F G=F D=F
   step length   :     2.1882287 a0

........................................................................
.............................. CYCLE   41 ..............................
........................................................................
   1   -888.1165089 -0.888117E+03  0.425E-03    0.69       0.0  T
   2   -888.1165151 -0.616984E-05  0.221E-03    0.69       2.0  T
   3   -888.1165181 -0.300232E-05  0.992E-04    0.69       4.4  T
   4   -888.1165186 -0.531338E-06  0.684E-04    0.69       6.4  T
   5   -888.1165190 -0.376535E-06  0.229E-04    0.69      19.1  T
   6   -888.1165190 -0.261384E-07  0.133E-04    0.69      32.8  T
   7   -888.1165190 -0.317740E-07  0.307E-05    0.69     142.8  T
     SCC iter.                  ...        0 min, 13.487 sec
     gradient                   ...        0 min,  1.602 sec
 * total energy  :  -872.8520634 Eh     change       -0.1198361E-02 Eh
   gradient norm :     0.0201571 Eh/a0  converged?    E=F G=F D=F
   step length   :     1.4155273 a0

........................................................................
.............................. CYCLE   42 ..............................
........................................................................
   1   -888.0657389 -0.888066E+03  0.796E-03    0.69       0.0  T
   2   -888.0657560 -0.171016E-04  0.401E-03    0.69       1.1  T
   3   -888.0657618 -0.577365E-05  0.220E-03    0.69       2.0  T
   4   -888.0657620 -0.214118E-06  0.149E-03    0.69       2.9  T
   5   -888.0657640 -0.201658E-05  0.329E-04    0.69      13.3  T
   6   -888.0657641 -0.127563E-06  0.150E-04    0.69      29.2  T
   7   -888.0657642 -0.329254E-07  0.460E-05    0.69      95.2  T
     SCC iter.                  ...        0 min, 13.474 sec
     gradient                   ...        0 min,  1.600 sec
 * total energy  :  -872.8529402 Eh     change       -0.8768783E-03 Eh
   gradient norm :     0.0209807 Eh/a0  converged?    E=F G=F D=F
   step length   :     2.8056778 a0
 * RMSD in coord.:     0.7595064 a0     energy gain  -0.5320963E-01 Eh
 * calculating model hessian...
Using Lindh-Hessian (1995)
 Shifting diagonal of input Hessian by    1.0004019947027700E-002
 Lowest  eigenvalues of input Hessian
    0.010000    0.010001    0.010002    0.010003    0.010003    0.010003
    0.010004    0.000000    0.000000    0.000000    0.000000    0.000000
    0.000000    0.010004    0.010005    0.010005    0.010006    0.010006
 Highest eigenvalues
    3.040930    3.045675    3.045919    3.046044    3.047008    3.047403


........................................................................
.............................. CYCLE   43 ..............................
........................................................................
   1   -888.0952255 -0.888095E+03  0.424E-03    0.69       0.0  T
   2   -888.0952307 -0.517468E-05  0.223E-03    0.69       2.0  T
   3   -888.0952330 -0.235874E-05  0.112E-03    0.69       3.9  T
   4   -888.0952331 -0.964311E-07  0.687E-04    0.69       6.4  T
   5   -888.0952333 -0.193783E-06  0.296E-04    0.69      14.8  T
   6   -888.0952335 -0.139440E-06  0.734E-05    0.69      59.7  T
   7   -888.0952335 -0.798559E-08  0.268E-05    0.69     163.3  T
     SCC iter.                  ...        0 min, 13.730 sec
     gradient                   ...        0 min,  1.570 sec
 * total energy  :  -872.8536198 Eh     change       -0.6795574E-03 Eh
   gradient norm :     0.0105096 Eh/a0  converged?    E=F G=F D=F
   step length   :     0.1675822 a0

........................................................................
.............................. CYCLE   44 ..............................
........................................................................
   1   -888.1591689 -0.888159E+03  0.109E-02    0.69       0.0  T
   2   -888.1592063 -0.374440E-04  0.568E-03    0.69       1.0  T
   3   -888.1592232 -0.168888E-04  0.268E-03    0.69       1.6  T
   4   -888.1592240 -0.801457E-06  0.170E-03    0.69       2.6  T
   5   -888.1592250 -0.102844E-05  0.668E-04    0.69       6.5  T
   6   -888.1592257 -0.615706E-06  0.206E-04    0.69      21.3  T
   7   -888.1592257 -0.656814E-07  0.717E-05    0.69      61.0  T
   8   -888.1592257 -0.700641E-08  0.226E-05    0.69     193.3  T
     SCC iter.                  ...        0 min, 15.537 sec
     gradient                   ...        0 min,  1.593 sec
 * total energy  :  -872.8531081 Eh     change        0.5117271E-03 Eh
   gradient norm :     0.0301543 Eh/a0  converged?    E=F G=F D=F
   step length   :     0.5382225 a0

........................................................................
.............................. CYCLE   45 ..............................
........................................................................
   1   -888.1348841 -0.888135E+03  0.319E-03    0.69       0.0  T
   2   -888.1348862 -0.206988E-05  0.198E-03    0.69       2.2  T
   3   -888.1348873 -0.111856E-05  0.107E-03    0.69       4.1  T
   4   -888.1348873 -0.115402E-07  0.611E-04    0.69       7.2  T
   5   -888.1348876 -0.248622E-06  0.241E-04    0.69      18.2  T
   6   -888.1348877 -0.996680E-07  0.630E-05    0.69      69.5  T
   7   -888.1348877 -0.528917E-08  0.236E-05    0.69     185.1  T
     SCC iter.                  ...        0 min, 13.428 sec
     gradient                   ...        0 min,  1.600 sec
 * total energy  :  -872.8544335 Eh     change       -0.1325431E-02 Eh
   gradient norm :     0.0145937 Eh/a0  converged?    E=F G=F D=F
   step length   :     0.2199517 a0

........................................................................
.............................. CYCLE   46 ..............................
........................................................................
   1   -888.0864638 -0.888086E+03  0.598E-03    0.69       0.0  T
   2   -888.0864710 -0.723319E-05  0.394E-03    0.69       1.1  T
   3   -888.0864759 -0.485303E-05  0.200E-03    0.69       2.2  T
   4   -888.0864757  0.191974E-06  0.114E-03    0.69       3.8  T
   5   -888.0864764 -0.773092E-06  0.467E-04    0.69       9.4  T
   6   -888.0864768 -0.386799E-06  0.110E-04    0.69      39.9  T
   7   -888.0864769 -0.157144E-07  0.396E-05    0.69     110.5  T
     SCC iter.                  ...        0 min, 13.931 sec
     gradient                   ...        0 min,  1.601 sec
 * total energy  :  -872.8535830 Eh     change        0.8505122E-03 Eh
   gradient norm :     0.0191993 Eh/a0  converged?    E=F G=F D=F
   step length   :     0.3312262 a0

........................................................................
.............................. CYCLE   47 ..............................
........................................................................
   1   -888.1126287 -0.888113E+03  0.408E-03    0.69       0.0  T
   2   -888.1126327 -0.394988E-05  0.294E-03    0.69       1.5  T
   3   -888.1126354 -0.272143E-05  0.140E-03    0.69       3.1  T
   4   -888.1126352  0.243600E-06  0.794E-04    0.69       5.5  T
   5   -888.1126354 -0.247107E-06  0.334E-04    0.69      13.1  T
   6   -888.1126356 -0.215075E-06  0.762E-05    0.69      57.5  T
   7   -888.1126356 -0.758450E-08  0.230E-05    0.69     190.2  T
     SCC iter.                  ...        0 min, 13.579 sec
     gradient                   ...        0 min,  1.583 sec
 * total energy  :  -872.8550818 Eh     change       -0.1498794E-02 Eh
   gradient norm :     0.0064998 Eh/a0  converged?    E=F G=F D=F
   step length   :     0.2853650 a0

........................................................................
.............................. CYCLE   48 ..............................
........................................................................
   1   -888.1268953 -0.888127E+03  0.356E-03    0.69       0.0  T
   2   -888.1268997 -0.438855E-05  0.198E-03    0.69       2.2  T
   3   -888.1269015 -0.183637E-05  0.887E-04    0.69       4.9  T
   4   -888.1269014  0.162465E-06  0.663E-04    0.69       6.6  T
   5   -888.1269016 -0.250531E-06  0.304E-04    0.69      14.4  T
   6   -888.1269018 -0.163692E-06  0.620E-05    0.69      70.6  T
   7   -888.1269018 -0.501871E-08  0.240E-05    0.69     182.7  T
     SCC iter.                  ...        0 min, 13.619 sec
     gradient                   ...        0 min,  1.607 sec
 * total energy  :  -872.8547410 Eh     change        0.3407534E-03 Eh
   gradient norm :     0.0152172 Eh/a0  converged?    E=F G=F D=F
   step length   :     0.3902197 a0

........................................................................
.............................. CYCLE   49 ..............................
........................................................................
   1   -888.1180995 -0.888118E+03  0.193E-03    0.69       0.0  T
   2   -888.1181004 -0.867806E-06  0.127E-03    0.69       3.5  T
   3   -888.1181008 -0.446536E-06  0.659E-04    0.69       6.6  T
   4   -888.1181006  0.189240E-06  0.500E-04    0.69       8.7  T
   5   -888.1181009 -0.280512E-06  0.147E-04    0.69      29.8  T
   6   -888.1181009 -0.329610E-07  0.425E-05    0.69     103.0  T
     SCC iter.                  ...        0 min, 11.752 sec
     gradient                   ...        0 min,  1.604 sec
 * total energy  :  -872.8556830 Eh     change       -0.9420045E-03 Eh
   gradient norm :     0.0065534 Eh/a0  converged?    E=F G=F D=F
   step length   :     0.2255333 a0

........................................................................
.............................. CYCLE   50 ..............................
........................................................................
   1   -888.1010195 -0.888101E+03  0.237E-03    0.69       0.0  T
   2   -888.1010211 -0.166570E-05  0.154E-03    0.69       2.8  T
   3   -888.1010219 -0.770816E-06  0.755E-04    0.69       5.8  T
   4   -888.1010216  0.308012E-06  0.622E-04    0.69       7.0  T
   5   -888.1010220 -0.433822E-06  0.197E-04    0.69      22.2  T
   6   -888.1010221 -0.549355E-07  0.538E-05    0.69      81.4  T
     SCC iter.                  ...        0 min, 11.570 sec
     gradient                   ...        0 min,  1.584 sec
 * total energy  :  -872.8556063 Eh     change        0.7678284E-04 Eh
[...]
   247   6 C      278   1 H                                       1.0781421
   248   6 C      279   1 H                                       1.0783248
   253   6 C      280   1 H                                       1.0780672
   254   6 C      281   1 H                                       1.0777328
   256   7 N      282   1 H                                       1.0145545
   259   6 C      283   1 H                                       1.0838452
   260   6 C      284   1 H                                       1.1062691
   260   6 C      285   1 H                                       1.0985082
   261   7 N      286   1 H                                       1.0097270
   262   6 C      287   1 H                                       1.0853092
   263   6 C      288   1 H                                       1.0806299
   265   6 C      289   1 H                                       1.0781431
   266   6 C      290   1 H                                       1.0783248
   291   6 C      292   6 C                                       1.4090284
   292   6 C      293   6 C                                       1.4186338
   293   6 C      294   6 C                                       1.3684370
   294   6 C      295   6 C                                       1.4210226
   292   6 C      296   7 N                                       1.3623304
   295   6 C      296   7 N                                       1.3699120
   295   6 C      297   6 C                                       1.3996592
   298   6 C      299   6 C                                       1.3415109
   300   6 C      301   7 N                                       1.4651503
   301   7 N      302   6 C                                       1.3700984
   302   6 C      303   6 C                                       1.3449023
   297   6 C      304   6 C                                       1.3952556
   304   6 C      305   6 C                                       1.4515633
   305   6 C      306   6 C                                       1.3492376
   304   6 C      307   7 N                                       1.3621071
   306   6 C      308   6 C                                       1.4495804
   307   7 N      308   6 C                                       1.3477644
   308   6 C      309   6 C                                       1.4100179
   309   6 C      310   6 C                                       1.4089954
   310   6 C      311   6 C                                       1.4186246
   311   6 C      312   6 C                                       1.3684324
   312   6 C      313   6 C                                       1.4210301
   310   6 C      314   7 N                                       1.3623098
   313   6 C      314   7 N                                       1.3698925
   313   6 C      315   6 C                                       1.3996552
   316   6 C      317   6 C                                       1.3415290
   318   6 C      319   7 N                                       1.4651448
   319   7 N      320   6 C                                       1.3700670
   320   6 C      321   6 C                                       1.3449194
   315   6 C      322   6 C                                       1.3952518
   322   6 C      323   6 C                                       1.4515530
   323   6 C      324   6 C                                       1.3492387
   291   6 C      325   6 C                                       1.4100288
   324   6 C      325   6 C                                       1.4495777
   322   6 C      326   7 N                                       1.3621288
   325   6 C      326   7 N                                       1.3477685
   293   6 C      327   1 H                                       1.0780644
   294   6 C      328   1 H                                       1.0777334
   296   7 N      329   1 H                                       1.0145592
   299   6 C      330   1 H                                       1.0838430
   300   6 C      331   1 H                                       1.1062698
   300   6 C      332   1 H                                       1.0985061
   301   7 N      333   1 H                                       1.0097286
   302   6 C      334   1 H                                       1.0853098
   303   6 C      335   1 H                                       1.0806324
   305   6 C      336   1 H                                       1.0781421
   306   6 C      337   1 H                                       1.0783209
   311   6 C      338   1 H                                       1.0780667
   312   6 C      339   1 H                                       1.0777332
   314   7 N      340   1 H                                       1.0145588
   317   6 C      341   1 H                                       1.0838478
   318   6 C      342   1 H                                       1.1062644
   318   6 C      343   1 H                                       1.0985196
   319   7 N      344   1 H                                       1.0097210
   320   6 C      345   1 H                                       1.0853095
   321   6 C      346   1 H                                       1.0806289
   323   6 C      347   1 H                                       1.0781388
   324   6 C      348   1 H                                       1.0783210
   349   6 C      350   6 C                                       1.4089908
   350   6 C      351   6 C                                       1.4186335
   351   6 C      352   6 C                                       1.3684271
   352   6 C      353   6 C                                       1.4210351
   350   6 C      354   7 N                                       1.3623083
   353   6 C      354   7 N                                       1.3699084
   353   6 C      355   6 C                                       1.3996354
   356   6 C      357   6 C                                       1.3415131
   358   6 C      359   7 N                                       1.4651457
   359   7 N      360   6 C                                       1.3701052
   360   6 C      361   6 C                                       1.3449042
   355   6 C      362   6 C                                       1.3952686
   362   6 C      363   6 C                                       1.4515528
   363   6 C      364   6 C                                       1.3492424
   362   6 C      365   7 N                                       1.3621042
   364   6 C      366   6 C                                       1.4495753
   365   7 N      366   6 C                                       1.3477878
   366   6 C      367   6 C                                       1.4100183
   367   6 C      368   6 C                                       1.4090264
   368   6 C      369   6 C                                       1.4186246
   369   6 C      370   6 C                                       1.3684405
   370   6 C      371   6 C                                       1.4210186
   368   6 C      372   7 N                                       1.3623294
   371   6 C      372   7 N                                       1.3698936
   371   6 C      373   6 C                                       1.3996721
   374   6 C      375   6 C                                       1.3415235
   376   6 C      377   7 N                                       1.4651474
   377   7 N      378   6 C                                       1.3700679
   378   6 C      379   6 C                                       1.3449172
   373   6 C      380   6 C                                       1.3952348
   380   6 C      381   6 C                                       1.4515613
   381   6 C      382   6 C                                       1.3492341
   349   6 C      383   6 C                                       1.4100305
   382   6 C      383   6 C                                       1.4495871
   380   6 C      384   7 N                                       1.3621323
   383   6 C      384   7 N                                       1.3477467
   351   6 C      385   1 H                                       1.0780669
   352   6 C      386   1 H                                       1.0777325
   354   7 N      387   1 H                                       1.0145583
   357   6 C      388   1 H                                       1.0838431
   358   6 C      389   1 H                                       1.1062708
   358   6 C      390   1 H                                       1.0985027
   359   7 N      391   1 H                                       1.0097287
   360   6 C      392   1 H                                       1.0853089
   361   6 C      393   1 H                                       1.0806318
   363   6 C      394   1 H                                       1.0781422
   364   6 C      395   1 H                                       1.0783206
   369   6 C      396   1 H                                       1.0780644
   370   6 C      397   1 H                                       1.0777338
   372   7 N      398   1 H                                       1.0145598
   375   6 C      399   1 H                                       1.0838470
   376   6 C      400   1 H                                       1.1062659
   376   6 C      401   1 H                                       1.0985182
   377   7 N      402   1 H                                       1.0097221
   378   6 C      403   1 H                                       1.0853100
   379   6 C      404   1 H                                       1.0806297
   381   6 C      405   1 H                                       1.0781396
   382   6 C      406   1 H                                       1.0783209
   407   6 C      408   6 C                                       1.4089996
   408   6 C      409   6 C                                       1.4186336
   409   6 C      410   6 C                                       1.3684173
   410   6 C      411   6 C                                       1.4210640
   408   6 C      412   7 N                                       1.3623208
   411   6 C      412   7 N                                       1.3699197
   411   6 C      413   6 C                                       1.3996169
   414   6 C      415   6 C                                       1.3415115
   416   6 C      417   7 N                                       1.4651416
   417   7 N      418   6 C                                       1.3701259
   418   6 C      419   6 C                                       1.3449046
   413   6 C      420   6 C                                       1.3953081
   420   6 C      421   6 C                                       1.4515634
   421   6 C      422   6 C                                       1.3492516
   420   6 C      423   7 N                                       1.3620707
   422   6 C      424   6 C                                       1.4495546
   423   7 N      424   6 C                                       1.3478537
   424   6 C      425   6 C                                       1.4100012
   425   6 C      426   6 C                                       1.4090458
   426   6 C      427   6 C                                       1.4186146
   427   6 C      428   6 C                                       1.3684448
   428   6 C      429   6 C                                       1.4210257
   426   6 C      430   7 N                                       1.3623788
   429   6 C      430   7 N                                       1.3698877
   429   6 C      431   6 C                                       1.3996986
   432   6 C      433   6 C                                       1.3415077
   434   6 C      435   7 N                                       1.4651514
   435   7 N      436   6 C                                       1.3700921
   436   6 C      437   6 C                                       1.3449074
   431   6 C      438   6 C                                       1.3952212
   438   6 C      439   6 C                                       1.4515919
   439   6 C      440   6 C                                       1.3492315
   407   6 C      441   6 C                                       1.4100242
   440   6 C      441   6 C                                       1.4495744
   438   6 C      442   7 N                                       1.3621302
   441   6 C      442   7 N                                       1.3477439
   409   6 C      443   1 H                                       1.0780665
   410   6 C      444   1 H                                       1.0777332
   412   7 N      445   1 H                                       1.0145551
   415   6 C      446   1 H                                       1.0838428
   416   6 C      447   1 H                                       1.1062738
   416   6 C      448   1 H                                       1.0984976
   417   7 N      449   1 H                                       1.0097309
   418   6 C      450   1 H                                       1.0853087
   419   6 C      451   1 H                                       1.0806312
   421   6 C      452   1 H                                       1.0781436
   422   6 C      453   1 H                                       1.0783227
   427   6 C      454   1 H                                       1.0780639
   428   6 C      455   1 H                                       1.0777342
   430   7 N      456   1 H                                       1.0145584
   433   6 C      457   1 H                                       1.0838453
   434   6 C      458   1 H                                       1.1062705
   434   6 C      459   1 H                                       1.0985116
   435   7 N      460   1 H                                       1.0097259
   436   6 C      461   1 H                                       1.0853107
   437   6 C      462   1 H                                       1.0806318
   439   6 C      463   1 H                                       1.0781412
   440   6 C      464   1 H                                       1.0783253
   465   6 C      466   6 C                                       1.4088410
   466   6 C      467   6 C                                       1.4187326
   467   6 C      468   6 C                                       1.3683005
   468   6 C      469   6 C                                       1.4212642
   466   6 C      470   7 N                                       1.3623627
   469   6 C      470   7 N                                       1.3699502
   469   6 C      471   6 C                                       1.3993789
   472   6 C      473   6 C                                       1.3415150
   474   6 C      475   7 N                                       1.4651447
   475   7 N      476   6 C                                       1.3701406
   476   6 C      477   6 C                                       1.3449079
   471   6 C      478   6 C                                       1.3956594
   478   6 C      479   6 C                                       1.4517640
   479   6 C      480   6 C                                       1.3491564
   478   6 C      481   7 N                                       1.3614892
   480   6 C      482   6 C                                       1.4496377
   481   7 N      482   6 C                                       1.3484991
   482   6 C      483   6 C                                       1.4092171
   483   6 C      484   6 C                                       1.4083886
   484   6 C      485   6 C                                       1.4188608
   485   6 C      486   6 C                                       1.3682514
   486   6 C      487   6 C                                       1.4212538
   484   6 C      488   7 N                                       1.3626778
   487   6 C      488   7 N                                       1.3697376
   487   6 C      489   6 C                                       1.3996172
   490   6 C      491   6 C                                       1.3414758
   492   6 C      493   7 N                                       1.4651540
   493   7 N      494   6 C                                       1.3701367
   494   6 C      495   6 C                                       1.3448918
   489   6 C      496   6 C                                       1.3952825
   496   6 C      497   6 C                                       1.4516756
   497   6 C      498   6 C                                       1.3492072
   465   6 C      499   6 C                                       1.4100066
   498   6 C      499   6 C                                       1.4496147
   496   6 C      500   7 N                                       1.3620263
   499   6 C      500   7 N                                       1.3477916
   467   6 C      501   1 H                                       1.0780763
   468   6 C      502   1 H                                       1.0777390
   470   7 N      503   1 H                                       1.0145484
   473   6 C      504   1 H                                       1.0838462
   474   6 C      505   1 H                                       1.1062712
   474   6 C      506   1 H                                       1.0985013
   475   7 N      507   1 H                                       1.0097349
   476   6 C      508   1 H                                       1.0853104
   477   6 C      509   1 H                                       1.0806328
   479   6 C      510   1 H                                       1.0781439
   480   6 C      511   1 H                                       1.0783203
   485   6 C      512   1 H                                       1.0780697
   486   6 C      513   1 H                                       1.0777386
   488   7 N      514   1 H                                       1.0145503
   491   6 C      515   1 H                                       1.0838452
   492   6 C      516   1 H                                       1.1062841
   492   6 C      517   1 H                                       1.0984987
   493   7 N      518   1 H                                       1.0097313
   494   6 C      519   1 H                                       1.0853131
   495   6 C      520   1 H                                       1.0806373
   497   6 C      521   1 H                                       1.0781457
   498   6 C      522   1 H                                       1.0783280

 * 4 distinct bonds (by element types)

   Z      Z             #   av. dist./Å        max./Å        min./Å
   1 H    6 C         146     1.0852231     1.1062908     1.0777325
   6 C    6 C         218     1.3741649     1.4519616     1.2245376
   1 H    7 N          32     1.0121488     1.0147179     1.0096277
   6 C    7 N          96     1.3796240     1.4654547     1.3477439


optimized geometry written to: xtbopt.xyz


           -------------------------------------------------
          | TOTAL ENERGY             -872.861198875436 Eh   |
          | GRADIENT NORM               0.000441068609 Eh/α |
          | HOMO-LUMO GAP               0.681989783929 eV   |
           -------------------------------------------------

------------------------------------------------------------------------
 * finished run on 2022/07/28 at 10:53:11.048     
------------------------------------------------------------------------
 total:
 * wall-time:     0 d,  0 h, 54 min, 35.984 sec
 *  cpu-time:     0 d,  0 h, 54 min, 13.561 sec
 * ratio c/w:     0.993 speedup
 SCF:
 * wall-time:     0 d,  0 h,  6 min, 31.729 sec
 *  cpu-time:     0 d,  0 h,  6 min, 28.748 sec
 * ratio c/w:     0.992 speedup
 ANC optimizer:
 * wall-time:     0 d,  0 h, 48 min,  3.405 sec
 *  cpu-time:     0 d,  0 h, 47 min, 44.028 sec
 * ratio c/w:     0.993 speedup

