324
 energy: -568.860217633630 gnorm: 2.216692644685 xtb: 6.5.1 (b24c23e)
C           53.29592900000000        0.11135900000000        0.27453100000000
C           54.02937399999999        1.28402700000000       -0.44616600000000
C           53.43240699999999        2.41174200000000       -0.96160800000000
C           54.45665000000000        3.18102400000000       -1.57286500000000
C           55.64434799999999        2.49196900000000       -1.41608600000000
N           55.37799199999999        1.36127000000000       -0.68508300000000
C           57.05784100000000        2.90400000000000       -1.99042200000000
C           57.08703199999999        3.96236400000000       -2.95711000000000
C           57.09718900000000        4.84922900000000       -3.76796800000000
C           57.10734599999999        5.90071900000000       -4.73432500000000
C           56.30886899999999        5.81263000000000       -5.86924800000000
C           56.35328100000000        6.85713600000000       -6.77612200000000
N           57.12512000000000        7.95758900000000       -6.62537800000000
C           57.88876699999999        8.00768800000000       -5.51002900000000
C           57.91537000000000        7.01619300000000       -4.54463900000000
C           58.18593300000000        2.25048200000000       -1.60756700000000
C           59.48168100000000        2.58607200000000       -2.16267000000000
C           60.38871800000000        1.77644900000000       -1.62863400000000
N           58.39256000000000        1.22362500000000       -0.72385700000000
C           59.72203500000000        0.88988900000000       -0.69501200000000
C           60.39624900000000       -0.05498200000000        0.01310500000000
C           59.62728700000000       -0.98635500000000        1.04190200000000
C           60.17755800000000       -1.62649900000000        2.13501200000000
C           59.15013900000000       -2.38843800000000        2.74552900000000
C           57.99940200000000       -2.18478800000000        2.01379200000000
N           58.28818000000000       -1.29046300000000        1.01016300000000
C           56.58696200000000       -2.83669100000000        2.29050400000000
C           56.55596700000000       -4.07718500000000        3.00483200000000
C           56.54060000000000       -5.12133800000000        3.59909700000000
C           56.51713200000000       -6.36620400000000        4.29881300000000
C           57.55735300000000       -6.70622700000000        5.15644100000000
C           57.48715499999999       -7.92436000000000        5.81008300000000
N           56.46917900000000       -8.80312000000000        5.66576000000000
C           55.47626400000000       -8.43882300000000        4.82256600000000
C           55.45350899999999       -7.24460200000000        4.12334400000000
C           55.45943200000000       -2.22967200000000        1.84322800000000
C           54.13282999999999       -2.76740000000000        2.08975800000000
C           53.24161900000000       -1.94671900000000        1.54109600000000
C           53.96393300000000       -0.86475300000000        0.91761000000000
N           55.29083400000000       -1.07955100000000        1.12353600000000
H           52.21365300000000        0.08429200000000        0.23014300000000
H           52.37995700000000        2.64667500000000       -0.91641300000000
H           54.33623200000000        4.12160900000000       -2.08885300000000
H           56.06997800000000        0.68454500000000       -0.37171300000000
H           55.67138100000000        4.95203700000000       -6.04029700000000
H           55.74868900000000        6.83464000000000       -7.67728600000000
H           58.50176900000000        8.89767800000000       -5.40763200000000
H           58.54781300000000        7.10751500000000       -3.66819000000000
H           59.68350999999999        3.35134100000000       -2.89059300000000
H           61.43796700000000        1.79664800000000       -1.86039900000000
H           61.20646700000000       -1.56201800000000        2.45500800000000
H           59.23951700000000       -3.01529200000000        3.61962700000000
H           57.60243599999999       -0.87409600000000        0.38564900000000
H           58.39897500000000       -6.03945500000000        5.30903800000000
H           58.27495800000000       -8.23516000000000        6.48935900000000
H           54.66908999999999       -9.15737800000000        4.71814300000000
H           54.63126699999999       -7.00282000000000        3.45838600000000
H           53.90625199999999       -3.66841600000000        2.63020100000000
H           52.17306300000000       -2.06359500000000        1.55310400000000
C          136.57440499999998        0.18678600000000        0.20691200000000
C          135.84096000000000       -0.65726100000000        1.29417400000000
C          136.43792700000000       -1.29238000000000        2.35908900000000
C          135.41368399999999       -1.98373300000000        3.05727300000000
C          134.22598600000001       -1.75289000000000        2.38937500000000
N          134.49234200000001       -0.90316500000000        1.34495400000000
C          132.81249299999999       -2.36865800000000        2.73644800000000
C          132.78330199999999       -3.44479500000000        3.68331300000000
C          132.77314500000000       -4.34736100000000        4.47665700000000
C          132.76298800000001       -5.42242000000000        5.41672300000000
C          133.56146500000000       -6.54101300000000        5.20563400000000
C          133.51705200000001       -7.55618200000000        6.14523200000000
N          132.74521400000000       -7.52610500000000        7.25555500000000
C          131.98156599999999       -6.42283500000000        7.42674900000000
C          131.95496299999999       -5.35526700000000        6.54621600000000
C          131.68440000000001       -1.91695000000000        2.12848200000000
C          130.38865300000001       -2.50528100000000        2.40166200000000
C          129.48161500000001       -1.88629900000000        1.65497300000000
N          131.47777400000001       -0.92672800000000        1.20390700000000
C          130.14829800000001       -0.86173200000000        0.87529300000000
C          129.47408500000000       -0.05498200000000        0.01310500000000
C          130.24304699999999        1.06907200000000       -0.80076200000000
C          129.69277600000001        2.22536100000000       -1.31813100000000
C          130.72019499999999        2.91517900000000       -2.00909500000000
C          131.87093200000001        2.16562400000000       -1.88629700000000
N          131.58215400000000        1.07062000000000       -1.10651800000000
C          133.28337200000001        2.51164400000000       -2.50421000000000
C          133.31436600000001        3.35674200000000       -3.65958900000000
C          133.32973400000000        4.06112200000000       -4.63285900000000
C          133.35320100000001        4.89217000000000       -5.79417400000000
C          132.31298000000001        5.78171100000000       -6.03883400000000
C          132.38317799999999        6.56404900000000       -7.17858900000000
N          133.40115399999999        6.51622700000000       -8.06783700000000
C          134.39407000000000        5.63839300000000       -7.79747600000000
C          134.41682499999999        4.81334700000000       -6.68645200000000
C          134.41090100000000        2.00095900000000       -1.94947800000000
C          135.73750400000000        2.30455000000000       -2.45717900000000
C          136.62871399999997        1.66982500000000       -1.70109000000000
C          135.90639999999999        0.93228400000000       -0.69341000000000
N          134.57950000000000        1.16036400000000       -0.88451900000000
H          137.65668099999996        0.14560700000000        0.17517400000000
H          137.49037700000000       -1.27302300000000        2.59754600000000
H          135.53410199999999       -2.59902800000000        3.93611200000000
H          133.80035500000000       -0.51800400000000        0.70635600000000
H          134.19895299999999       -6.61738100000000        4.33153600000000
H          134.12164500000000       -8.44954400000000        6.02478800000000
H          131.36856499999999       -6.41791100000000        8.32259700000000
H          131.32252099999999       -4.49396400000000        6.73238700000000
H          130.18682300000000       -3.31217000000000        3.08315900000000
H          128.43236600000000       -2.11888600000000        1.64982600000000
H          128.66386700000001        2.53643800000000       -1.21920500000000
H          130.63081700000001        3.85231000000000       -2.53709100000000
H          132.26789800000000        0.40449900000000       -0.76059500000000
H          131.47135900000001        5.86083100000000       -5.35941500000000
H          131.59537499999999        7.27311700000000       -7.41361200000000
H          135.20124400000000        5.61279700000000       -8.52312800000000
H          135.23906700000001        4.12602400000000       -6.51847900000000
H          135.96408199999999        2.93984700000000       -3.29402200000000
H          137.69727100000000        1.69448300000000       -1.81596400000000
C           62.85280700000000       -0.04029200000000        0.02338100000000
C           64.31103299999999       -0.06212900000000        0.00550800000000
C           65.44496100000001       -0.08288200000000        0.00401700000000
C           66.80634300000000       -0.09547200000000        0.00182600000000
C           68.08056200000000       -0.08516600000000       -0.00294000000000
C           69.26902400000000       -0.06636800000000       -0.00909600000000
C           70.62138500000000       -0.04158300000000        0.00677200000000
C           71.72165200000001       -0.04029200000000        0.02338100000000
C           81.24341900000000       -0.04029200000000        0.02338100000000
C           82.70164600000000       -0.06212900000000        0.00550800000000
C           83.83557399999998       -0.08288200000000        0.00401700000000
C           85.19695500000000       -0.09547200000000        0.00182600000000
C           86.47117399999999       -0.08516600000000       -0.00294000000000
C           87.65963699999999       -0.06636800000000       -0.00909600000000
C           89.01199699999998       -0.04158300000000        0.00677200000000
C           90.11226499999998       -0.04029200000000        0.02338100000000
C           99.63403199999999       -0.04029200000000        0.02338100000000
C          101.09225799999999       -0.06212900000000        0.00550800000000
C          102.22618700000000       -0.08288200000000        0.00401700000000
C          103.58756799999999       -0.09547200000000        0.00182600000000
C          104.86178700000001       -0.08516600000000       -0.00294000000000
C          106.05024899999999       -0.06636800000000       -0.00909600000000
C          107.40261000000000       -0.04158300000000        0.00677200000000
C          108.50287800000000       -0.04029200000000        0.02338100000000
C          118.02464500000001       -0.04029200000000        0.02338100000000
C          119.48287100000000       -0.06212900000000        0.00550800000000
C          120.61679899999999       -0.08288200000000        0.00401700000000
C          121.97818100000001       -0.09547200000000        0.00182600000000
C          123.25239999999998       -0.08516600000000       -0.00294000000000
C          124.44086199999998       -0.06636800000000       -0.00909600000000
C          125.79322299999998       -0.04158300000000        0.00677200000000
C          126.89348999999999       -0.04029200000000        0.02338100000000
C           72.97231399999998        0.04469700000000       -0.01318700000000
C           73.76992900000000        0.11179600000000       -1.38016000000000
C           73.28039200000001        0.51900600000000       -2.60379800000000
C           74.32277000000001        0.35427300000000       -3.55213500000000
C           75.41664900000001       -0.14410700000000       -2.87656000000000
N           75.09170500000000       -0.21969100000000       -1.54576900000000
C           76.80130200000001       -0.55714800000000       -3.50693700000000
C           76.78941399999998       -1.03768600000000       -4.85628900000000
C           76.76300000000001       -1.44911300000000       -5.98496800000000
C           76.73402900000001       -1.95427000000000       -7.32031200000000
C           77.49178400000000       -3.07009700000000       -7.65859000000000
C           77.42903899999999       -3.52533400000000       -8.96377800000000
N           76.67625900000000       -2.95103300000000       -9.92956000000000
C           75.95197600000000       -1.86938900000000       -9.56345600000000
C           75.94637400000001       -1.33737700000000       -8.28577800000000
C           77.93803799999999       -0.49234500000000       -2.76867900000000
C           79.22660000000000       -0.87683900000000       -3.30724000000000
C           80.14164599999999       -0.71429700000000       -2.35758400000000
N           78.15327900000000       -0.10481900000000       -1.47476100000000
C           79.48259100000000       -0.21782400000000       -1.16586000000000
C           80.15303200000000        0.04469700000000       -0.01318700000000
C           79.35887000000000        0.57542500000000        1.25305600000000
C           79.86792400000000        1.33075100000000        2.28962300000000
C           78.82717000000000        1.50510000000000        3.23758400000000
C           77.71203100000000        0.85807000000000        2.74682100000000
N           78.02615099999998        0.36003900000000        1.50675400000000
C           76.31908100000000        0.70865900000000        3.47343600000000
C           76.31261700000000        0.78038300000000        4.90413500000000
C           76.30428700000000        0.86348000000000        6.10313100000000
C           76.27731500000000        0.98006600000000        7.52641600000000
C           75.18584399999999        1.57043800000000        8.15477800000000
C           75.20623900000000        1.66790100000000        9.53535000000000
N           76.22255499999999        1.22428200000000       10.30982700000000
C           77.26591200000000        0.65452900000000        9.66378000000000
C           77.34078000000000        0.50998500000000        8.28895200000000
C           75.18504500000000        0.50314600000000        2.75706600000000
C           73.89422799999998        0.33771400000000        3.39446900000000
C           72.98079700000000        0.15182200000000        2.44770400000000
C           73.64231200000000        0.19516400000000        1.15923800000000
N           74.97312100000001        0.40082100000000        1.41016100000000
H           72.28125099999998        0.87798700000000       -2.79743100000000
H           74.27674100000000        0.56107700000000       -4.61033300000000
H           75.74108599999998       -0.43234200000000       -0.79424900000000
H           78.11229799999998       -3.57022300000000       -6.92257500000000
H           78.00178699999999       -4.39304200000000       -9.27590300000000
H           75.35309599999999       -1.42447100000000      -10.35194700000000
H           75.34493200000000       -0.46733000000000       -8.04677100000000
H           79.41712000000000       -1.23257700000000       -4.30395300000000
H           81.19032399999999       -0.92358700000000       -2.47223700000000
H           80.88002099999999        1.69896500000000        2.36760500000000
H           78.88938400000001        2.03002100000000        4.17896800000000
H           77.36825700000000       -0.07176200000000        0.86302900000000
H           74.34445899999999        1.94569800000000        7.58174500000000
H           74.37767700000001        2.12132800000000       10.07118900000000
H           78.07095199999999        0.30397300000000       10.30276800000000
H           78.20307400000000        0.04520100000000        7.82306300000000
H           73.70077300000000        0.35554700000000        4.45183000000000
H           71.93187199999998       -0.00071700000000        2.62604500000000
C           91.36292700000000        0.04469700000000       -0.01318700000000
C           92.16054099999999        0.11179600000000       -1.38016000000000
C           91.67100499999999        0.51900600000000       -2.60379800000000
C           92.71338299999999        0.35427300000000       -3.55213500000000
C           93.80726199999999       -0.14410700000000       -2.87656000000000
N           93.48231800000001       -0.21969100000000       -1.54576900000000
C           95.19191499999998       -0.55714800000000       -3.50693700000000
C           95.18002600000000       -1.03768600000000       -4.85628900000000
C           95.15361300000001       -1.44911300000000       -5.98496800000000
C           95.12464199999999       -1.95427000000000       -7.32031200000000
C           95.88239600000000       -3.07009700000000       -7.65859000000000
C           95.81965200000000       -3.52533400000000       -8.96377800000000
N           95.06687100000001       -2.95103300000000       -9.92956000000000
C           94.34258800000001       -1.86938900000000       -9.56345600000000
C           94.33698599999998       -1.33737700000000       -8.28577800000000
C           96.32865099999999       -0.49234500000000       -2.76867900000000
C           97.61721300000001       -0.87683900000000       -3.30724000000000
C           98.53225900000000       -0.71429700000000       -2.35758400000000
N           96.54389100000000       -0.10481900000000       -1.47476100000000
C           97.87320400000000       -0.21782400000000       -1.16586000000000
C           98.54364499999998        0.04469700000000       -0.01318700000000
C           97.74948300000000        0.57542500000000        1.25305600000000
C           98.25853599999999        1.33075100000000        2.28962300000000
C           97.21778300000000        1.50510000000000        3.23758400000000
C           96.10264399999998        0.85807000000000        2.74682100000000
N           96.41676300000000        0.36003900000000        1.50675400000000
C           94.70969400000000        0.70865900000000        3.47343600000000
C           94.70323000000000        0.78038300000000        4.90413500000000
C           94.69490000000000        0.86348000000000        6.10313100000000
C           94.66792799999999        0.98006600000000        7.52641600000000
C           93.57645700000000        1.57043800000000        8.15477800000000
C           93.59685199999998        1.66790100000000        9.53535000000000
N           94.61316700000000        1.22428200000000       10.30982700000000
C           95.65652400000000        0.65452900000000        9.66378000000000
C           95.73139300000000        0.50998500000000        8.28895200000000
C           93.57565800000000        0.50314600000000        2.75706600000000
C           92.28484100000000        0.33771400000000        3.39446900000000
C           91.37141000000000        0.15182200000000        2.44770400000000
C           92.03292399999999        0.19516400000000        1.15923800000000
N           93.36373399999999        0.40082100000000        1.41016100000000
H           90.67186400000000        0.87798700000000       -2.79743100000000
H           92.66735299999999        0.56107700000000       -4.61033300000000
H           94.13169900000000       -0.43234200000000       -0.79424900000000
H           96.50291100000000       -3.57022300000000       -6.92257500000000
H           96.39239900000000       -4.39304200000000       -9.27590300000000
H           93.74370900000000       -1.42447100000000      -10.35194700000000
H           93.73554500000000       -0.46733000000000       -8.04677100000000
H           97.80773299999998       -1.23257700000000       -4.30395300000000
H           99.58093700000001       -0.92358700000000       -2.47223700000000
H           99.27063400000000        1.69896500000000        2.36760500000000
H           97.27999699999999        2.03002100000000        4.17896800000000
H           95.75886900000000       -0.07176200000000        0.86302900000000
H           92.73507200000000        1.94569800000000        7.58174500000000
H           92.76828999999999        2.12132800000000       10.07118900000000
H           96.46156400000000        0.30397300000000       10.30276800000000
H           96.59368600000001        0.04520100000000        7.82306300000000
H           92.09138600000000        0.35554700000000        4.45183000000000
H           90.32248500000000       -0.00071700000000        2.62604500000000
C          109.75353999999999        0.04469700000000       -0.01318700000000
C          110.55115399999998        0.11179600000000       -1.38016000000000
C          110.06161800000000        0.51900600000000       -2.60379800000000
C          111.10399599999998        0.35427300000000       -3.55213500000000
C          112.19787399999998       -0.14410700000000       -2.87656000000000
N          111.87293099999999       -0.21969100000000       -1.54576900000000
C          113.58252800000000       -0.55714800000000       -3.50693700000000
C          113.57063899999999       -1.03768600000000       -4.85628900000000
C          113.54422599999999       -1.44911300000000       -5.98496800000000
C          113.51525499999998       -1.95427000000000       -7.32031200000000
C          114.27300900000000       -3.07009700000000       -7.65859000000000
C          114.21026499999999       -3.52533400000000       -8.96377800000000
N          113.45748399999999       -2.95103300000000       -9.92956000000000
C          112.73320099999999       -1.86938900000000       -9.56345600000000
C          112.72759900000000       -1.33737700000000       -8.28577800000000
C          114.71926399999998       -0.49234500000000       -2.76867900000000
C          116.00782599999999       -0.87683900000000       -3.30724000000000
C          116.92287200000000       -0.71429700000000       -2.35758400000000
N          114.93450399999999       -0.10481900000000       -1.47476100000000
C          116.26381700000000       -0.21782400000000       -1.16586000000000
C          116.93425700000000        0.04469700000000       -0.01318700000000
C          116.14009500000000        0.57542500000000        1.25305600000000
C          116.64914899999999        1.33075100000000        2.28962300000000
C          115.60839600000000        1.50510000000000        3.23758400000000
C          114.49325600000000        0.85807000000000        2.74682100000000
N          114.80737599999999        0.36003900000000        1.50675400000000
C          113.10030699999999        0.70865900000000        3.47343600000000
C          113.09384300000001        0.78038300000000        4.90413500000000
C          113.08551300000001        0.86348000000000        6.10313100000000
C          113.05854100000001        0.98006600000000        7.52641600000000
C          111.96706999999999        1.57043800000000        8.15477800000000
C          111.98746400000000        1.66790100000000        9.53535000000000
N          113.00377999999999        1.22428200000000       10.30982700000000
C          114.04713700000001        0.65452900000000        9.66378000000000
C          114.12200600000000        0.50998500000000        8.28895200000000
C          111.96627100000001        0.50314600000000        2.75706600000000
C          110.67545399999999        0.33771400000000        3.39446900000000
C          109.76202200000000        0.15182200000000        2.44770400000000
C          110.42353700000000        0.19516400000000        1.15923800000000
N          111.75434700000000        0.40082100000000        1.41016100000000
H          109.06247699999999        0.87798700000000       -2.79743100000000
H          111.05796599999999        0.56107700000000       -4.61033300000000
H          112.52231199999999       -0.43234200000000       -0.79424900000000
H          114.89352399999999       -3.57022300000000       -6.92257500000000
H          114.78301200000000       -4.39304200000000       -9.27590300000000
H          112.13432100000000       -1.42447100000000      -10.35194700000000
H          112.12615800000000       -0.46733000000000       -8.04677100000000
H          116.19834600000000       -1.23257700000000       -4.30395300000000
H          117.97154899999998       -0.92358700000000       -2.47223700000000
H          117.66124599999999        1.69896500000000        2.36760500000000
H          115.67061000000000        2.03002100000000        4.17896800000000
H          114.14948200000001       -0.07176200000000        0.86302900000000
H          111.12568399999999        1.94569800000000        7.58174500000000
H          111.15890200000000        2.12132800000000       10.07118900000000
H          114.85217699999998        0.30397300000000       10.30276800000000
H          114.98429899999999        0.04520100000000        7.82306300000000
H          110.48199900000000        0.35554700000000        4.45183000000000
H          108.71309799999999       -0.00071700000000        2.62604500000000
324
 energy: -569.695164122004 gnorm: 0.897000288238 xtb: 6.5.1 (b24c23e)
C           53.30734637350808        0.12711498383619        0.26469171515672
C           54.02507464618542        1.27323025739603       -0.43920953925664
C           53.43456135668743        2.41456660575051       -0.96473308721989
C           54.45349784123090        3.17937962409175       -1.57292607536701
C           55.65587742394493        2.49399687505140       -1.41938266334077
N           55.37819743183145        1.36081283899552       -0.68576337311259
C           57.03909221798264        2.89981067637280       -1.98429135273432
C           57.08350409819798        3.95551482883253       -2.94948569321037
C           57.09744266159972        4.85010604782573       -3.76880530675070
C           57.10745794032700        5.89794315674953       -4.73183048958964
C           56.30894846731911        5.81430055275653       -5.87028903412258
C           56.35475962505829        6.85991226531501       -6.77638494952564
N           57.12511017841700        7.95287454655690       -6.62105846864337
C           57.88728924612372        8.00823018738959       -5.51275854063308
C           57.91536384481120        7.01739684534247       -4.54623933499188
C           58.19096361900851        2.24631103055758       -1.60537526497820
C           59.48274599740144        2.58879808096061       -2.16534506730531
C           60.39367415178241        1.77652831569834       -1.62955899491194
N           58.38781011312906        1.22149208682979       -0.72211555693744
C           59.72491358667906        0.88947538990007       -0.69510500997890
C           60.38343952336383       -0.06596201242051        0.02753287222616
C           59.63475684081332       -0.97629496053029        1.03324708303262
C           60.17669401253014       -1.62974488156569        2.13600927364555
C           59.15353827028031       -2.38783173617652        2.74373174198924
C           57.98841156632989       -2.18794238994264        2.01471810233713
N           58.28873620884062       -1.29119635847141        1.00906352791758
C           56.60509729704781       -2.83083848199352        2.28772971870436
C           56.55938407406687       -4.06775812331754        3.00042632597875
C           56.54050796026646       -5.12262852522396        3.60033123556919
C           56.51711940428959       -6.36261151674346        4.29662993357189
C           57.55722800144032       -6.70812549392805        5.15720144582960
C           57.48523294321657       -7.92670017936925        5.81021374742761
N           56.46929265863633       -8.79760764981930        5.66262354845743
C           55.47807895351092       -8.44021796404425        4.82453532758024
C           55.45351077808247       -7.24628234910453        4.12453308763784
C           55.45480831542205       -2.22677243273652        1.83966331419738
C           54.13150935811287       -2.77111402553886        2.09209879980223
C           53.23768363996901       -1.94867850176083        1.54221633466551
C           53.96678606281456       -0.86720755765565        0.91862757854498
N           55.29643876057155       -1.07748305089884        1.12193610203179
H           52.21770074474870        0.08780077505550        0.22892774560255
H           52.38098688316011        2.64747964030139       -0.91698260254940
H           54.33560878308184        4.12103225274316       -2.08841777778553
H           56.06945132744941        0.68514006498431       -0.37210051969357
H           55.67176991830538        4.95277825196011       -6.04039074775442
H           55.74883982508083        6.83495488980259       -7.67737531860609
H           58.50160655484358        8.89778246864978       -5.40792661921848
H           58.54740819060802        7.10768616877222       -3.66893807700110
H           59.68235120894923        3.35330624962687       -2.89204926881205
H           61.44092602777549        1.79496467283282       -1.85938808446086
H           61.20586579249697       -1.56262718544204        2.45512578382786
H           59.24026321657831       -3.01475929979634        3.61897663045555
H           57.60321904118002       -0.87466209797927        0.38614145846850
H           58.39847511153098       -6.04009114049852        5.30911685102304
H           58.27474165655641       -8.23541820027151        6.48940361145128
H           54.66929831623140       -9.15756282427600        4.71838555138795
H           54.63174267657094       -7.00325425353635        3.45895182570173
H           53.90726460005337       -3.67074741447834        2.63167583676386