252
 energy: -504.392226764133 gnorm: 0.725920347818 xtb: 6.5.1 (b24c23e)
Cu          53.26366800000000       -0.06396000000000       -0.03640000000000
C           49.93052899999999        0.08705200000000        0.07001000000000
C           50.59734099999999        1.24399800000000        0.04861000000000
C           49.94897000000000        2.54961600000000        0.04740600000000
C           50.89261000000000        3.47168600000000        0.03944500000000
C           52.19775700000000        2.79663700000000        0.03737700000000
N           52.01777500000000        1.38041100000000        0.04241200000000
C           53.39170700000000        3.42152800000000        0.06729400000000
C           53.42923100000000        4.90023100000000        0.07480900000000
C           53.21989200000000        5.61550600000000       -1.11216500000000
C           53.24154600000000        7.01384500000000       -1.10922800000000
O           53.02726899999999        7.69502300000000       -2.30761600000000
C           53.47461000000000        7.70950400000000        0.09092400000000
O           53.49023900000000        9.10503700000000        0.08685800000000
C           53.68838500000000        6.99349000000000        1.28301600000000
O           53.92123099999999        7.67618900000000        2.47565700000000
C           53.66590900000000        5.59226000000000        1.26962300000000
C           54.68991500000000        2.69742300000000        0.10564900000000
C           55.98918800000000        3.36694900000000        0.23707300000000
C           56.92351400000000        2.43977900000000        0.22241900000000
N           54.82453800000000        1.40964900000000        0.00506400000000
C           56.23040899999999        1.16587800000000        0.07089100000000
C           56.82561800000000       -0.03483100000000       -0.03750600000000
C           56.07265900000000       -1.30036200000000       -0.21765700000000
C           56.63794799999999       -2.46230300000000       -0.52278400000000
C           55.59045200000000       -3.46136300000000       -0.55298200000000
C           54.44876200000000       -2.84719600000000       -0.26692500000000
N           54.66251299999999       -1.45047800000000       -0.04063600000000
C           53.13965200000000       -3.54091000000000       -0.14845600000000
C           53.12083600000000       -5.01969100000000       -0.16706200000000
C           53.26746599999999       -5.73769400000000        1.02634600000000
C           53.24618199999999       -7.13615600000000        1.01748800000000
O           53.38791100000000       -7.82144000000000        2.22422000000000
C           53.08285500000000       -7.82812200000000       -0.19649700000000
O           53.06602400000000       -9.22355600000000       -0.19751300000000
C           52.94095100000000       -7.10834100000000       -1.39704100000000
O           52.78351100000000       -7.78774500000000       -2.60425000000000
C           52.95912299999999       -5.70702900000000       -1.37702700000000
C           51.97697800000000       -2.87573500000000       -0.02636200000000
C           50.65304800000000       -3.48390600000000        0.09235300000000
C           49.79403700000000       -2.48526300000000        0.14408800000000
C           50.56014799999999       -1.24263200000000        0.06409500000000
N           51.83488100000000       -1.45738400000000       -0.03634900000000
H           48.84764500000000        0.11983600000000        0.09463000000000
H           48.88434300000000        2.74537600000000        0.05651900000000
H           50.70893000000000        4.53833600000000        0.04600200000000
H           53.03616000000000        5.08518400000000       -2.03885700000000
H           53.03224299999999        8.70646300000000       -2.36059100000000
H           53.64061200000000        9.64529200000000        0.92986500000000
H           54.07754400000000        7.18386300000000        3.34757800000000
H           53.82863499999999        5.04166100000000        2.18828200000000
H           56.17275400000000        4.42950900000000        0.32698700000000
H           57.98730200000000        2.62295500000000        0.29717400000000
H           57.68760000000000       -2.64721200000000       -0.70475700000000
H           55.72534600000000       -4.51612900000000       -0.75592500000000
H           53.39464100000000       -5.20993900000000        1.96379500000000
H           53.36959400000000       -8.83250700000000        2.27458700000000
H           52.95213100000000       -9.76167300000000       -1.04794000000000
H           52.68367300000000       -7.29344500000000       -3.48366800000000
H           52.84878400000000       -5.15354600000000       -2.30207100000000
H           50.40115599999999       -4.53606500000000        0.12684700000000
H           48.71903900000000       -2.58306600000000        0.22753300000000
Cu          86.90681700000000       -0.00601500000000       -0.03310500000000
C           90.23995700000000       -0.16811500000000        0.05550200000000
C           89.57314499999998       -1.31517900000000       -0.09689400000000
C           90.22151599999999       -2.61224700000000       -0.24607700000000
C           89.27787499999999       -3.52747300000000       -0.35849900000000
C           87.97272900000000       -2.85653900000000       -0.28404000000000
N           88.15271100000000       -1.45001100000000       -0.11851400000000
C           86.77877800000000       -3.48079400000000       -0.32514400000000
C           86.74125400000000       -4.95082000000000       -0.48528200000000
C           86.95059400000000       -5.52694700000000       -1.74568000000000
C           86.92893900000000       -6.91660800000000       -1.90125700000000
O           87.14321599999998       -7.45756400000000       -3.16913100000000
C           86.69587500000000       -7.74381500000000       -0.78769000000000
O           86.68024699999999       -9.12989400000000       -0.94990700000000
C           86.48210000000000       -7.16753400000000        0.47787700000000
O           86.24925399999998       -7.98101300000000        1.58545100000000
C           86.50457600000000       -5.77381600000000        0.62339300000000
C           85.48057100000000       -2.76570300000000       -0.20496200000000
C           84.18129700000000       -3.44581100000000       -0.15027300000000
C           83.24697200000000       -2.52295500000000       -0.05974200000000
N           85.34594700000000       -1.47482700000000       -0.15893600000000
C           83.94007699999999       -1.24008800000000       -0.06590300000000
C           83.34486799999999       -0.03483100000000       -0.03750600000000
C           84.09782700000000        1.24296400000000       -0.07305300000000
C           83.53253800000000        2.43200200000000       -0.24451400000000
C           84.58003400000000        3.42804700000000       -0.16127800000000
C           85.72172300000000        2.78541400000000        0.05332200000000
N           85.50797200000000        1.37204900000000        0.11984100000000
C           87.03083400000000        3.46123000000000        0.24965700000000
C           87.04964900000000        4.93259000000000        0.39878400000000
C           86.90301999999998        5.51069800000000        1.66588400000000
C           86.92430400000001        6.90115200000000        1.81559300000000
O           86.78257499999999        7.44524200000000        3.09222200000000
C           87.08763100000000        7.72625800000000        0.68786300000000
O           87.10446100000000        9.11281500000000        0.84502000000000
C           87.22953499999998        7.14719200000000       -0.58652900000000
O           87.38697500000001        7.95904900000000       -1.70895100000000
C           87.21136199999999        5.75264200000000       -0.72547600000000
C           88.19350699999998        2.78650200000000        0.29557000000000
C           89.51743700000000        3.37729800000000        0.48245400000000
C           90.37644800000000        2.37922700000000        0.42066300000000
C           89.61033800000000        1.15367000000000        0.20033900000000
N           88.33560500000000        1.37842400000000        0.12488300000000
H           91.32284000000000       -0.20347800000000        0.07624700000000
H           91.28614300000000       -2.80777800000000       -0.25921100000000
H           89.46155600000000       -4.58799200000000       -0.47288400000000
H           87.13432500000000       -4.89500600000000       -2.60629000000000
H           87.13824200000001       -8.45648100000000       -3.33640700000000
H           86.52987299999999       -9.76221800000000       -0.17356800000000
H           86.09294100000000       -7.59068900000000        2.50755600000000
H           86.34184999999999       -5.33089100000000        1.59854000000000
H           83.99773100000000       -4.51171400000000       -0.18137500000000
H           82.18318400000000       -2.71342400000000       -0.00623100000000
H           82.48288599999999        2.63634500000000       -0.40435600000000
H           84.44513999999999        4.49901800000000       -0.24336000000000
H           86.77584399999999        4.88008800000000        2.53747300000000
H           86.80089099999999        8.44408400000000        3.25686500000000
H           87.21835400000001        9.74385700000000        0.06106600000000
H           87.48681300000000        7.56761300000000       -2.63872800000000
H           87.32170200000000        5.30757600000000       -1.70729400000000
H           89.76932899999998        4.41876700000000        0.63598200000000
H           91.45144699999999        2.46694100000000        0.51465600000000
C           58.78455199999999       -0.03483100000000       -0.03750600000000
C           60.00647000000000       -0.03483100000000       -0.03750600000000
C           69.47428400000000       -0.03483100000000       -0.03750600000000
C           70.69620200000000       -0.03483100000000       -0.03750600000000
C           80.16401500000001       -0.03483100000000       -0.03750600000000
C           81.38593299999999       -0.03483100000000       -0.03750600000000
Cu          64.70146400000000       -0.04775800000000       -0.05676200000000
C           61.29183300000000        0.03711500000000        0.03996500000000
C           61.94829899999999        1.20575200000000        0.15953500000000
C           61.30671000000000        2.50480800000000        0.37196700000000
C           62.24476899999999        3.43122000000000        0.39421600000000
C           63.54358200000000        2.77972800000000        0.19691700000000
N           63.36565000000000        1.36811900000000        0.05549800000000
C           64.72853600000001        3.42395200000000        0.14488100000000
C           64.75825600000000        4.89961500000000        0.24815400000000
C           65.22075200000000        5.51257100000000        1.42158400000000
C           65.26338699999999        6.90972600000000        1.52037400000000
O           65.71632500000000        7.52030500000000        2.69029800000000
C           64.84838200000000        7.70056200000000        0.43953100000000
O           64.90090300000000        9.08995500000000        0.55528900000000
C           64.38599800000000        7.08957000000000       -0.74156500000000
O           63.97453500000000        7.87260500000000       -1.81899600000000
C           64.34188700000000        5.69146800000000       -0.83187800000000
C           66.02959600000000        2.72551300000000       -0.00836000000000
C           67.30297500000000        3.41722400000000       -0.24342500000000
C           68.25675099999998        2.50840500000000       -0.27290500000000
N           66.19571500000001        1.44365200000000        0.09752900000000
C           67.59810500000000        1.22611000000000       -0.06100500000000
C           68.21315199999998        0.03711500000000        0.03996500000000
C           67.46420400000000       -1.22172600000000        0.23835400000000
C           68.00238400000001       -2.35329700000000        0.67472500000000
C           66.96992299999999       -3.37025200000000        0.61560400000000
C           65.87167900000000       -2.79046800000000        0.14490700000000
N           66.09336200000000       -1.40522300000000       -0.11470500000000
C           64.61298200000000       -3.50889100000000       -0.16731100000000
C           64.67490800000000       -4.97376600000000       -0.39024800000000
C           65.40968400000000       -5.48782700000000       -1.46559600000000
C           65.48105800000000       -6.86649600000000       -1.68099300000000
O           66.21229700000001       -7.33664900000000       -2.77247300000000
C           64.82234900000000       -7.75521500000000       -0.80914500000000
O           64.91660800000000       -9.12626400000000       -1.06247800000000
C           64.09016699999999       -7.23874800000000        0.28851500000000
O           63.41842900000000       -8.05604100000000        1.20112100000000
C           64.02608100000000       -5.85482000000000        0.48596200000000
C           63.43666900000000       -2.86042300000000       -0.27091500000000
C           62.15524700000000       -3.46232600000000       -0.62461600000000
C           61.26598800000000       -2.49200800000000       -0.56662600000000
C           61.96805799999999       -1.26275900000000       -0.18166400000000
N           63.23717099999999       -1.47074800000000       -0.00921900000000
H           60.25030899999999        2.70347500000000        0.49688000000000
H           62.05990799999999        4.48716400000000        0.54214400000000
H           65.54599500000000        4.90493000000000        2.25794000000000
H           66.00708299999999        6.97585100000000        3.49850100000000
H           64.60829300000000        9.70494400000000       -0.19790200000000
H           63.61469600000000        7.45838400000000       -2.67132200000000
H           63.98816500000000        5.22150400000000       -1.74325600000000
H           67.45447200000000        4.48144500000000       -0.36904200000000
H           69.31014700000000        2.70641200000000       -0.42252300000000
H           69.02744099999998       -2.50468800000000        0.98735100000000
H           67.08721400000000       -4.41510100000000        0.87252800000000
H           65.92299100000000       -4.81526100000000       -2.14349500000000
H           66.29525500000000       -8.32428600000000       -2.98317300000000
H           64.46654900000000       -9.83976300000000       -0.50537500000000
H           63.40951099999999       -9.06451700000000        1.15843300000000
H           63.46980700000000       -5.46401700000000        1.33015500000000
H           61.94803699999999       -4.49013200000000       -0.89136600000000
H           60.21108700000000       -2.60621500000000       -0.78008900000000
Cu          75.39119500000000       -0.04775800000000       -0.05676200000000
C           71.98156500000000        0.03711500000000        0.03996500000000
C           72.63803100000000        1.20575200000000        0.15953500000000
C           71.99644199999999        2.50480800000000        0.37196700000000
C           72.93450100000000        3.43122000000000        0.39421600000000
C           74.23331399999999        2.77972800000000        0.19691700000000
N           74.05538199999999        1.36811900000000        0.05549800000000
C           75.41826800000000        3.42395200000000        0.14488100000000
C           75.44798800000000        4.89961500000000        0.24815400000000
C           75.91048400000000        5.51257100000000        1.42158400000000
C           75.95311900000000        6.90972600000000        1.52037400000000
O           76.40605700000000        7.52030500000000        2.69029800000000
C           75.53811399999999        7.70056200000000        0.43953100000000
O           75.59063399999999        9.08995500000000        0.55528900000000
C           75.07572900000000        7.08957000000000       -0.74156500000000
O           74.66426699999998        7.87260500000000       -1.81899600000000
C           75.03161799999999        5.69146800000000       -0.83187800000000
C           76.71932800000000        2.72551300000000       -0.00836000000000
C           77.99270599999998        3.41722400000000       -0.24342500000000
C           78.94648200000000        2.50840500000000       -0.27290500000000
N           76.88544700000000        1.44365200000000        0.09752900000000
C           78.28783700000000        1.22611000000000       -0.06100500000000
C           78.90288400000000        0.03711500000000        0.03996500000000
C           78.15393500000000       -1.22172600000000        0.23835400000000
C           78.69211499999999       -2.35329700000000        0.67472500000000
C           77.65965399999999       -3.37025200000000        0.61560400000000
C           76.56141100000001       -2.79046800000000        0.14490700000000
N           76.78309299999999       -1.40522300000000       -0.11470500000000
C           75.30271300000000       -3.50889100000000       -0.16731100000000
C           75.36463999999999       -4.97376600000000       -0.39024800000000
C           76.09941600000001       -5.48782700000000       -1.46559600000000
C           76.17078899999998       -6.86649600000000       -1.68099300000000
O           76.90202900000000       -7.33664900000000       -2.77247300000000
C           75.51208000000000       -7.75521500000000       -0.80914500000000
O           75.60634000000000       -9.12626400000000       -1.06247800000000
C           74.77989900000000       -7.23874800000000        0.28851500000000
O           74.10816000000000       -8.05604100000000        1.20112100000000
C           74.71581199999999       -5.85482000000000        0.48596200000000
C           74.12640000000000       -2.86042300000000       -0.27091500000000
C           72.84497800000000       -3.46232600000000       -0.62461600000000
C           71.95572000000000       -2.49200800000000       -0.56662600000000
C           72.65778999999999       -1.26275900000000       -0.18166400000000
N           73.92690200000000       -1.47074800000000       -0.00921900000000
H           70.94004000000000        2.70347500000000        0.49688000000000
H           72.74964000000000        4.48716400000000        0.54214400000000
H           76.23572599999999        4.90493000000000        2.25794000000000
H           76.69681500000000        6.97585100000000        3.49850100000000
H           75.29802399999998        9.70494400000000       -0.19790200000000
H           74.30442700000000        7.45838400000000       -2.67132200000000
H           74.67789700000000        5.22150400000000       -1.74325600000000
H           78.14420299999999        4.48144500000000       -0.36904200000000
H           79.99987899999999        2.70641200000000       -0.42252300000000
H           79.71717200000001       -2.50468800000000        0.98735100000000
H           77.77694499999998       -4.41510100000000        0.87252800000000
H           76.61272299999999       -4.81526100000000       -2.14349500000000
H           76.98498600000001       -8.32428600000000       -2.98317300000000
H           75.15628100000001       -9.83976300000000       -0.50537500000000
H           74.09924300000000       -9.06451700000000        1.15843300000000
H           74.15953899999998       -5.46401700000000        1.33015500000000
H           72.63776799999998       -4.49013200000000       -0.89136600000000
H           70.90081800000000       -2.60621500000000       -0.78008900000000
252
 energy: -504.663773722173 gnorm: 0.418776632070 xtb: 6.5.1 (b24c23e)
Cu          53.27314145014877       -0.05808049642718       -0.03339755181050
C           49.93076784521399        0.06927565527961        0.07017775767209
C           50.60265135261740        1.24511984447966        0.04818629597339
C           49.94861476701193        2.54306015507609        0.04761098779491
C           50.90303331993082        3.47414343806537        0.03943173162018
C           52.19721081930290        2.79143805895003        0.03646714722678
N           51.99706952717769        1.40008446469129        0.04199694580044
C           53.40880520149148        3.41792863538751        0.06654007516086
C           53.43399062643461        4.90647772042140        0.07340124666969
C           53.21985125072007        5.62495474479640       -1.10953191562710
C           53.24199348913869        7.02716786398128       -1.10574071594985
O           53.02816124064652        7.69166523719967       -2.30186037688151
C           53.47673085557770        7.71837767159150        0.10229362775385
O           53.48939201618646        9.10626581943069        0.08278615187422
C           53.68987390712655        6.99182758767006        1.29041283162548
O           53.92037197931400        7.68067522681070        2.47242873733802
C           53.66709315610782        5.59489011975960        1.26790187630372
C           54.68471082651411        2.71240923331504        0.10574848000225
C           55.97626600614491        3.37801647698932        0.23688115904982
C           56.92372137911517        2.43389317312072        0.22134281859581
N           54.84505778798123        1.40551756834383        0.00767983021188
C           56.24802936534613        1.15992395736384        0.07076707191187
C           56.85892662940967       -0.05194628915406       -0.04109857267795
C           56.07824818017070       -1.28576402290624       -0.21003261459939
C           56.64313412419238       -2.48634407733998       -0.52582050017239
C           55.61390278255691       -3.46356325150544       -0.55491244265203
C           54.43990510009289       -2.83303758637785       -0.26005731877318
N           54.67672034149749       -1.45355630838082       -0.04515828831079
C           53.15664701090994       -3.53039873463741       -0.14751093110616
C           53.12934192623805       -5.02276866993359       -0.16688238948070
C           53.26779994612657       -5.74636708664083        1.02375275675330
C           53.24511676477997       -7.14906803851346        1.01390428379726
O           53.38687499336590       -7.81776749832669        2.21822912201087
C           53.08157629595301       -7.83666096748021       -0.20801504175424
O           53.06634909072935       -9.22465237639074       -0.19342744082638
C           52.94008912578618       -7.10590009017510       -1.40422997558500
O           52.78356582516189       -7.79173153526655       -2.60060238656410
C           52.96014219647026       -5.70821477935515       -1.37511438551334
C           51.97695670327659       -2.87391211226979       -0.02557900574003
C           50.66108299031863       -3.48252786904720        0.09128314248089
C           49.78372826754021       -2.47333531622240        0.14455333281910
C           50.53925209412551       -1.23397770196169        0.06426947733482
N           51.83138912009063       -1.46882667318226       -0.03564371989425
H           48.84800630084300        0.11309014415589        0.09504692806501
H           48.88458377104558        2.73637412865651        0.05646820053126
H           50.72036720829873        4.53939453534355        0.04556798263126
H           53.03697206473905        5.09015418242602       -2.03666056879169
H           53.03606070810760        8.68281705739359       -2.33864837083579
H           53.63881365432483        9.61562859289926        0.91982601647188
H           54.07185209805092        7.18298480399883        3.31688208074973
H           53.82848819579464        5.04261171544292        2.18708112681396
H           56.16301296072780        4.43532487259035        0.32698866886684
H           57.98649034836193        2.61353101480179        0.29659996280314
H           57.69050993351491       -2.65522800059367       -0.70666150304623
H           55.73170741884586       -4.51649785073908       -0.75756749098222
H           53.39456258225240       -5.21494655953902        1.96180298736021
H           53.36751955232360       -8.80872727964154        2.25249261886314
H           52.95381692551519       -9.73185410749186       -1.03770542629502
H           52.68754350646292       -7.29253985001439       -3.45246738857468
H           52.84910998423028       -5.15418843135097       -2.30070248330074
H           50.41213892724701       -4.53480601950204        0.12620638469241
H           48.71431726484499       -2.57518096843989        0.22792697977440
Cu          86.89753117545835       -0.01214137233537       -0.03082808435517
C           90.23966945600472       -0.15054246200045        0.05767546974586
C           89.56789358866999       -1.31631636691303       -0.09743271664379
C           90.22194018345483       -2.60583927877998       -0.24513142146387
C           89.26753521471363       -3.52995908795948       -0.35877187718543
C           87.97336725945810       -2.85119303114258       -0.28432110250192
N           88.17353476783805       -1.46981395616178       -0.12133814869997
C           86.76150841888403       -3.47707354256394       -0.32547453392717
C           86.73645654213517       -4.95685637942844       -0.48740172685993
C           86.95064792983776       -5.53662330411092       -1.74413772529854
C           86.92847227105385       -6.93023464504830       -1.89933782184002
O           87.14240171994676       -7.45487503111859       -3.16296139397898
C           86.69373209028505       -7.75389646605412       -0.77741089072925
O           86.68111284662058       -9.13069640251547       -0.95407991972444
C           86.48060261084970       -7.16671085084125        0.48538280412496
O           86.25010785371029       -7.98515487569043        1.58177974813689
C           86.50339673108920       -5.77622941992922        0.62138778869603
C           85.48577436723929       -2.78061002424364       -0.20659573854956
C           84.19388451584780       -3.45674364473492       -0.15165873608620
C           83.24637654263948       -2.51717646836562       -0.06012698049430
N           85.32540560863441       -1.47111800008633       -0.15587598723984
C           83.92256789694726       -1.23409577677640       -0.06538126052000
C           83.31327599951133       -0.01659334228259       -0.03917300743593
C           84.09225213609010        1.22825109759255       -0.06716338655827
C           83.52720889642337        2.45666133132850       -0.24484811151036
C           84.55650129998558        3.43058822161942       -0.16295537685239
C           85.73048973620757        2.77055840894509        0.05856577276471
N           85.49356387367216        1.37578846914153        0.11585548410925
C           87.01384428820980        3.45068135616711        0.24940357245827
C           87.04112291746574        4.93564797224564        0.39930744417402
C           86.90267943906024        5.51961678612725        1.66430392978751
C           86.92534873677999        6.91443771773702        1.81352490387597
O           86.78369491496386        7.44221218291002        3.08580585701789
C           87.08888819700806        7.73613350748846        0.67737912888379
O           87.10427278100086        9.11328063160541        0.84918262152076
C           87.23037388132218        7.14561386918233       -0.59397420244340
O           87.38699389564329        7.96251272544399       -1.70482920388357
C           87.21034229585396        5.75360088453679       -0.72346429712030
C           88.19359653214741        2.78464918787057        0.29613888172310
C           89.50948094910821        3.37612062908390        0.48122854667774
C           90.38681673204381        2.36741981258352        0.41980541280767
C           89.63124240936469        1.14518975107093        0.19954153301948
N           88.33932685427332        1.38991702382658        0.12694983812565
H           91.32245737014668       -0.19683911037008        0.07741299895793
H           91.28594371463116       -2.79886322854391       -0.25824446109176
H           89.45013836180820       -4.58902530031952       -0.47343830989187
H           87.13350157392166       -4.90019433469304       -2.60467665760755
H           87.13438064474092       -8.43544615980226       -3.31195672411990
H           86.53168235124073       -9.73158485595822       -0.18017083119013
H           86.09863798118302       -7.58629329215318        2.47714823081391
H           86.34199192289255       -5.33170149366520        1.59724479028531
H           84.00736088282005       -4.51744684177309       -0.18204432565943
H           82.18366066753879       -2.70398499641066       -0.00572366219917
H           82.47986383040752        2.64469558829065       -0.40539937654724
H           84.43875771584868        4.49962931867541       -0.24497517926701
H           86.77592394973543        4.88528572051904        2.53606855187778
H           86.80287956097632        8.42296620295526        3.23220754039206
H           87.21656147357773        9.71310389331971        0.06789159694242
H           87.48290244418031        7.56320895034471       -2.60784419140019
H           87.32137614582892        5.30804954483039       -1.70587431071854
H           89.75837103026834        4.41762545022457        0.63520658972069
H           91.45620370023350        2.45909172839065        0.51415546236895
C           58.70044862689205       -0.03277568003740       -0.03468391541109
C           59.92978058925823       -0.03791992958493       -0.03852923917327
C           69.48617249625417       -0.04528315375033       -0.03596949604839
C           70.68852106536799       -0.03874435574644       -0.03920229617897
C           80.24135279921472       -0.04596615379051       -0.03662078338161
C           81.47117559576046       -0.03443186486149       -0.03624892085034