      -----------------------------------------------------------      
     |                   =====================                   |     
     |                           x T B                           |     
     |                   =====================                   |     
     |                         S. Grimme                         |     
     |          Mulliken Center for Theoretical Chemistry        |     
     |                    University of Bonn                     |     
      -----------------------------------------------------------      

   * xtb version 6.5.1 (b24c23e) compiled by 'conda@728c89f4b128' on 2022-07-12

   xtb is free software: you can redistribute it and/or modify it under
   the terms of the GNU Lesser General Public License as published by
   the Free Software Foundation, either version 3 of the License, or
   (at your option) any later version.
   
   xtb is distributed in the hope that it will be useful,
   but WITHOUT ANY WARRANTY; without even the implied warranty of
   MERCHANTABILITY or FITNESS FOR A PARTICULAR PURPOSE.  See the
   GNU Lesser General Public License for more details.
   
   Cite this work as:
   * C. Bannwarth, E. Caldeweyher, S. Ehlert, A. Hansen, P. Pracht,
     J. Seibert, S. Spicher, S. Grimme, WIREs Comput. Mol. Sci., 2020, 11,
     e01493. DOI: 10.1002/wcms.1493
   
   for GFN2-xTB:
   * C. Bannwarth, S. Ehlert and S. Grimme., J. Chem. Theory Comput., 2019,
     15, 1652-1671. DOI: 10.1021/acs.jctc.8b01176
   for GFN1-xTB:
   * S. Grimme, C. Bannwarth, P. Shushkov, J. Chem. Theory Comput., 2017,
     13, 1989-2009. DOI: 10.1021/acs.jctc.7b00118
   for GFN0-xTB:
   * P. Pracht, E. Caldeweyher, S. Ehlert, S. Grimme, ChemRxiv, 2019, preprint.
     DOI: 10.26434/chemrxiv.8326202.v1
   for GFN-FF:
   * S. Spicher and S. Grimme, Angew. Chem. Int. Ed., 2020, 59, 15665-15673.
     DOI: 10.1002/anie.202004239
   
   for ALPB and GBSA implicit solvation:
   * S. Ehlert, M. Stahn, S. Spicher, S. Grimme, J. Chem. Theory Comput.,
     2021, 17, 4250-4261. DOI: 10.1021/acs.jctc.1c00471
   
   for DFT-D4:
   * E. Caldeweyher, C. Bannwarth and S. Grimme, J. Chem. Phys., 2017,
     147, 034112. DOI: 10.1063/1.4993215
   * E. Caldeweyher, S. Ehlert, A. Hansen, H. Neugebauer, S. Spicher,
     C. Bannwarth and S. Grimme, J. Chem. Phys., 2019, 150, 154122.
     DOI: 10.1063/1.5090222
   * E. Caldeweyher, J.-M. Mewes, S. Ehlert and S. Grimme, Phys. Chem. Chem. Phys.
     2020, 22, 8499-8512. DOI: 10.1039/D0CP00502A
   
   for sTDA-xTB:
   * S. Grimme and C. Bannwarth, J. Chem. Phys., 2016, 145, 054103.
     DOI: 10.1063/1.4959605
   
   in the mass-spec context:
   * V. Asgeirsson, C. Bauer and S. Grimme, Chem. Sci., 2017, 8, 4879.
     DOI: 10.1039/c7sc00601b
   * J. Koopman and S. Grimme, ACS Omega 2019, 4, 12, 15120-15133.
     DOI: 10.1021/acsomega.9b02011
   
   for metadynamics refer to:
   * S. Grimme, J. Chem. Theory Comput., 2019, 155, 2847-2862
     DOI: 10.1021/acs.jctc.9b00143
   
   for SPH calculations refer to:
   * S. Spicher and S. Grimme, J. Chem. Theory Comput., 2021, 17, 1701-1714
     DOI: 10.1021/acs.jctc.0c01306
   
   with help from (in alphabetical order)
   P. Atkinson, C. Bannwarth, F. Bohle, G. Brandenburg, E. Caldeweyher
   M. Checinski, S. Dohm, S. Ehlert, S. Ehrlich, I. Gerasimov, C. Hölzer
   A. Katbashev, J. Koopman, C. Lavigne, S. Lehtola, F. März, M. Müller,
   F. Musil, H. Neugebauer, J. Pisarek, C. Plett, P. Pracht, F. Pultar,
   J. Seibert, P. Shushkov, S. Spicher, M. Stahn, M. Steiner, T. Strunk,
   J. Stückrath, T. Rose, and J. Unsleber
   
 * started run on 2022/07/29 at 22:04:17.126     

           -------------------------------------------------
          |                Calculation Setup                |
           -------------------------------------------------

          program call               : xtb Ph3OH_C8_4.xyz --gfn 1 --opt -T 48
          hostname                   : cx3-5-14.cx3.hpc.ic.ac.uk
          coordinate file            : Ph3OH_C8_4.xyz
          omp threads                :                     1

   ID    Z sym.   atoms
    1    6 C      1-5, 7-10, 12, 14, 16-19, 21-26, 28-31, 33, 35, 37-41,
                  64-68, 70-73, 75, 77, 79-82, 84-89, 91-94, 96, 98, 100-104,
                  127-155, 157-160, 162, 164, 166-169, 171-176, 178-181, 183,
                  185, 187-191, 213-217, 219-222, 224, 226, 228-231, 233-238,
                  240-243, 245, 247, 249-253
    2    7 N      6, 20, 27, 42, 69, 83, 90, 105, 156, 170, 177, 192, 218,
                  232, 239, 254
    3    8 O      11, 13, 15, 32, 34, 36, 74, 76, 78, 95, 97, 99, 161, 163,
                  165, 182, 184, 186, 223, 225, 227, 244, 246, 248
    4    1 H      43-63, 106-126, 193-212, 255-274

molecular fragmentation (1/2 indicates fragments):
111111111111111111111111111111111111111111111111111111111111111222222222
222222222222222222222222222222222222222222222222222222222222222222222222
222222222222222222222222222222222222222222222222222222222222222222222222
2222222222222222222222222222222222222222222222222222222222
# atoms in fragment 1/2:    63   211
 fragment masses (1/2) :      557.53     1958.84
CMA distance (Bohr)    :  70.001
constraining FC (au)   :  0.0500
########################################################################
[WARNING] Please study the warnings concerning your input carefully
-1- prog_main_parseArguments: Unknown option '-T' provided
########################################################################

           -------------------------------------------------
          |                 G F N 1 - x T B                 |
           -------------------------------------------------

        Reference                      10.1021/acs.jctc.7b00118
      * Hamiltonian:
        H0-scaling (s, p, d)           1.850000    2.250000    2.000000
        zeta-weighting                 0.000000
      * Dispersion:
        s8                             2.400000
        a1                             0.630000
        a2                             5.000000
        s9                             0.000000
      * Repulsion:
        kExp                           1.500000
        rExp                           1.000000
      * Coulomb:
        alpha                          2.000000
        third order                    atomic
        anisotropic                    false
      * Halogen bond correction:
        rad-scale                      1.300000
        damping                        0.440000


          ...................................................
          :                      SETUP                      :
          :.................................................:
          :  # basis functions                 932          :
          :  # atomic orbitals                 932          :
          :  # shells                          548          :
          :  # electrons                       914          :
          :  # halogen bonds                     0          :
          :  max. iterations                   250          :
          :  Hamiltonian                  GFN1-xTB          :
          :  restarted?                      false          :
          :  GBSA solvation                  false          :
          :  PC potential                    false          :
          :  electronic temp.          300.0000000     K    :
          :  accuracy                    1.0000000          :
          :  -> integral cutoff          0.2500000E+02      :
          :  -> integral neglect         0.1000000E-07      :
          :  -> SCF convergence          0.1000000E-05 Eh   :
          :  -> wf. convergence          0.2000000E-04 e    :
          :  Broyden damping             0.4000000          :
          ...................................................

 iter      E             dE          RMSdq      gap      omega  full diag
   1   -534.4514309 -0.534451E+03  0.102E+01    0.05       0.0  T
   2   -516.8387753  0.176127E+02  0.702E+00    0.13       1.0  T
   3   1287.2467018  0.180409E+04  0.165E+01    0.02       1.0  T
   4   2777.5539304  0.149031E+04  0.202E+01    0.00       1.0  T
   5   -443.2237084 -0.322078E+04  0.749E+00    0.21       1.0  T
   6   -487.9113002 -0.446876E+02  0.464E+00    0.05       1.0  T
   7   -255.8257446  0.232086E+03  0.706E+00    0.04       1.0  T
   8   -494.0812476 -0.238256E+03  0.359E+00    0.11       1.0  T
   9   -515.6828667 -0.216016E+02  0.263E+00    0.05       1.0  T
  10   -510.4363851  0.524648E+01  0.245E+00    0.02       1.0  T
  11   -520.7105975 -0.102742E+02  0.200E+00    0.01       1.0  T
  12   -520.2477593  0.462838E+00  0.190E+00    0.03       1.0  T
  13   -524.4861866 -0.423843E+01  0.171E+00    0.04       1.0  T
  14   -525.6126121 -0.112643E+01  0.196E+00    0.06       1.0  T
  15   -527.0332434 -0.142063E+01  0.157E+00    0.03       1.0  T
  16   -531.5099995 -0.447676E+01  0.115E+00    0.05       1.0  T
  17   -533.3216365 -0.181164E+01  0.107E+00    0.01       1.0  T
  18   -534.3832220 -0.106159E+01  0.103E+00    0.03       1.0  T
  19   -533.3690371  0.101418E+01  0.117E+00    0.02       1.0  T
  20   -534.0400339 -0.670997E+00  0.984E-01    0.05       1.0  T
  21   -534.3879050 -0.347871E+00  0.100E+00    0.06       1.0  T
  22   -534.2289786  0.158926E+00  0.994E-01    0.02       1.0  T
  23   -534.1247553  0.104223E+00  0.104E+00    0.05       1.0  T
  24   -534.3712216 -0.246466E+00  0.940E-01    0.06       1.0  T
  25   -535.2046239 -0.833402E+00  0.550E-01    0.04       1.0  T
  26   -535.0427014  0.161923E+00  0.605E-01    0.05       1.0  T
  27   -535.4244735 -0.381772E+00  0.586E-01    0.05       1.0  T
  28   -535.5115559 -0.870823E-01  0.479E-01    0.06       1.0  T
  29   -535.4615383  0.500176E-01  0.603E-01    0.04       1.0  T
  30   -535.6139080 -0.152370E+00  0.317E-01    0.03       1.0  T
  31   -535.5939732  0.199347E-01  0.299E-01    0.05       1.0  T
  32   -535.7148936 -0.120920E+00  0.280E-01    0.02       1.0  T
  33   -535.6921484  0.227452E-01  0.282E-01    0.01       1.0  T
  34   -535.7332044 -0.410560E-01  0.174E-01    0.02       1.0  T
  35   -535.7607685 -0.275641E-01  0.118E-01    0.02       1.0  T
  36   -535.7519491  0.881941E-02  0.115E-01    0.03       1.0  T
  37   -535.7639505 -0.120014E-01  0.882E-02    0.03       1.0  T
  38   -535.7750300 -0.110795E-01  0.701E-02    0.03       1.0  T
  39   -535.7762744 -0.124443E-02  0.587E-02    0.02       1.0  T
  40   -535.7744927  0.178171E-02  0.486E-02    0.03       1.0  T
  41   -535.7771276 -0.263488E-02  0.375E-02    0.02       1.0  T
  42   -535.7777519 -0.624306E-03  0.336E-02    0.02       1.0  T
  43   -535.7782004 -0.448517E-03  0.222E-02    0.02       1.0  T
  44   -535.7780546  0.145806E-03  0.252E-02    0.02       1.0  T
  45   -535.7782881 -0.233542E-03  0.202E-02    0.02       1.0  T
  46   -535.7783008 -0.127283E-04  0.203E-02    0.02       1.0  T
  47   -535.7784971 -0.196228E-03  0.165E-02    0.02       1.0  T
  48   -535.7785506 -0.535533E-04  0.150E-02    0.02       1.0  T
  49   -535.7784359  0.114775E-03  0.164E-02    0.02       1.0  T
  50   -535.7786061 -0.170288E-03  0.107E-02    0.02       1.0  T
  51   -535.7787010 -0.949015E-04  0.666E-03    0.02       1.0  T
  52   -535.7786806  0.204022E-04  0.643E-03    0.02       1.0  T
  53   -535.7787175 -0.368190E-04  0.461E-03    0.02       1.3  T
  54   -535.7787231 -0.567123E-05  0.327E-03    0.02       1.8  T
  55   -535.7787283 -0.520665E-05  0.187E-03    0.02       3.2  T
  56   -535.7787298 -0.142436E-05  0.138E-03    0.02       4.4  T
  57   -535.7787304 -0.620288E-06  0.110E-03    0.02       5.5  T
  58   -535.7787304 -0.831835E-08  0.101E-03    0.02       6.0  T
  59   -535.7787307 -0.290843E-06  0.842E-04    0.02       7.2  T
  60   -535.7787308 -0.137747E-06  0.719E-04    0.02       8.4  T
  61   -535.7787310 -0.215090E-06  0.496E-04    0.02      12.2  T
  62   -535.7787312 -0.171513E-06  0.283E-04    0.02      21.3  T
  63   -535.7787313 -0.571299E-07  0.164E-04    0.02      36.9  T
  64   -535.7787313 -0.450530E-08  0.131E-04    0.02      46.2  T

   *** convergence criteria satisfied after 64 iterations ***

         #    Occupation            Energy/Eh            Energy/eV
      -------------------------------------------------------------
         1        2.0000           -0.8205375             -22.3280
       ...           ...                  ...                  ...
       451        2.0000           -0.3881399             -10.5618
       452        2.0000           -0.3854848             -10.4896
       453        2.0000           -0.3842548             -10.4561
       454        2.0000           -0.3824381             -10.4067
       455        1.9999           -0.3780549             -10.2874
       456        1.9999           -0.3780462             -10.2872
       457        0.9877           -0.3684875             -10.0271 (HOMO)
       458        0.5756           -0.3676501             -10.0043 (LUMO)
       459        0.2650           -0.3667258              -9.9791
       460        0.1718           -0.3662641              -9.9666
       461        0.0000           -0.3539394              -9.6312
       462        0.0000           -0.3526248              -9.5954
       ...           ...                  ...                  ...
       932                          2.7272364              74.2119
      -------------------------------------------------------------
                  HL-Gap            0.0008374 Eh            0.0228 eV
             Fermi-level           -0.3685109 Eh          -10.0277 eV

 SCC (total)                   0 d,  0 h,  0 min, 17.267 sec
 SCC setup                      ...        0 min,  0.018 sec (  0.106%)
 Dispersion                     ...        0 min,  0.011 sec (  0.062%)
 classical contributions        ...        0 min,  0.003 sec (  0.016%)
 integral evaluation            ...        0 min,  0.284 sec (  1.644%)
 iterations                     ...        0 min, 16.327 sec ( 94.556%)
 molecular gradient             ...        0 min,  0.572 sec (  3.313%)
 printout                       ...        0 min,  0.052 sec (  0.303%)

         :::::::::::::::::::::::::::::::::::::::::::::::::::::
         ::                     SUMMARY                     ::
         :::::::::::::::::::::::::::::::::::::::::::::::::::::
         :: total energy            -527.106871308124 Eh    ::
         :: gradient norm              2.235065023189 Eh/a0 ::
         :: HOMO-LUMO gap              0.022787273282 eV    ::
         ::.................................................::
         :: SCC energy              -535.778731265472 Eh    ::
         :: -> electrostatic           1.128174046733 Eh    ::
         :: repulsion energy           8.893963685481 Eh    ::
         :: dispersion energy         -0.222103728133 Eh    ::
         :: halogen bond corr.         0.000000000000 Eh    ::
         :: add. restraining           0.000000000000 Eh    ::
         :: total charge              -0.000000000000 e     ::
         :::::::::::::::::::::::::::::::::::::::::::::::::::::

      ----------------------------------------------------------- 
     |                   =====================                   |
     |                        A N C O P T                        |
     |                   =====================                   |
     |               Approximate Normal Coordinate               |
     |                Rational Function Optimizer                |
      ----------------------------------------------------------- 

          ...................................................
          :                      SETUP                      :
          :.................................................:
          :   optimization level            normal          :
          :   max. optcycles                   822          :
          :   ANC micro-cycles                  20          :
          :   degrees of freedom               816          :
          :.................................................:
          :   RF solver                   davidson          :
          :   write xtbopt.log                true          :
          :   linear?                        false          :
          :   energy convergence         0.5000000E-05 Eh   :
          :   grad. convergence          0.1000000E-02 Eh/α :
          :   maximium RF displ.         1.0000000          :
          :   Hlow (freq-cutoff)         0.1000000E-01      :
          :   Hmax (freq-cutoff)         5.0000000          :
          :   S6 in model hess.         20.0000000          :
          ...................................................

generating ANC from model Hessian ...
Using Lindh-Hessian (1995)
 Shifting diagonal of input Hessian by    1.0012745000896661E-002
 Lowest  eigenvalues of input Hessian
    0.010000    0.010008    0.010009    0.010010    0.010011    0.010011
    0.010012    0.010013    0.000000    0.000000    0.000000    0.000000
    0.000000    0.000000    0.010016    0.010020    0.010022    0.010027
 Highest eigenvalues
    3.108317    3.223787    3.425310    3.427742    3.610513    3.610717


........................................................................
.............................. CYCLE    1 ..............................
........................................................................
   1   -535.7787313 -0.535779E+03  0.772E-05    0.02       0.0  T
   2   -535.7787310  0.303968E-06  0.440E-04    0.02      13.7  T
   3   -535.7787310  0.725311E-08  0.479E-04    0.02      12.6  T
   4   -535.7787310 -0.290470E-08  0.460E-04    0.02      13.1  T
   5   -535.7787313 -0.305301E-06  0.105E-04    0.02      57.6  T
   6   -535.7787312  0.388978E-07  0.172E-04    0.02      35.1  T
     SCC iter.                  ...        0 min,  1.542 sec
     gradient                   ...        0 min,  0.568 sec
 * total energy  :  -527.1068713 Eh     change        0.2700347E-07 Eh
   gradient norm :     2.2350640 Eh/α   predicted     0.0000000E+00 (-100.00%)
   displ. norm   :     0.5767042 α      lambda       -0.1233110E+01
   maximum displ.:     0.2697912 α      in ANC's #813, #814, #808, ...

........................................................................
.............................. CYCLE    2 ..............................
........................................................................
   1   -535.6928409 -0.535693E+03  0.286E-01    0.15       0.0  T
   2   -534.5125797  0.118026E+01  0.103E+00    0.05       1.0  T
   3   -535.5751357 -0.106256E+01  0.395E-01    0.16       1.0  T
   4   -535.3898364  0.185299E+00  0.507E-01    0.13       1.0  T
   5   -535.7282914 -0.338455E+00  0.172E-01    0.04       1.0  T
   6   -535.7306448 -0.235334E-02  0.117E-01    0.04       1.0  T
   7   -535.6562439  0.744008E-01  0.234E-01    0.02       1.0  T
   8   -535.7112578 -0.550139E-01  0.156E-01    0.01       1.0  T
   9   -535.6721967  0.390611E-01  0.210E-01    0.02       1.0  T
  10   -535.7360192 -0.638225E-01  0.842E-02    0.07       1.0  T
  11   -535.7442972 -0.827802E-02  0.542E-02    0.08       1.0  T
  12   -535.7439812  0.316017E-03  0.496E-02    0.06       1.0  T
  13   -535.7466665 -0.268531E-02  0.326E-02    0.06       1.0  T
  14   -535.7477001 -0.103361E-02  0.205E-02    0.06       1.0  T
  15   -535.7479385 -0.238398E-03  0.152E-02    0.06       1.0  T
  16   -535.7480903 -0.151856E-03  0.111E-02    0.06       1.0  T
  17   -535.7482124 -0.122047E-03  0.598E-03    0.06       1.0  T
  18   -535.7482551 -0.427620E-04  0.289E-03    0.06       2.1  T
  19   -535.7482680 -0.128408E-04  0.658E-04    0.06       9.2  T
  20   -535.7482684 -0.472950E-06  0.222E-04    0.06      27.2  T
  21   -535.7482679  0.532773E-06  0.569E-04    0.06      10.6  T
  22   -535.7482685 -0.570295E-06  0.554E-05    0.06     109.0  T
  23   -535.7482685 -0.330931E-08  0.254E-05    0.06     238.1  T
     SCC iter.                  ...        0 min,  6.026 sec
     gradient                   ...        0 min,  0.578 sec
 * total energy  :  -527.8820157 Eh     change       -0.7751444E+00 Eh
   gradient norm :     0.7985255 Eh/α   predicted    -0.8216140E+00 (   5.99%)
   displ. norm   :     0.5370999 α      lambda       -0.3517049E+00
   maximum displ.:     0.1113370 α      in ANC's #814, #484, #813, ...

........................................................................
.............................. CYCLE    3 ..............................
........................................................................
   1   -535.8311348 -0.535831E+03  0.187E-01    0.17       0.0  T
   2   -535.5031927  0.327942E+00  0.581E-01    0.02       1.0  T
   3   -535.8079154 -0.304723E+00  0.189E-01    0.20       1.0  T
   4   -535.7559173  0.519981E-01  0.256E-01    0.01       1.0  T
   5   -535.8348250 -0.789077E-01  0.128E-01    0.13       1.0  T
   6   -535.8434644 -0.863942E-02  0.624E-02    0.09       1.0  T
   7   -535.8188280  0.246364E-01  0.132E-01    0.06       1.0  T
   8   -535.8453629 -0.265349E-01  0.431E-02    0.11       1.0  T
   9   -535.8441945  0.116835E-02  0.436E-02    0.09       1.0  T
  10   -535.8461333 -0.193875E-02  0.296E-02    0.09       1.0  T
  11   -535.8464987 -0.365468E-03  0.247E-02    0.09       1.0  T
  12   -535.8473761 -0.877380E-03  0.888E-03    0.10       1.0  T
  13   -535.8473420  0.340894E-04  0.856E-03    0.10       1.0  T
  14   -535.8474044 -0.624155E-04  0.467E-03    0.10       1.3  T
  15   -535.8474315 -0.270743E-04  0.170E-03    0.10       3.5  T
  16   -535.8474354 -0.387517E-05  0.721E-04    0.10       8.4  T
  17   -535.8474359 -0.524502E-06  0.349E-04    0.10      17.3  T
  18   -535.8474360 -0.110829E-06  0.210E-04    0.10      28.8  T
  19   -535.8474361 -0.394022E-07  0.121E-04    0.10      49.8  T
  20   -535.8474361 -0.180330E-07  0.386E-05    0.10     156.6  T
     SCC iter.                  ...        0 min,  5.314 sec
     gradient                   ...        0 min,  0.577 sec
 * total energy  :  -528.1382238 Eh     change       -0.2562081E+00 Eh
   gradient norm :     0.3559484 Eh/α   predicted    -0.2265819E+00 ( -11.56%)
   displ. norm   :     0.6329807 α      lambda       -0.1701171E+00
   maximum displ.:     0.1677685 α      in ANC's #206, #220, #216, ...

........................................................................
.............................. CYCLE    4 ..............................
........................................................................
   1   -535.8965056 -0.535897E+03  0.115E-01    0.30       0.0  T
   2   -535.4281400  0.468366E+00  0.605E-01    0.14       1.0  T
   3   -535.8821266 -0.453987E+00  0.166E-01    0.14       1.0  T
   4   -535.9015162 -0.193896E-01  0.630E-02    0.28       1.0  T
   5   -535.9037027 -0.218643E-02  0.390E-02    0.21       1.0  T
   6   -535.9043731 -0.670402E-03  0.318E-02    0.14       1.0  T
   7   -535.8873735  0.169996E-01  0.108E-01    0.07       1.0  T
   8   -535.9040606 -0.166871E-01  0.248E-02    0.13       1.0  T
   9   -535.9047365 -0.675987E-03  0.101E-02    0.16       1.0  T
  10   -535.9047958 -0.592651E-04  0.515E-03    0.15       1.2  T
  11   -535.9048059 -0.101118E-04  0.366E-03    0.15       1.6  T
  12   -535.9048214 -0.154880E-04  0.154E-03    0.15       3.9  T
  13   -535.9048227 -0.133123E-05  0.100E-03    0.15       6.0  T
  14   -535.9048216  0.115649E-05  0.135E-03    0.15       4.5  T
  15   -535.9048226 -0.100711E-05  0.104E-03    0.15       5.8  T
  16   -535.9048237 -0.112060E-05  0.523E-04    0.15      11.6  T
  17   -535.9048240 -0.307795E-06  0.238E-04    0.15      25.4  T
  18   -535.9048241 -0.790080E-07  0.728E-05    0.15      82.9  T
  19   -535.9048241 -0.731859E-08  0.222E-05    0.15     271.5  T
     SCC iter.                  ...        0 min,  5.070 sec
     gradient                   ...        0 min,  0.581 sec
 * total energy  :  -528.2571722 Eh     change       -0.1189483E+00 Eh
   gradient norm :     0.1641648 Eh/α   predicted    -0.1191394E+00 (   0.16%)
   displ. norm   :     0.7282693 α      lambda       -0.8025786E-01
   maximum displ.:     0.2394484 α      in ANC's #206, #53, #220, ...

........................................................................
.............................. CYCLE    5 ..............................
........................................................................
   1   -535.8965548 -0.535897E+03  0.612E-02    0.43       0.0  T
   2   -535.8856754  0.108794E-01  0.130E-01    0.11       1.0  T
   3   -535.8984490 -0.127736E-01  0.315E-02    0.36       1.0  T
   4   -535.8990772 -0.628189E-03  0.209E-02    0.26       1.0  T
   5   -535.8988993  0.177896E-03  0.220E-02    0.21       1.0  T
   6   -535.8983974  0.501889E-03  0.251E-02    0.17       1.0  T
   7   -535.8991039 -0.706512E-03  0.631E-03    0.22       1.0  T
   8   -535.8991300 -0.261531E-04  0.276E-03    0.23       2.2  T
   9   -535.8991346 -0.458982E-05  0.125E-03    0.23       4.8  T
  10   -535.8991362 -0.153184E-05  0.422E-04    0.23      14.3  T
  11   -535.8991363 -0.142280E-06  0.191E-04    0.23      31.6  T
  12   -535.8991363 -0.317694E-07  0.826E-05    0.23      73.1  T
     SCC iter.                  ...        0 min,  3.214 sec
     gradient                   ...        0 min,  0.582 sec
 * total energy  :  -528.3189294 Eh     change       -0.6175727E-01 Eh
   gradient norm :     0.1071158 Eh/α   predicted    -0.6141237E-01 (  -0.56%)
   displ. norm   :     0.8232746 α      lambda       -0.5894870E-01
   maximum displ.:     0.2580472 α      in ANC's #206, #53, #64, ...

........................................................................
.............................. CYCLE    6 ..............................
........................................................................
   1   -535.8924113 -0.535892E+03  0.520E-02    0.61       0.0  T
   2   -535.8920524  0.358861E-03  0.751E-02    0.50       1.0  T
   3   -535.8938826 -0.183023E-02  0.234E-02    0.54       1.0  T
   4   -535.8938031  0.795878E-04  0.186E-02    0.56       1.0  T
   5   -535.8939156 -0.112497E-03  0.801E-03    0.55       1.0  T
   6   -535.8939360 -0.204418E-04  0.267E-03    0.56       2.3  T
   7   -535.8939402 -0.422826E-05  0.718E-04    0.55       8.4  T
   8   -535.8939406 -0.333172E-06  0.329E-04    0.55      18.4  T
   9   -535.8939406 -0.610906E-07  0.142E-04    0.55      42.4  T
  10   -535.8939406 -0.102782E-07  0.740E-05    0.55      81.6  T
     SCC iter.                  ...        0 min,  2.675 sec
     gradient                   ...        0 min,  0.575 sec
 * total energy  :  -528.3719928 Eh     change       -0.5306341E-01 Eh
   gradient norm :     0.1031870 Eh/α   predicted    -0.4945154E-01 (  -6.81%)
   displ. norm   :     0.9151949 α      lambda       -0.6007090E-01
   maximum displ.:     0.2927739 α      in ANC's #53, #206, #64, ...

........................................................................
.............................. CYCLE    7 ..............................
........................................................................
   1   -535.8868110 -0.535887E+03  0.622E-02    0.84       0.0  T
   2   -535.8873523 -0.541254E-03  0.696E-02    0.84       1.0  T
   3   -535.8885671 -0.121486E-02  0.230E-02    0.84       1.0  T
   4   -535.8885034  0.637050E-04  0.147E-02    0.84       1.0  T
   5   -535.8885630 -0.596224E-04  0.709E-03    0.84       1.0  T
   6   -535.8885891 -0.260620E-04  0.242E-03    0.84       2.5  T
   7   -535.8885933 -0.423275E-05  0.637E-04    0.84       9.5  T
   8   -535.8885935 -0.195757E-06  0.314E-04    0.84      19.2  T
   9   -535.8885936 -0.264247E-07  0.170E-04    0.84      35.6  T
  10   -535.8885936 -0.176937E-07  0.657E-05    0.84      92.0  T
     SCC iter.                  ...        0 min,  2.585 sec
     gradient                   ...        0 min,  0.578 sec
 * total energy  :  -528.4306329 Eh     change       -0.5864007E-01 Eh
   gradient norm :     0.0988776 Eh/α   predicted    -0.5519262E-01 (  -5.88%)
   displ. norm   :     0.9492758 α      lambda       -0.6505507E-01
   maximum displ.:     0.3061025 α      in ANC's #53, #206, #64, ...

........................................................................
.............................. CYCLE    8 ..............................
........................................................................
   1   -535.8760798 -0.535876E+03  0.686E-02    0.87       0.0  T
   2   -535.8770026 -0.922803E-03  0.667E-02    0.87       1.0  T
   3   -535.8776540 -0.651351E-03  0.285E-02    0.87       1.0  T
   4   -535.8775173  0.136625E-03  0.175E-02    0.87       1.0  T
   5   -535.8776239 -0.106619E-03  0.711E-03    0.87       1.0  T
   6   -535.8776694 -0.454875E-04  0.198E-03    0.87       3.0  T
   7   -535.8776716 -0.212875E-05  0.713E-04    0.87       8.5  T
   8   -535.8776718 -0.220432E-06  0.308E-04    0.87      19.6  T
   9   -535.8776718 -0.608921E-07  0.155E-04    0.87      39.1  T
  10   -535.8776719 -0.138849E-07  0.467E-05    0.87     129.4  T
     SCC iter.                  ...        0 min,  2.583 sec
     gradient                   ...        0 min,  0.574 sec
 * total energy  :  -528.4897545 Eh     change       -0.5912160E-01 Eh
   gradient norm :     0.0934521 Eh/α   predicted    -0.6183892E-01 (   4.60%)
   displ. norm   :     0.8891110 α      lambda       -0.5192721E-01
   maximum displ.:     0.3394822 α      in ANC's #53, #148, #64, ...

........................................................................
.............................. CYCLE    9 ..............................
........................................................................
   1   -535.8834209 -0.535883E+03  0.529E-02    0.89       0.0  T
   2   -535.8837712 -0.350348E-03  0.536E-02    0.89       1.0  T
   3   -535.8841326 -0.361407E-03  0.256E-02    0.89       1.0  T
   4   -535.8839310  0.201657E-03  0.186E-02    0.89       1.0  T
   5   -535.8841311 -0.200094E-03  0.417E-03    0.89       1.4  T
   6   -535.8841429 -0.118086E-04  0.115E-03    0.89       5.3  T
   7   -535.8841434 -0.542033E-06  0.569E-04    0.89      10.6  T
   8   -535.8841437 -0.237309E-06  0.203E-04    0.89      29.8  T
   9   -535.8841437 -0.244078E-07  0.687E-05    0.89      87.9  T
  10   -535.8841437 -0.199884E-08  0.240E-05    0.89     251.4  T
     SCC iter.                  ...        0 min,  2.565 sec
     gradient                   ...        0 min,  0.576 sec
 * total energy  :  -528.5329613 Eh     change       -0.4320680E-01 Eh
   gradient norm :     0.1035139 Eh/α   predicted    -0.4648836E-01 (   7.60%)
   displ. norm   :     0.7835462 α      lambda       -0.4348962E-01
   maximum displ.:     0.3156841 α      in ANC's #53, #66, #68, ...

........................................................................
.............................. CYCLE   10 ..............................
........................................................................
   1   -535.9123294 -0.535912E+03  0.417E-02    0.88       0.0  T
   2   -535.9125014 -0.171988E-03  0.429E-02    0.88       1.0  T
   3   -535.9127883 -0.286888E-03  0.204E-02    0.88       1.0  T
   4   -535.9126162  0.172156E-03  0.171E-02    0.88       1.0  T
   5   -535.9127887 -0.172511E-03  0.359E-03    0.88       1.7  T
   6   -535.9127958 -0.707784E-05  0.889E-04    0.88       6.8  T
   7   -535.9127961 -0.313577E-06  0.390E-04    0.88      15.5  T
   8   -535.9127962 -0.126923E-06  0.117E-04    0.88      51.8  T
   9   -535.9127962 -0.696355E-08  0.452E-05    0.88     133.5  T
     SCC iter.                  ...        0 min,  2.312 sec
     gradient                   ...        0 min,  0.576 sec
 * total energy  :  -528.5657141 Eh     change       -0.3275279E-01 Eh
   gradient norm :     0.0902356 Eh/α   predicted    -0.3509494E-01 (   7.15%)
   displ. norm   :     0.7832536 α      lambda       -0.3861109E-01
   maximum displ.:     0.3640432 α      in ANC's #53, #64, #17, ...

........................................................................
.............................. CYCLE   11 ..............................
........................................................................
   1   -535.9575437 -0.535958E+03  0.297E-02    0.90       0.0  T
   2   -535.9576723 -0.128667E-03  0.228E-02    0.89       1.0  T
   3   -535.9578606 -0.188319E-03  0.104E-02    0.90       1.0  T
   4   -535.9578517  0.894837E-05  0.921E-03    0.90       1.0  T
   5   -535.9578916 -0.399223E-04  0.279E-03    0.90       2.2  T
   6   -535.9578936 -0.193871E-05  0.876E-04    0.90       6.9  T
   7   -535.9578942 -0.610131E-06  0.309E-04    0.90      19.5  T
   8   -535.9578942 -0.846187E-07  0.119E-04    0.90      51.0  T
   9   -535.9578942 -0.480247E-08  0.511E-05    0.90     118.2  T
     SCC iter.                  ...        0 min,  2.308 sec
     gradient                   ...        0 min,  0.577 sec
 * total energy  :  -528.5908389 Eh     change       -0.2512477E-01 Eh
   gradient norm :     0.0897396 Eh/α   predicted    -0.3114927E-01 (  23.98%)
   displ. norm   :     0.7430623 α      lambda       -0.2907794E-01
   maximum displ.:     0.3707755 α      in ANC's #53, #64, #66, ...

........................................................................
.............................. CYCLE   12 ..............................
........................................................................
   1   -536.0035435 -0.536004E+03  0.229E-02    0.85       0.0  T
   2   -536.0036347 -0.911965E-04  0.160E-02    0.85       1.0  T
   3   -536.0036993 -0.646203E-04  0.629E-03    0.85       1.0  T
   4   -536.0036856  0.136940E-04  0.703E-03    0.85       1.0  T
   5   -536.0037102 -0.246008E-04  0.207E-03    0.85       2.9  T
   6   -536.0037121 -0.189713E-05  0.617E-04    0.85       9.8  T
   7   -536.0037124 -0.238037E-06  0.214E-04    0.85      28.2  T
   8   -536.0037124 -0.273053E-07  0.881E-05    0.85      68.5  T
   9   -536.0037124 -0.507578E-08  0.402E-05    0.85     150.2  T
     SCC iter.                  ...        0 min,  2.308 sec
     gradient                   ...        0 min,  0.579 sec
 * total energy  :  -528.6149557 Eh     change       -0.2411688E-01 Eh
   gradient norm :     0.0635445 Eh/α   predicted    -0.2256657E-01 (  -6.43%)
   displ. norm   :     0.8529644 α      lambda       -0.2544049E-01
   maximum displ.:     0.4594996 α      in ANC's #53, #64, #66, ...

........................................................................
.............................. CYCLE   13 ..............................
........................................................................
   1   -536.0443516 -0.536044E+03  0.231E-02    0.83       0.0  T
   2   -536.0444022 -0.505495E-04  0.183E-02    0.84       1.0  T
   3   -536.0444749 -0.727607E-04  0.691E-03    0.84       1.0  T
   4   -536.0444538  0.211091E-04  0.701E-03    0.84       1.0  T
   5   -536.0444796 -0.257985E-04  0.186E-03    0.84       3.2  T
   6   -536.0444816 -0.198192E-05  0.448E-04    0.84      13.5  T
   7   -536.0444817 -0.103143E-06  0.162E-04    0.84      37.3  T
   8   -536.0444817 -0.236688E-07  0.545E-05    0.84     110.8  T
     SCC iter.                  ...        0 min,  2.055 sec
     gradient                   ...        0 min,  0.579 sec
 * total energy  :  -528.6345340 Eh     change       -0.1957824E-01 Eh
   gradient norm :     0.0605147 Eh/α   predicted    -0.2197486E-01 (  12.24%)
   displ. norm   :     0.8571906 α      lambda       -0.2526501E-01
   maximum displ.:     0.4077817 α      in ANC's #53, #64, #17, ...

........................................................................
.............................. CYCLE   14 ..............................
........................................................................
   1   -536.0872808 -0.536087E+03  0.164E-02    0.83       0.0  T
   2   -536.0873316 -0.507558E-04  0.118E-02    0.83       1.0  T
   3   -536.0873521 -0.204831E-04  0.560E-03    0.83       1.1  T
   4   -536.0873404  0.116091E-04  0.467E-03    0.83       1.3  T
   5   -536.0873535 -0.130317E-04  0.168E-03    0.83       3.6  T
   6   -536.0873549 -0.138813E-05  0.293E-04    0.83      20.6  T
   7   -536.0873549 -0.396554E-07  0.152E-04    0.83      39.8  T
   8   -536.0873549 -0.172812E-07  0.634E-05    0.83      95.4  T
     SCC iter.                  ...        0 min,  2.052 sec
     gradient                   ...        0 min,  0.580 sec
 * total energy  :  -528.6524942 Eh     change       -0.1796018E-01 Eh
   gradient norm :     0.0621791 Eh/α   predicted    -0.2191457E-01 (  22.02%)
   displ. norm   :     0.7990936 α      lambda       -0.1959138E-01
   maximum displ.:     0.4186384 α      in ANC's #53, #64, #66, ...

........................................................................
.............................. CYCLE   15 ..............................
........................................................................
   1   -536.1342314 -0.536134E+03  0.161E-02    0.81       0.0  T
   2   -536.1342751 -0.436783E-04  0.143E-02    0.81       1.0  T
   3   -536.1343092 -0.341162E-04  0.620E-03    0.81       1.0  T
   4   -536.1342982  0.109547E-04  0.481E-03    0.81       1.3  T
   5   -536.1343080 -0.976424E-05  0.171E-03    0.81       3.5  T
   6   -536.1343101 -0.210808E-05  0.363E-04    0.81      16.7  T
   7   -536.1343102 -0.937254E-07  0.138E-04    0.81      43.7  T
   8   -536.1343102 -0.161931E-07  0.472E-05    0.81     127.9  T
     SCC iter.                  ...        0 min,  2.055 sec
     gradient                   ...        0 min,  0.581 sec
 * total energy  :  -528.6677775 Eh     change       -0.1528334E-01 Eh
   gradient norm :     0.0560507 Eh/α   predicted    -0.1605075E-01 (   5.02%)
   displ. norm   :     0.8448585 α      lambda       -0.1866542E-01
   maximum displ.:     0.4586039 α      in ANC's #53, #64, #66, ...

........................................................................
.............................. CYCLE   16 ..............................
........................................................................
   1   -536.1685354 -0.536169E+03  0.219E-02    0.84       0.0  T
   2   -536.1686081 -0.727096E-04  0.208E-02    0.84       1.0  T
   3   -536.1687099 -0.101803E-03  0.827E-03    0.84       1.0  T
   4   -536.1686767  0.331742E-04  0.782E-03    0.84       1.0  T
   5   -536.1687119 -0.351359E-04  0.171E-03    0.84       3.5  T
   6   -536.1687136 -0.168602E-05  0.508E-04    0.84      11.9  T
   7   -536.1687137 -0.167234E-06  0.188E-04    0.84      32.2  T
   8   -536.1687137 -0.260358E-07  0.697E-05    0.84      86.7  T
     SCC iter.                  ...        0 min,  2.055 sec
     gradient                   ...        0 min,  0.582 sec
 * total energy  :  -528.6812499 Eh     change       -0.1347239E-01 Eh
   gradient norm :     0.0477338 Eh/α   predicted    -0.1599424E-01 (  18.72%)
   displ. norm   :     0.8151914 α      lambda       -0.1536058E-01
   maximum displ.:     0.4375523 α      in ANC's #53, #17, #64, ...

........................................................................
.............................. CYCLE   17 ..............................
........................................................................
   1   -536.2108848 -0.536211E+03  0.118E-02    0.84       0.0  T
   2   -536.2108886 -0.379996E-05  0.116E-02    0.84       1.0  T
   3   -536.2109316 -0.429948E-04  0.469E-03    0.84       1.3  T
   4   -536.2109167  0.148850E-04  0.481E-03    0.84       1.3  T
   5   -536.2109329 -0.161492E-04  0.114E-03    0.84       5.3  T
   6   -536.2109334 -0.563941E-06  0.305E-04    0.84      19.8  T
   7   -536.2109335 -0.682351E-07  0.105E-04    0.84      57.6  T
   8   -536.2109335 -0.928401E-08  0.332E-05    0.84     181.8  T
     SCC iter.                  ...        0 min,  2.055 sec
     gradient                   ...        0 min,  0.580 sec
 * total energy  :  -528.6931156 Eh     change       -0.1186570E-01 Eh
   gradient norm :     0.0367926 Eh/α   predicted    -0.1278412E-01 (   7.74%)
   displ. norm   :     0.8510469 α      lambda       -0.1397084E-01
   maximum displ.:     0.4051760 α      in ANC's #53, #17, #66, ...

........................................................................
.............................. CYCLE   18 ..............................
........................................................................
   1   -536.2641562 -0.536264E+03  0.151E-02    0.82       0.0  T
   2   -536.2641834 -0.271659E-04  0.144E-02    0.82       1.0  T
   3   -536.2642421 -0.586694E-04  0.616E-03    0.83       1.0  T
   4   -536.2642178  0.242512E-04  0.638E-03    0.82       1.0  T
   5   -536.2642446 -0.267920E-04  0.157E-03    0.82       3.8  T
   6   -536.2642457 -0.107065E-05  0.428E-04    0.83      14.1  T
   7   -536.2642458 -0.147018E-06  0.136E-04    0.83      44.6  T
   8   -536.2642458 -0.132375E-07  0.536E-05    0.83     112.8  T
     SCC iter.                  ...        0 min,  2.052 sec
     gradient                   ...        0 min,  0.580 sec
 * total energy  :  -528.7015816 Eh     change       -0.8465995E-02 Eh
   gradient norm :     0.0506886 Eh/α   predicted    -0.1204485E-01 (  42.27%)
   displ. norm   :     0.7459948 α      lambda       -0.1207026E-01
   maximum displ.:     0.4086840 α      in ANC's #53, #17, #66, ...

........................................................................
.............................. CYCLE   19 ..............................
........................................................................
   1   -536.2959869 -0.536296E+03  0.131E-02    0.84       0.0  T
   2   -536.2959861  0.755746E-06  0.140E-02    0.84       1.0  T
   3   -536.2960570 -0.708478E-04  0.517E-03    0.84       1.2  T
   4   -536.2960415  0.155003E-04  0.515E-03    0.84       1.2  T
   5   -536.2960580 -0.165124E-04  0.105E-03    0.84       5.8  T
   6   -536.2960584 -0.385425E-06  0.342E-04    0.84      17.7  T
   7   -536.2960585 -0.827113E-07  0.133E-04    0.84      45.3  T
   8   -536.2960585 -0.151014E-07  0.423E-05    0.84     142.9  T
     SCC iter.                  ...        0 min,  2.051 sec
     gradient                   ...        0 min,  0.581 sec
 * total energy  :  -528.7106413 Eh     change       -0.9059692E-02 Eh
   gradient norm :     0.0329270 Eh/α   predicted    -0.9393725E-02 (   3.69%)
   displ. norm   :     0.8092680 α      lambda       -0.8621426E-02
   maximum displ.:     0.4493715 α      in ANC's #53, #17, #66, ...

........................................................................
.............................. CYCLE   20 ..............................
........................................................................
   1   -536.3276787 -0.536328E+03  0.981E-03    0.84       0.0  T
   2   -536.3276651  0.135949E-04  0.109E-02    0.84       1.0  T
   3   -536.3277236 -0.585522E-04  0.375E-03    0.84       1.6  T
   4   -536.3277151  0.855946E-05  0.365E-03    0.84       1.7  T
   5   -536.3277241 -0.901231E-05  0.741E-04    0.84       8.1  T
   6   -536.3277243 -0.240577E-06  0.306E-04    0.84      19.7  T
   7   -536.3277244 -0.860543E-07  0.984E-05    0.84      61.4  T
   8   -536.3277244 -0.631428E-08  0.310E-05    0.84     195.2  T
     SCC iter.                  ...        0 min,  2.048 sec
     gradient                   ...        0 min,  0.584 sec
 * total energy  :  -528.7167706 Eh     change       -0.6129319E-02 Eh
   gradient norm :     0.0252165 Eh/α   predicted    -0.7133871E-02 (  16.39%)
   displ. norm   :     0.8152255 α      lambda       -0.8226941E-02
   maximum displ.:     0.4165878 α      in ANC's #53, #17, #50, ...
 * RMSD in coord.:     0.7070485 α      energy gain  -0.1609899E+01 Eh

generating ANC from model Hessian ...
Using Lindh-Hessian (1995)
 Shifting diagonal of input Hessian by    1.0002313392957880E-002
 Lowest  eigenvalues of input Hessian
    0.010000    0.010000    0.010001    0.010001    0.010002    0.010002
    0.000000    0.000000    0.000000    0.000000    0.000000    0.000000
    0.010006    0.010007    0.010007    0.010009    0.010013    0.010016
 Highest eigenvalues
    2.725189    2.728059    2.784366    2.932704    2.943132    3.003956


........................................................................
.............................. CYCLE   21 ..............................
........................................................................
   1   -536.3648468 -0.536365E+03  0.108E-02    0.83       0.0  T
   2   -536.3648380  0.875387E-05  0.105E-02    0.84       1.0  T
   3   -536.3648905 -0.524778E-04  0.373E-03    0.84       1.6  T
   4   -536.3648830  0.747882E-05  0.391E-03    0.84       1.5  T
   5   -536.3648928 -0.981276E-05  0.974E-04    0.84       6.2  T
   6   -536.3648933 -0.471936E-06  0.292E-04    0.84      20.7  T
   7   -536.3648934 -0.614500E-07  0.114E-04    0.84      53.2  T
   8   -536.3648934 -0.102141E-07  0.353E-05    0.84     171.2  T
     SCC iter.                  ...        0 min,  2.053 sec
     gradient                   ...        0 min,  0.582 sec
 * total energy  :  -528.7215560 Eh     change       -0.4785422E-02 Eh
   gradient norm :     0.0324901 Eh/α   predicted     0.0000000E+00 (-100.00%)
   displ. norm   :     0.3933825 α      lambda       -0.3657522E-02
   maximum displ.:     0.1922210 α      in ANC's #61, #76, #51, ...

........................................................................
.............................. CYCLE   22 ..............................
........................................................................
   1   -536.3817314 -0.536382E+03  0.556E-03    0.84       0.0  T
   2   -536.3817325 -0.108896E-05  0.567E-03    0.84       1.1  T
   3   -536.3817423 -0.975031E-05  0.221E-03    0.84       2.7  T
   4   -536.3817391  0.315980E-05  0.228E-03    0.84       2.6  T
   5   -536.3817424 -0.334692E-05  0.516E-04    0.84      11.7  T
   6   -536.3817426 -0.119746E-06  0.134E-04    0.84      45.1  T
   7   -536.3817426 -0.133957E-07  0.552E-05    0.84     109.4  T
     SCC iter.                  ...        0 min,  1.800 sec
     gradient                   ...        0 min,  0.581 sec
 * total energy  :  -528.7241536 Eh     change       -0.2597598E-02 Eh
   gradient norm :     0.0143946 Eh/α   predicted    -0.2114010E-02 ( -18.62%)
   displ. norm   :     0.7278276 α      lambda       -0.5121275E-02
   maximum displ.:     0.3315420 α      in ANC's #61, #76, #51, ...

........................................................................
.............................. CYCLE   23 ..............................
........................................................................
   1   -536.4057294 -0.536406E+03  0.815E-03    0.83       0.0  T
   2   -536.4057299 -0.500308E-06  0.851E-03    0.83       1.0  T
   3   -536.4057559 -0.259720E-04  0.323E-03    0.83       1.9  T
   4   -536.4057498  0.607050E-05  0.330E-03    0.83       1.8  T
   5   -536.4057564 -0.658570E-05  0.791E-04    0.83       7.6  T
   6   -536.4057567 -0.273683E-06  0.223E-04    0.83      27.1  T
   7   -536.4057567 -0.394220E-07  0.863E-05    0.83      70.0  T
   8   -536.4057567 -0.684543E-08  0.221E-05    0.83     273.2  T
     SCC iter.                  ...        0 min,  2.055 sec
     gradient                   ...        0 min,  0.585 sec
 * total energy  :  -528.7260508 Eh     change       -0.1897208E-02 Eh
   gradient norm :     0.0326257 Eh/α   predicted    -0.3917092E-02 ( 106.47%)
   displ. norm   :     0.5385452 α      lambda       -0.4803779E-02
   maximum displ.:     0.2518376 α      in ANC's #61, #51, #76, ...

........................................................................
.............................. CYCLE   24 ..............................
........................................................................
   1   -536.4204639 -0.536420E+03  0.416E-03    0.83       0.0  T
   2   -536.4204635  0.413503E-06  0.368E-03    0.83       1.6  T
   3   -536.4204681 -0.462101E-05  0.175E-03    0.83       3.4  T
   4   -536.4204671  0.100473E-05  0.138E-03    0.83       4.4  T
   5   -536.4204686 -0.154122E-05  0.262E-04    0.83      23.1  T
   6   -536.4204686 -0.343138E-07  0.107E-04    0.83      56.4  T
   7   -536.4204687 -0.970817E-08  0.334E-05    0.83     181.0  T
     SCC iter.                  ...        0 min,  1.801 sec
     gradient                   ...        0 min,  0.584 sec
 * total energy  :  -528.7290038 Eh     change       -0.2952974E-02 Eh
   gradient norm :     0.0290240 Eh/α   predicted    -0.3098514E-02 (   4.93%)
   displ. norm   :     0.6046841 α      lambda       -0.4254384E-02
   maximum displ.:     0.2580726 α      in ANC's #61, #58, #51, ...

........................................................................
.............................. CYCLE   25 ..............................
........................................................................
   1   -536.4231811 -0.536423E+03  0.605E-03    0.83       0.0  T
   2   -536.4231848 -0.368840E-05  0.592E-03    0.83       1.0  T
   3   -536.4231940 -0.918411E-05  0.238E-03    0.83       2.5  T
   4   -536.4231906  0.338377E-05  0.219E-03    0.83       2.8  T
   5   -536.4231942 -0.354132E-05  0.489E-04    0.83      12.4  T
   6   -536.4231943 -0.118876E-06  0.160E-04    0.83      37.7  T
   7   -536.4231943 -0.209722E-07  0.587E-05    0.83     102.8  T
     SCC iter.                  ...        0 min,  1.799 sec
     gradient                   ...        0 min,  0.583 sec
 * total energy  :  -528.7301111 Eh     change       -0.1107341E-02 Eh
   gradient norm :     0.0212512 Eh/α   predicted    -0.2904989E-02 ( 162.34%)
   displ. norm   :     0.4918387 α      lambda       -0.4029003E-02
   maximum displ.:     0.2153423 α      in ANC's #61, #51, #22, ...

........................................................................
.............................. CYCLE   26 ..............................
........................................................................
   1   -536.4346670 -0.536435E+03  0.382E-03    0.83       0.0  T
   2   -536.4346671 -0.162656E-06  0.304E-03    0.83       2.0  T
   3   -536.4346695 -0.240924E-05  0.149E-03    0.83       4.1  T
   4   -536.4346689  0.671454E-06  0.125E-03    0.83       4.8  T
   5   -536.4346701 -0.123850E-05  0.245E-04    0.83      24.6  T
   6   -536.4346701 -0.290756E-07  0.939E-05    0.83      64.3  T
   7   -536.4346701 -0.717910E-08  0.279E-05    0.83     216.2  T
     SCC iter.                  ...        0 min,  1.802 sec
     gradient                   ...        0 min,  0.588 sec
 * total energy  :  -528.7327483 Eh     change       -0.2637201E-02 Eh
   gradient norm :     0.0132508 Eh/α   predicted    -0.2501822E-02 (  -5.13%)
   displ. norm   :     0.6547250 α      lambda       -0.2827835E-02
   maximum displ.:     0.2760597 α      in ANC's #61, #51, #22, ...

........................................................................
.............................. CYCLE   27 ..............................
........................................................................
   1   -536.4447877 -0.536445E+03  0.262E-03    0.83       0.0  T
   2   -536.4447879 -0.134492E-06  0.210E-03    0.83       2.9  T
   3   -536.4447894 -0.155842E-05  0.950E-04    0.83       6.4  T
   4   -536.4447894  0.138538E-07  0.837E-04    0.83       7.2  T
   5   -536.4447899 -0.426153E-06  0.199E-04    0.83      30.4  T
   6   -536.4447899 -0.222558E-07  0.839E-05    0.83      72.0  T
     SCC iter.                  ...        0 min,  1.546 sec
     gradient                   ...        0 min,  0.589 sec
 * total energy  :  -528.7343795 Eh     change       -0.1631186E-02 Eh
   gradient norm :     0.0127542 Eh/α   predicted    -0.2020016E-02 (  23.84%)
   displ. norm   :     0.6721027 α      lambda       -0.2554240E-02
   maximum displ.:     0.2753737 α      in ANC's #61, #51, #55, ...

........................................................................
.............................. CYCLE   28 ..............................
........................................................................
   1   -536.4528667 -0.536453E+03  0.296E-03    0.83       0.0  T
   2   -536.4528672 -0.583651E-06  0.226E-03    0.83       2.7  T
   3   -536.4528687 -0.150189E-05  0.829E-04    0.83       7.3  T
   4   -536.4528685  0.242997E-06  0.829E-04    0.83       7.3  T
   5   -536.4528689 -0.414377E-06  0.214E-04    0.83      28.2  T
   6   -536.4528689 -0.271663E-07  0.642E-05    0.83      94.1  T
   7   -536.4528689 -0.254147E-08  0.330E-05    0.83     183.1  T
     SCC iter.                  ...        0 min,  1.908 sec
     gradient                   ...        0 min,  0.592 sec
 * total energy  :  -528.7358537 Eh     change       -0.1474147E-02 Eh
   gradient norm :     0.0121450 Eh/α   predicted    -0.1854024E-02 (  25.77%)
   displ. norm   :     0.6329914 α      lambda       -0.2759913E-02
   maximum displ.:     0.2562786 α      in ANC's #51, #61, #22, ...

........................................................................
.............................. CYCLE   29 ..............................
........................................................................
   1   -536.4602938 -0.536460E+03  0.378E-03    0.83       0.0  T
   2   -536.4602948 -0.106026E-05  0.321E-03    0.83       1.9  T
   3   -536.4602977 -0.290880E-05  0.104E-03    0.83       5.8  T
   4   -536.4602972  0.511552E-06  0.110E-03    0.83       5.5  T
   5   -536.4602979 -0.634469E-06  0.315E-04    0.83      19.2  T
   6   -536.4602979 -0.380857E-07  0.777E-05    0.83      77.7  T
   7   -536.4602979 -0.212674E-08  0.357E-05    0.83     169.4  T
     SCC iter.                  ...        0 min,  1.968 sec
     gradient                   ...        0 min,  0.599 sec
 * total energy  :  -528.7373571 Eh     change       -0.1503468E-02 Eh
   gradient norm :     0.0132378 Eh/α   predicted    -0.1932876E-02 (  28.56%)
   displ. norm   :     0.6154426 α      lambda       -0.2211002E-02
   maximum displ.:     0.2520400 α      in ANC's #51, #20, #22, ...

........................................................................
.............................. CYCLE   30 ..............................
........................................................................
   1   -536.4640181 -0.536464E+03  0.198E-03    0.83       0.0  T
   2   -536.4640182 -0.164262E-06  0.164E-03    0.83       3.7  T
   3   -536.4640192 -0.956337E-06  0.617E-04    0.83       9.8  T
   4   -536.4640191  0.317240E-07  0.480E-04    0.83      12.6  T
   5   -536.4640193 -0.112035E-06  0.195E-04    0.83      30.9  T
   6   -536.4640193 -0.191930E-07  0.488E-05    0.83     123.8  T
     SCC iter.                  ...        0 min,  1.727 sec
     gradient                   ...        0 min,  0.603 sec
 * total energy  :  -528.7384333 Eh     change       -0.1076150E-02 Eh
   gradient norm :     0.0142930 Eh/α   predicted    -0.1524225E-02 (  41.64%)
   displ. norm   :     0.5850031 α      lambda       -0.2411094E-02
   maximum displ.:     0.2473966 α      in ANC's #51, #20, #22, ...

........................................................................
.............................. CYCLE   31 ..............................
........................................................................
   1   -536.4681248 -0.536468E+03  0.257E-03    0.83       0.0  T
   2   -536.4681259 -0.103965E-05  0.227E-03    0.83       2.7  T
   3   -536.4681271 -0.120765E-05  0.917E-04    0.83       6.6  T
   4   -536.4681268  0.309607E-06  0.792E-04    0.83       7.6  T
   5   -536.4681271 -0.311668E-06  0.257E-04    0.83      23.5  T
   6   -536.4681271 -0.407005E-07  0.723E-05    0.83      83.5  T
   7   -536.4681271 -0.353771E-08  0.257E-05    0.83     235.4  T
     SCC iter.                  ...        0 min,  1.855 sec
     gradient                   ...        0 min,  0.567 sec
 * total energy  :  -528.7397997 Eh     change       -0.1366452E-02 Eh
   gradient norm :     0.0102954 Eh/α   predicted    -0.1618134E-02 (  18.42%)
   displ. norm   :     0.6183854 α      lambda       -0.2722722E-02
   maximum displ.:     0.2462640 α      in ANC's #51, #20, #22, ...

........................................................................
.............................. CYCLE   32 ..............................
........................................................................
   1   -536.4690313 -0.536469E+03  0.346E-03    0.83       0.0  T
   2   -536.4690313 -0.336577E-07  0.325E-03    0.83       1.9  T
   3   -536.4690351 -0.371516E-05  0.124E-03    0.83       4.9  T
   4   -536.4690344  0.696328E-06  0.122E-03    0.83       4.9  T
   5   -536.4690353 -0.920759E-06  0.325E-04    0.83      18.6  T
   6   -536.4690353 -0.392419E-07  0.911E-05    0.83      66.3  T
   7   -536.4690353 -0.596503E-08  0.331E-05    0.83     182.4  T
     SCC iter.                  ...        0 min,  1.734 sec
     gradient                   ...        0 min,  0.567 sec
 * total energy  :  -528.7401266 Eh     change       -0.3268178E-03 Eh
   gradient norm :     0.0183924 Eh/α   predicted    -0.1881948E-02 ( 475.84%)
   displ. norm   :     0.4390279 α      lambda       -0.2767964E-02
   maximum displ.:     0.1817457 α      in ANC's #51, #20, #22, ...

........................................................................
.............................. CYCLE   33 ..............................
........................................................................
   1   -536.4705034 -0.536471E+03  0.314E-03    0.83       0.0  T
   2   -536.4705039 -0.537184E-06  0.293E-03    0.83       2.1  T
   3   -536.4705062 -0.221169E-05  0.118E-03    0.83       5.1  T
   4   -536.4705054  0.769212E-06  0.114E-03    0.83       5.3  T
   5   -536.4705062 -0.841538E-06  0.267E-04    0.83      22.7  T
   6   -536.4705063 -0.302477E-07  0.796E-05    0.83      75.9  T
   7   -536.4705063 -0.461966E-08  0.282E-05    0.83     214.4  T
     SCC iter.                  ...        0 min,  1.757 sec
     gradient                   ...        0 min,  0.596 sec
 * total energy  :  -528.7419886 Eh     change       -0.1862067E-02 Eh
   gradient norm :     0.0071554 Eh/α   predicted    -0.1650744E-02 ( -11.35%)
   displ. norm   :     0.7275645 α      lambda       -0.1459252E-02
   maximum displ.:     0.3237960 α      in ANC's #51, #20, #22, ...

........................................................................
.............................. CYCLE   34 ..............................
........................................................................
   1   -536.4681922 -0.536468E+03  0.171E-03    0.83       0.0  T
   2   -536.4681923 -0.825944E-07  0.119E-03    0.83       5.1  T
   3   -536.4681929 -0.688952E-06  0.685E-04    0.83       8.8  T
   4   -536.4681932 -0.250541E-06  0.350E-04    0.83      17.3  T
   5   -536.4681932 -0.244228E-07  0.146E-04    0.83      41.4  T
   6   -536.4681932 -0.983209E-08  0.512E-05    0.83     117.9  T
     SCC iter.                  ...        0 min,  1.770 sec
     gradient                   ...        0 min,  0.601 sec
 * total energy  :  -528.7432444 Eh     change       -0.1255798E-02 Eh
   gradient norm :     0.0066403 Eh/α   predicted    -0.1115857E-02 ( -11.14%)
   displ. norm   :     0.8120064 α      lambda       -0.1504936E-02
   maximum displ.:     0.3565299 α      in ANC's #51, #20, #22, ...

........................................................................
.............................. CYCLE   35 ..............................
........................................................................
   1   -536.4677259 -0.536468E+03  0.210E-03    0.83       0.0  T
   2   -536.4677262 -0.261507E-06  0.138E-03    0.83       4.4  T
   3   -536.4677269 -0.703641E-06  0.860E-04    0.83       7.0  T
   4   -536.4677272 -0.373740E-06  0.454E-04    0.83      13.3  T
   5   -536.4677273 -0.555110E-07  0.177E-04    0.83      34.1  T
   6   -536.4677273 -0.154728E-07  0.613E-05    0.83      98.6  T
     SCC iter.                  ...        0 min,  1.722 sec
     gradient                   ...        0 min,  0.596 sec
 * total energy  :  -528.7445063 Eh     change       -0.1261860E-02 Eh
   gradient norm :     0.0064638 Eh/α   predicted    -0.1248616E-02 (  -1.05%)
   displ. norm   :     0.8039715 α      lambda       -0.1398970E-02
   maximum displ.:     0.3526152 α      in ANC's #51, #20, #22, ...

........................................................................
.............................. CYCLE   36 ..............................
........................................................................
   1   -536.4685790 -0.536469E+03  0.201E-03    0.83       0.0  T
   2   -536.4685795 -0.495067E-06  0.115E-03    0.83       5.2  T
   3   -536.4685800 -0.413134E-06  0.761E-04    0.83       7.9  T
   4   -536.4685802 -0.244636E-06  0.384E-04    0.83      15.7  T
   5   -536.4685802 -0.317793E-07  0.203E-04    0.83      29.7  T
   6   -536.4685803 -0.223382E-07  0.615E-05    0.83      98.3  T
   7   -536.4685803 -0.122600E-08  0.289E-05    0.83     208.8  T
     SCC iter.                  ...        0 min,  1.962 sec
     gradient                   ...        0 min,  0.601 sec
 * total energy  :  -528.7457415 Eh     change       -0.1235213E-02 Eh
   gradient norm :     0.0058806 Eh/α   predicted    -0.1151616E-02 (  -6.77%)
   displ. norm   :     0.8205004 α      lambda       -0.1285429E-02
   maximum displ.:     0.3679782 α      in ANC's #20, #51, #22, ...

........................................................................
.............................. CYCLE   37 ..............................
........................................................................
   1   -536.4706874 -0.536471E+03  0.217E-03    0.83       0.0  T
   2   -536.4706881 -0.701083E-06  0.122E-03    0.83       5.0  T
   3   -536.4706887 -0.644041E-06  0.708E-04    0.83       8.5  T
   4   -536.4706889 -0.221972E-06  0.335E-04    0.83      18.0  T
   5   -536.4706889 -0.884984E-08  0.210E-04    0.83      28.7  T
   6   -536.4706890 -0.245406E-07  0.662E-05    0.83      91.3  T
   7   -536.4706890 -0.182433E-08  0.302E-05    0.83     200.2  T
     SCC iter.                  ...        0 min,  1.956 sec
     gradient                   ...        0 min,  0.593 sec
 * total energy  :  -528.7468591 Eh     change       -0.1117566E-02 Eh
   gradient norm :     0.0059093 Eh/α   predicted    -0.1075413E-02 (  -3.77%)
   displ. norm   :     0.8218958 α      lambda       -0.1182611E-02
   maximum displ.:     0.3905777 α      in ANC's #20, #51, #22, ...

........................................................................
.............................. CYCLE   38 ..............................
........................................................................
   1   -536.4768089 -0.536477E+03  0.198E-03    0.83       0.0  T
   2   -536.4768095 -0.569042E-06  0.129E-03    0.83       4.7  T
   3   -536.4768103 -0.773481E-06  0.646E-04    0.83       9.4  T
   4   -536.4768104 -0.146052E-06  0.388E-04    0.83      15.6  T
   5   -536.4768105 -0.375229E-07  0.200E-04    0.83      30.2  T
   6   -536.4768105 -0.265100E-07  0.679E-05    0.83      89.0  T
   7   -536.4768105 -0.268972E-08  0.295E-05    0.83     204.5  T
     SCC iter.                  ...        0 min,  1.868 sec
     gradient                   ...        0 min,  0.589 sec
 * total energy  :  -528.7478885 Eh     change       -0.1029420E-02 Eh
   gradient norm :     0.0056282 Eh/α   predicted    -0.9907292E-03 (  -3.76%)
   displ. norm   :     0.8066654 α      lambda       -0.1008344E-02
   maximum displ.:     0.3981210 α      in ANC's #20, #51, #22, ...

........................................................................
.............................. CYCLE   39 ..............................
........................................................................
   1   -536.4831212 -0.536483E+03  0.180E-03    0.83       0.0  T
   2   -536.4831214 -0.236319E-06  0.136E-03    0.83       4.4  T
   3   -536.4831224 -0.938455E-06  0.615E-04    0.83       9.8  T
   4   -536.4831224 -0.994770E-07  0.440E-04    0.83      13.7  T
   5   -536.4831225 -0.796466E-07  0.180E-04    0.83      33.7  T
   6   -536.4831225 -0.179490E-07  0.663E-05    0.83      91.1  T
     SCC iter.                  ...        0 min,  1.576 sec
     gradient                   ...        0 min,  0.587 sec
 * total energy  :  -528.7487926 Eh     change       -0.9040929E-03 Eh
   gradient norm :     0.0048709 Eh/α   predicted    -0.8322482E-03 (  -7.95%)
   displ. norm   :     0.7894858 α      lambda       -0.8776991E-03
   maximum displ.:     0.4043815 α      in ANC's #20, #22, #51, ...

........................................................................
.............................. CYCLE   40 ..............................
........................................................................
   1   -536.4889771 -0.536489E+03  0.184E-03    0.83       0.0  T
   2   -536.4889773 -0.244403E-06  0.135E-03    0.83       4.5  T
   3   -536.4889781 -0.815147E-06  0.655E-04    0.83       9.2  T
   4   -536.4889783 -0.138086E-06  0.461E-04    0.83      13.1  T
   5   -536.4889784 -0.967796E-07  0.163E-04    0.83      37.1  T
   6   -536.4889784 -0.110771E-07  0.700E-05    0.83      86.4  T
     SCC iter.                  ...        0 min,  1.598 sec
     gradient                   ...        0 min,  0.588 sec
 * total energy  :  -528.7495615 Eh     change       -0.7688940E-03 Eh
   gradient norm :     0.0042165 Eh/α   predicted    -0.7123860E-03 (  -7.35%)
   displ. norm   :     0.7635808 α      lambda       -0.7377930E-03
   maximum displ.:     0.4131001 α      in ANC's #20, #22, #51, ...

........................................................................
.............................. CYCLE   41 ..............................
........................................................................
   1   -536.4961678 -0.536496E+03  0.163E-03    0.83       0.0  T
   2   -536.4961680 -0.215856E-06  0.117E-03    0.83       5.2  T
   3   -536.4961685 -0.494580E-06  0.595E-04    0.83      10.2  T
   4   -536.4961686 -0.990973E-07  0.432E-04    0.83      14.0  T
   5   -536.4961687 -0.859859E-07  0.135E-04    0.83      44.9  T
   6   -536.4961687 -0.988200E-08  0.541E-05    0.83     111.6  T
     SCC iter.                  ...        0 min,  1.629 sec
     gradient                   ...        0 min,  0.595 sec
 * total energy  :  -528.7501944 Eh     change       -0.6329042E-03 Eh
   gradient norm :     0.0041647 Eh/α   predicted    -0.5839881E-03 (  -7.73%)
   displ. norm   :     0.7064958 α      lambda       -0.5781298E-03
   maximum displ.:     0.3866557 α      in ANC's #20, #22, #51, ...

........................................................................
.............................. CYCLE   42 ..............................
........................................................................
   1   -536.4983221 -0.536498E+03  0.155E-03    0.83       0.0  T
   2   -536.4983223 -0.190259E-06  0.110E-03    0.83       5.5  T
   3   -536.4983229 -0.641845E-06  0.534E-04    0.83      11.3  T
   4   -536.4983230 -0.121726E-06  0.343E-04    0.83      17.6  T
   5   -536.4983231 -0.421039E-07  0.122E-04    0.83      49.7  T
   6   -536.4983231 -0.564967E-08  0.533E-05    0.83     113.4  T
     SCC iter.                  ...        0 min,  1.597 sec
     gradient                   ...        0 min,  0.590 sec
 * total energy  :  -528.7507011 Eh     change       -0.5067448E-03 Eh
   gradient norm :     0.0038654 Eh/α   predicted    -0.4333512E-03 ( -14.48%)
   displ. norm   :     0.6631432 α      lambda       -0.4825259E-03
   maximum displ.:     0.3827042 α      in ANC's #20, #22, #51, ...
 * RMSD in coord.:     0.7814032 α      energy gain  -0.3393052E-01 Eh

generating ANC from model Hessian ...
Using Lindh-Hessian (1995)
 Shifting diagonal of input Hessian by    1.0004926977435857E-002
 Lowest  eigenvalues of input Hessian
    0.010000    0.010000    0.010002    0.010002    0.010003    0.010003
    0.000000    0.000000    0.000000    0.000000    0.000000    0.000000
    0.010006    0.010006    0.010006    0.010011    0.010016    0.010018
 Highest eigenvalues
    2.788655    2.793387    2.793838    3.010479    3.016082    3.016348


........................................................................
.............................. CYCLE   43 ..............................
........................................................................
   1   -536.5030092 -0.536503E+03  0.149E-03    0.83       0.0  T
   2   -536.5030093 -0.149741E-06  0.109E-03    0.83       5.5  T
   3   -536.5030101 -0.735464E-06  0.511E-04    0.83      11.8  T
   4   -536.5030102 -0.130870E-06  0.289E-04    0.83      20.9  T
   5   -536.5030102 -0.205723E-07  0.130E-04    0.83      46.4  T
   6   -536.5030102 -0.790453E-08  0.474E-05    0.83     127.4  T
     SCC iter.                  ...        0 min,  1.623 sec
     gradient                   ...        0 min,  0.592 sec
 * total energy  :  -528.7511303 Eh     change       -0.4292040E-03 Eh
   gradient norm :     0.0037878 Eh/α   predicted     0.0000000E+00 (-100.00%)
   displ. norm   :     0.0906847 α      lambda       -0.9943836E-04
   maximum displ.:     0.0567589 α      in ANC's #20, #21, #27, ...

........................................................................
.............................. CYCLE   44 ..............................
........................................................................
   1   -536.5026282 -0.536503E+03  0.714E-04    0.83       0.0  T
   2   -536.5026283 -0.708280E-07  0.365E-04    0.83      16.5  T
   3   -536.5026283 -0.709167E-08  0.253E-04    0.83      23.9  T
   4   -536.5026283 -0.117378E-07  0.166E-04    0.83      36.5  T
   5   -536.5026283 -0.145205E-07  0.522E-05    0.83     115.8  T
     SCC iter.                  ...        0 min,  1.345 sec
     gradient                   ...        0 min,  0.592 sec
 * total energy  :  -528.7512235 Eh     change       -0.9313260E-04 Eh
   gradient norm :     0.0026715 Eh/α   predicted    -0.5382556E-04 ( -42.21%)
   displ. norm   :     0.4035164 α      lambda       -0.4365557E-03
   maximum displ.:     0.2239975 α      in ANC's #20, #21, #27, ...

........................................................................
.............................. CYCLE   45 ..............................
........................................................................
   1   -536.4999422 -0.536500E+03  0.307E-03    0.83       0.0  T
   2   -536.4999435 -0.128581E-05  0.158E-03    0.83       3.8  T
   3   -536.4999437 -0.208372E-06  0.112E-03    0.83       5.4  T
   4   -536.4999441 -0.330708E-06  0.675E-04    0.83       9.0  T
   5   -536.4999443 -0.204190E-06  0.237E-04    0.83      25.5  T
   6   -536.4999443 -0.339096E-07  0.788E-05    0.83      76.7  T
   7   -536.4999443 -0.414855E-08  0.275E-05    0.83     219.7  T
     SCC iter.                  ...        0 min,  1.800 sec
     gradient                   ...        0 min,  0.592 sec
 * total energy  :  -528.7514508 Eh     change       -0.2273860E-03 Eh
   gradient norm :     0.0067096 Eh/α   predicted    -0.2538248E-03 (  11.63%)
   displ. norm   :     0.4346383 α      lambda       -0.5172738E-03
   maximum displ.:     0.2423080 α      in ANC's #20, #21, #27, ...

........................................................................
.............................. CYCLE   46 ..............................
........................................................................
   1   -536.4982159 -0.536498E+03  0.180E-03    0.82       0.0  T
   2   -536.4982163 -0.362105E-06  0.103E-03    0.82       5.9  T
   3   -536.4982166 -0.315987E-06  0.675E-04    0.82       9.0  T
   4   -536.4982169 -0.248342E-06  0.344E-04    0.82      17.6  T
   5   -536.4982169 -0.203225E-07  0.154E-04    0.82      39.3  T
   6   -536.4982169 -0.141019E-07  0.523E-05    0.82     115.5  T
     SCC iter.                  ...        0 min,  1.546 sec
     gradient                   ...        0 min,  0.592 sec
 * total energy  :  -528.7516524 Eh     change       -0.2015590E-03 Eh
   gradient norm :     0.0098054 Eh/α   predicted    -0.3074970E-03 (  52.56%)
   displ. norm   :     0.3029642 α      lambda       -0.4848025E-03
   maximum displ.:     0.1708708 α      in ANC's #20, #21, #27, ...

........................................................................
.............................. CYCLE   47 ..............................
........................................................................
   1   -536.4995483 -0.536500E+03  0.167E-03    0.82       0.0  T
   2   -536.4995486 -0.303011E-06  0.983E-04    0.82       6.1  T
   3   -536.4995487 -0.957767E-07  0.623E-04    0.82       9.7  T
   4   -536.4995487 -0.107362E-07  0.445E-04    0.82      13.6  T
   5   -536.4995489 -0.157366E-06  0.123E-04    0.82      49.3  T
   6   -536.4995489 -0.639977E-08  0.328E-05    0.82     184.4  T
     SCC iter.                  ...        0 min,  1.544 sec
     gradient                   ...        0 min,  0.589 sec
 * total energy  :  -528.7518248 Eh     change       -0.1724327E-03 Eh
   gradient norm :     0.0085704 Eh/α   predicted    -0.2646508E-03 (  53.48%)
   displ. norm   :     0.2535429 α      lambda       -0.4875285E-03
   maximum displ.:     0.1406337 α      in ANC's #20, #21, #27, ...

........................................................................
.............................. CYCLE   48 ..............................
........................................................................
   1   -536.5030146 -0.536503E+03  0.214E-03    0.82       0.0  T
   2   -536.5030152 -0.596369E-06  0.121E-03    0.82       5.0  T
   3   -536.5030153 -0.108049E-06  0.739E-04    0.82       8.2  T
   4   -536.5030153  0.113710E-07  0.541E-04    0.82      11.2  T
   5   -536.5030155 -0.174207E-06  0.151E-04    0.82      40.0  T
   6   -536.5030155 -0.131537E-07  0.500E-05    0.82     120.8  T
     SCC iter.                  ...        0 min,  1.544 sec
     gradient                   ...        0 min,  0.592 sec
 * total energy  :  -528.7520128 Eh     change       -0.1879574E-03 Eh
   gradient norm :     0.0063738 Eh/α   predicted    -0.2594359E-03 (  38.03%)
   displ. norm   :     0.2639503 α      lambda       -0.4139223E-03
   maximum displ.:     0.1503075 α      in ANC's #20, #21, #27, ...

........................................................................
.............................. CYCLE   49 ..............................
........................................................................
   1   -536.5053560 -0.536505E+03  0.811E-04    0.82       0.0  T
   2   -536.5053561 -0.106580E-06  0.473E-04    0.82      12.8  T
   3   -536.5053562 -0.418286E-07  0.278E-04    0.82      21.7  T
   4   -536.5053562 -0.192122E-07  0.186E-04    0.82      32.5  T
   5   -536.5053562 -0.134600E-07  0.781E-05    0.82      77.4  T
     SCC iter.                  ...        0 min,  1.289 sec
     gradient                   ...        0 min,  0.590 sec
 * total energy  :  -528.7522354 Eh     change       -0.2225959E-03 Eh
   gradient norm :     0.0042584 Eh/α   predicted    -0.2213856E-03 (  -0.54%)
   displ. norm   :     0.3534240 α      lambda       -0.3490663E-03
   maximum displ.:     0.2072408 α      in ANC's #20, #21, #27, ...

........................................................................
.............................. CYCLE   50 ..............................
........................................................................
   1   -536.5067572 -0.536507E+03  0.863E-04    0.82       0.0  T
   2   -536.5067574 -0.119100E-06  0.564E-04    0.82      10.7  T
   3   -536.5067574 -0.656321E-07  0.256E-04    0.82      23.6  T
   4   -536.5067574  0.722252E-09  0.193E-04    0.82      31.3  T
   5   -536.5067574 -0.998955E-08  0.639E-05    0.82      94.6  T
     SCC iter.                  ...        0 min,  1.291 sec
     gradient                   ...        0 min,  0.592 sec
 * total energy  :  -528.7523519 Eh     change       -0.1165349E-03 Eh
   gradient norm :     0.0051345 Eh/α   predicted    -0.1963361E-03 (  68.48%)
   displ. norm   :     0.3882035 α      lambda       -0.5395270E-03
   maximum displ.:     0.2282277 α      in ANC's #20, #21, #27, ...

........................................................................
.............................. CYCLE   51 ..............................
........................................................................
   1   -536.5086776 -0.536509E+03  0.112E-03    0.83       0.0  T
   2   -536.5086778 -0.180450E-06  0.658E-04    0.83       9.2  T
   3   -536.5086779 -0.707906E-07  0.369E-04    0.83      16.4  T
   4   -536.5086779  0.108469E-08  0.298E-04    0.83      20.3  T
   5   -536.5086779 -0.491250E-07  0.945E-05    0.83      63.9  T
   6   -536.5086779 -0.583793E-08  0.282E-05    0.83     214.1  T
     SCC iter.                  ...        0 min,  1.546 sec
     gradient                   ...        0 min,  0.588 sec
 * total energy  :  -528.7525397 Eh     change       -0.1877908E-03 Eh
   gradient norm :     0.0054829 Eh/α   predicted    -0.3104201E-03 (  65.30%)
   displ. norm   :     0.2799035 α      lambda       -0.3942644E-03
   maximum displ.:     0.1651146 α      in ANC's #20, #21, #27, ...

........................................................................
.............................. CYCLE   52 ..............................
........................................................................
   1   -536.5112557 -0.536511E+03  0.955E-04    0.83       0.0  T
   2   -536.5112557 -0.803243E-07  0.577E-04    0.83      10.5  T
   3   -536.5112558 -0.131386E-07  0.360E-04    0.83      16.8  T
   4   -536.5112558 -0.497187E-08  0.208E-04    0.83      29.0  T
   5   -536.5112558 -0.218756E-07  0.853E-05    0.83      70.8  T
   6   -536.5112558 -0.623947E-08  0.197E-05    0.83     306.5  T
     SCC iter.                  ...        0 min,  1.547 sec
     gradient                   ...        0 min,  0.589 sec
 * total energy  :  -528.7527772 Eh     change       -0.2375202E-03 Eh
   gradient norm :     0.0043789 Eh/α   predicted    -0.2125800E-03 ( -10.50%)
   displ. norm   :     0.4112402 α      lambda       -0.3882908E-03
   maximum displ.:     0.2398220 α      in ANC's #20, #21, #27, ...

........................................................................
.............................. CYCLE   53 ..............................
........................................................................
   1   -536.5132433 -0.536513E+03  0.891E-04    0.83       0.0  T
   2   -536.5132433 -0.406995E-07  0.632E-04    0.83       9.6  T
   3   -536.5132434 -0.111227E-06  0.367E-04    0.83      16.4  T
   4   -536.5132434 -0.274351E-07  0.244E-04    0.83      24.7  T
   5   -536.5132435 -0.336977E-07  0.815E-05    0.83      74.1  T
   6   -536.5132435 -0.299156E-08  0.269E-05    0.83     224.3  T
     SCC iter.                  ...        0 min,  1.544 sec
     gradient                   ...        0 min,  0.588 sec
 * total energy  :  -528.7528433 Eh     change       -0.6603704E-04 Eh
   gradient norm :     0.0064707 Eh/α   predicted    -0.2269820E-03 ( 243.72%)
   displ. norm   :     0.3230454 α      lambda       -0.4369863E-03
   maximum displ.:     0.1947723 α      in ANC's #20, #21, #27, ...

........................................................................
.............................. CYCLE   54 ..............................
........................................................................
   1   -536.5150829 -0.536515E+03  0.790E-04    0.82       0.0  T
   2   -536.5150830 -0.805518E-07  0.455E-04    0.82      13.3  T
   3   -536.5150830 -0.475409E-07  0.271E-04    0.82      22.3  T
[...]
    31   6 C       33   6 C                                       1.3958790
    33   6 C       34   8 O                                       1.3700371
    33   6 C       35   6 C                                       1.3925856
    35   6 C       36   8 O                                       1.3702094
    29   6 C       37   6 C                                       1.3980095
    35   6 C       37   6 C                                       1.3890440
    28   6 C       38   6 C                                       1.3997900
    39   6 C       40   6 C                                       1.3484296
     1   6 C       41   6 C                                       1.3886330
    40   6 C       41   6 C                                       1.4520032
    38   6 C       42   7 N                                       1.3538123
    41   6 C       42   7 N                                       1.3559000
     1   6 C       43   1 H                                       1.0854333
     3   6 C       44   1 H                                       1.0783462
     4   6 C       45   1 H                                       1.0778319
     6   7 N       46   1 H                                       1.0145550
     9   6 C       47   1 H                                       1.0836715
    11   8 O       48   1 H                                       0.9661980
    13   8 O       49   1 H                                       0.9704936
    15   8 O       50   1 H                                       0.9714935
    16   6 C       51   1 H                                       1.0823648
    18   6 C       52   1 H                                       1.0780224
    19   6 C       53   1 H                                       1.0782683
    24   6 C       54   1 H                                       1.0780767
    25   6 C       55   1 H                                       1.0776968
    27   7 N       56   1 H                                       1.0147583
    30   6 C       57   1 H                                       1.0823529
    32   8 O       58   1 H                                       0.9714921
    34   8 O       59   1 H                                       0.9704932
    36   8 O       60   1 H                                       0.9661772
    37   6 C       61   1 H                                       1.0836789
    39   6 C       62   1 H                                       1.0782216
    40   6 C       63   1 H                                       1.0788275
    64   6 C       65   6 C                                       1.3888680
    65   6 C       66   6 C                                       1.4231603
    66   6 C       67   6 C                                       1.3663635
    67   6 C       68   6 C                                       1.4242670
    65   6 C       69   7 N                                       1.3663065
    68   6 C       69   7 N                                       1.3661934
    68   6 C       70   6 C                                       1.3997430
    71   6 C       72   6 C                                       1.3977730
    72   6 C       73   6 C                                       1.3891403
    73   6 C       74   8 O                                       1.3701883
    73   6 C       75   6 C                                       1.3926015
    75   6 C       76   8 O                                       1.3701267
    75   6 C       77   6 C                                       1.3957971
    77   6 C       78   8 O                                       1.3553747
    71   6 C       79   6 C                                       1.3951851
    77   6 C       79   6 C                                       1.3900707
    70   6 C       80   6 C                                       1.3972904
    80   6 C       81   6 C                                       1.4519322
    81   6 C       82   6 C                                       1.3492197
    80   6 C       83   7 N                                       1.3617047
    82   6 C       84   6 C                                       1.4499949
    83   7 N       84   6 C                                       1.3482448
    84   6 C       85   6 C                                       1.4101375
    85   6 C       86   6 C                                       1.4079083
    86   6 C       87   6 C                                       1.4202364
    87   6 C       88   6 C                                       1.3672096
    88   6 C       89   6 C                                       1.4226427
    86   6 C       90   7 N                                       1.3626108
    89   6 C       90   7 N                                       1.3705886
    89   6 C       91   6 C                                       1.3986990
    92   6 C       93   6 C                                       1.3951917
    93   6 C       94   6 C                                       1.3901281
    94   6 C       95   8 O                                       1.3551668
    94   6 C       96   6 C                                       1.3958899
    96   6 C       97   8 O                                       1.3700344
    96   6 C       98   6 C                                       1.3925707
    98   6 C       99   8 O                                       1.3702361
    92   6 C      100   6 C                                       1.3979821
    98   6 C      100   6 C                                       1.3890568
    91   6 C      101   6 C                                       1.3997155
   102   6 C      103   6 C                                       1.3484266
    64   6 C      104   6 C                                       1.3886393
   103   6 C      104   6 C                                       1.4520105
   101   6 C      105   7 N                                       1.3538276
   104   6 C      105   7 N                                       1.3558655
    64   6 C      106   1 H                                       1.0854360
    66   6 C      107   1 H                                       1.0783505
    67   6 C      108   1 H                                       1.0778382
    69   7 N      109   1 H                                       1.0145517
    72   6 C      110   1 H                                       1.0836651
    74   8 O      111   1 H                                       0.9661981
    76   8 O      112   1 H                                       0.9704815
    78   8 O      113   1 H                                       0.9714779
    79   6 C      114   1 H                                       1.0823683
    81   6 C      115   1 H                                       1.0780244
    82   6 C      116   1 H                                       1.0782777
    87   6 C      117   1 H                                       1.0780691
    88   6 C      118   1 H                                       1.0776902
    90   7 N      119   1 H                                       1.0147510
    93   6 C      120   1 H                                       1.0823483
    95   8 O      121   1 H                                       0.9714906
    97   8 O      122   1 H                                       0.9704823
    99   8 O      123   1 H                                       0.9661691
   100   6 C      124   1 H                                       1.0836820
   102   6 C      125   1 H                                       1.0782233
   103   6 C      126   1 H                                       1.0788336
   127   6 C      128   6 C                                       1.2248367
   129   6 C      130   6 C                                       1.2309357
   131   6 C      132   6 C                                       1.2310137
   133   6 C      134   6 C                                       1.2250689
   135   6 C      136   6 C                                       1.2253657
   137   6 C      138   6 C                                       1.2313363
   139   6 C      140   6 C                                       1.2314034
   141   6 C      142   6 C                                       1.2253531
   143   6 C      144   6 C                                       1.2249776
   145   6 C      146   6 C                                       1.2309471
   147   6 C      148   6 C                                       1.2308822
   149   6 C      150   6 C                                       1.2247781
   151   6 C      152   6 C                                       1.4086529
   152   6 C      153   6 C                                       1.4184929
   153   6 C      154   6 C                                       1.3684529
   154   6 C      155   6 C                                       1.4212636
   152   6 C      156   7 N                                       1.3630003
   155   6 C      156   7 N                                       1.3695730
   155   6 C      157   6 C                                       1.4009642
   158   6 C      159   6 C                                       1.3954470
   159   6 C      160   6 C                                       1.3921493
   160   6 C      161   8 O                                       1.3582409
   160   6 C      162   6 C                                       1.3988013
   162   6 C      163   8 O                                       1.3579076
   162   6 C      164   6 C                                       1.3974737
   164   6 C      165   8 O                                       1.3710451
   158   6 C      166   6 C                                       1.3963972
   164   6 C      166   6 C                                       1.3878925
   157   6 C      167   6 C                                       1.3960736
   167   6 C      168   6 C                                       1.4519559
   168   6 C      169   6 C                                       1.3492292
   167   6 C      170   7 N                                       1.3621723
   169   6 C      171   6 C                                       1.4491643
   170   7 N      171   6 C                                       1.3479479
   171   6 C      172   6 C                                       1.4101462
   172   6 C      173   6 C                                       1.4085596
   173   6 C      174   6 C                                       1.4188019
   174   6 C      175   6 C                                       1.3680422
   175   6 C      176   6 C                                       1.4215407
   173   6 C      177   7 N                                       1.3626031
   176   6 C      177   7 N                                       1.3696433
   176   6 C      178   6 C                                       1.4001755
   179   6 C      180   6 C                                       1.3951675
   180   6 C      181   6 C                                       1.3900281
   181   6 C      182   8 O                                       1.3551330
   181   6 C      183   6 C                                       1.3958453
   183   6 C      184   8 O                                       1.3698700
   183   6 C      185   6 C                                       1.3926899
   185   6 C      186   8 O                                       1.3699036
   179   6 C      187   6 C                                       1.3974996
   185   6 C      187   6 C                                       1.3892918
   178   6 C      188   6 C                                       1.3962150
   188   6 C      189   6 C                                       1.4519185
   189   6 C      190   6 C                                       1.3492766
   151   6 C      191   6 C                                       1.4096497
   190   6 C      191   6 C                                       1.4492260
   188   6 C      192   7 N                                       1.3617008
   191   6 C      192   7 N                                       1.3484458
   153   6 C      193   1 H                                       1.0780366
   154   6 C      194   1 H                                       1.0777496
   156   7 N      195   1 H                                       1.0145391
   159   6 C      196   1 H                                       1.0841483
   161   8 O      197   1 H                                       0.9662045
   163   8 O      198   1 H                                       0.9708152
   165   8 O      199   1 H                                       0.9659568 (min)
   166   6 C      200   1 H                                       1.0837188
   168   6 C      201   1 H                                       1.0778862
   169   6 C      202   1 H                                       1.0782513
   174   6 C      203   1 H                                       1.0780046
   175   6 C      204   1 H                                       1.0776641
   177   7 N      205   1 H                                       1.0144866
   180   6 C      206   1 H                                       1.0823785
   182   8 O      207   1 H                                       0.9714883
   184   8 O      208   1 H                                       0.9704786
   186   8 O      209   1 H                                       0.9662179
   187   6 C      210   1 H                                       1.0836247
   189   6 C      211   1 H                                       1.0779572
   190   6 C      212   1 H                                       1.0782680
   213   6 C      214   6 C                                       1.4088139
   214   6 C      215   6 C                                       1.4184525
   215   6 C      216   6 C                                       1.3684085
   216   6 C      217   6 C                                       1.4213109
   214   6 C      218   7 N                                       1.3626327
   217   6 C      218   7 N                                       1.3697085
   217   6 C      219   6 C                                       1.4005797
   220   6 C      221   6 C                                       1.3953348
   221   6 C      222   6 C                                       1.3921913
   222   6 C      223   8 O                                       1.3581975
   222   6 C      224   6 C                                       1.3988365
   224   6 C      225   8 O                                       1.3579013
   224   6 C      226   6 C                                       1.3974680
   226   6 C      227   8 O                                       1.3709952
   220   6 C      228   6 C                                       1.3963603
   226   6 C      228   6 C                                       1.3878962
   219   6 C      229   6 C                                       1.3962646
   229   6 C      230   6 C                                       1.4519222
   230   6 C      231   6 C                                       1.3492375
   229   6 C      232   7 N                                       1.3617305
   231   6 C      233   6 C                                       1.4492416
   232   7 N      233   6 C                                       1.3485549
   233   6 C      234   6 C                                       1.4096902
   234   6 C      235   6 C                                       1.4084228
   235   6 C      236   6 C                                       1.4188274
   236   6 C      237   6 C                                       1.3680734
   237   6 C      238   6 C                                       1.4215187
   235   6 C      239   7 N                                       1.3629246
   238   6 C      239   7 N                                       1.3695209
   238   6 C      240   6 C                                       1.4005534
   241   6 C      242   6 C                                       1.3952109
   242   6 C      243   6 C                                       1.3900331
   243   6 C      244   8 O                                       1.3551624
   243   6 C      245   6 C                                       1.3958920
   245   6 C      246   8 O                                       1.3698300
   245   6 C      247   6 C                                       1.3926601
   247   6 C      248   8 O                                       1.3699556
   241   6 C      249   6 C                                       1.3976853
   247   6 C      249   6 C                                       1.3891820
   240   6 C      250   6 C                                       1.3961091
   250   6 C      251   6 C                                       1.4520160 (max)
   251   6 C      252   6 C                                       1.3492787
   213   6 C      253   6 C                                       1.4099630
   252   6 C      253   6 C                                       1.4491648
   250   6 C      254   7 N                                       1.3619696
   253   6 C      254   7 N                                       1.3479885
   215   6 C      255   1 H                                       1.0780295
   216   6 C      256   1 H                                       1.0777460
   218   7 N      257   1 H                                       1.0145226
   221   6 C      258   1 H                                       1.0841500
   223   8 O      259   1 H                                       0.9662092
   225   8 O      260   1 H                                       0.9708369
   227   8 O      261   1 H                                       0.9659635
   228   6 C      262   1 H                                       1.0837168
   230   6 C      263   1 H                                       1.0779069
   231   6 C      264   1 H                                       1.0782391
   236   6 C      265   1 H                                       1.0780085
   237   6 C      266   1 H                                       1.0776556
   239   7 N      267   1 H                                       1.0144932
   242   6 C      268   1 H                                       1.0823767
   244   8 O      269   1 H                                       0.9714900
   246   8 O      270   1 H                                       0.9704945
   248   8 O      271   1 H                                       0.9662189
   249   6 C      272   1 H                                       1.0836353
   251   6 C      273   1 H                                       1.0779521
   252   6 C      274   1 H                                       1.0782775

 * 6 distinct bonds (by element types)

   Z      Z             #   av. dist./Å        max./Å        min./Å
   1 H    6 C          50     1.0800196     1.0854360     1.0776556
   6 C    6 C         138     1.3859870     1.4520160     1.2247781
   1 H    7 N           8     1.0145822     1.0147583     1.0144866
   6 C    7 N          32     1.3606471     1.3705904     1.3479479
   1 H    8 O          24     0.9689592     0.9714935     0.9659568
   6 C    8 O          24     1.3644271     1.3710451     1.3551330


optimized geometry written to: xtbopt.xyz


           -------------------------------------------------
          | TOTAL ENERGY             -528.755137148975 Eh   |
          | GRADIENT NORM               0.000556644916 Eh/α |
          | HOMO-LUMO GAP               0.816192292343 eV   |
           -------------------------------------------------

------------------------------------------------------------------------
 * finished run on 2022/07/29 at 22:08:36.703     
------------------------------------------------------------------------
 total:
 * wall-time:     0 d,  0 h,  4 min, 19.578 sec
 *  cpu-time:     0 d,  0 h,  4 min, 18.384 sec
 * ratio c/w:     0.995 speedup
 SCF:
 * wall-time:     0 d,  0 h,  0 min, 17.269 sec
 *  cpu-time:     0 d,  0 h,  0 min, 17.207 sec
 * ratio c/w:     0.996 speedup
 ANC optimizer:
 * wall-time:     0 d,  0 h,  4 min,  2.050 sec
 *  cpu-time:     0 d,  0 h,  4 min,  0.929 sec
 * ratio c/w:     0.995 speedup

