      -----------------------------------------------------------      
     |                   =====================                   |     
     |                           x T B                           |     
     |                   =====================                   |     
     |                         S. Grimme                         |     
     |          Mulliken Center for Theoretical Chemistry        |     
     |                    University of Bonn                     |     
      -----------------------------------------------------------      

   * xtb version 6.5.1 (b24c23e) compiled by 'conda@728c89f4b128' on 2022-07-12

   xtb is free software: you can redistribute it and/or modify it under
   the terms of the GNU Lesser General Public License as published by
   the Free Software Foundation, either version 3 of the License, or
   (at your option) any later version.
   
   xtb is distributed in the hope that it will be useful,
   but WITHOUT ANY WARRANTY; without even the implied warranty of
   MERCHANTABILITY or FITNESS FOR A PARTICULAR PURPOSE.  See the
   GNU Lesser General Public License for more details.
   
   Cite this work as:
   * C. Bannwarth, E. Caldeweyher, S. Ehlert, A. Hansen, P. Pracht,
     J. Seibert, S. Spicher, S. Grimme, WIREs Comput. Mol. Sci., 2020, 11,
     e01493. DOI: 10.1002/wcms.1493
   
   for GFN2-xTB:
   * C. Bannwarth, S. Ehlert and S. Grimme., J. Chem. Theory Comput., 2019,
     15, 1652-1671. DOI: 10.1021/acs.jctc.8b01176
   for GFN1-xTB:
   * S. Grimme, C. Bannwarth, P. Shushkov, J. Chem. Theory Comput., 2017,
     13, 1989-2009. DOI: 10.1021/acs.jctc.7b00118
   for GFN0-xTB:
   * P. Pracht, E. Caldeweyher, S. Ehlert, S. Grimme, ChemRxiv, 2019, preprint.
     DOI: 10.26434/chemrxiv.8326202.v1
   for GFN-FF:
   * S. Spicher and S. Grimme, Angew. Chem. Int. Ed., 2020, 59, 15665-15673.
     DOI: 10.1002/anie.202004239
   
   for ALPB and GBSA implicit solvation:
   * S. Ehlert, M. Stahn, S. Spicher, S. Grimme, J. Chem. Theory Comput.,
     2021, 17, 4250-4261. DOI: 10.1021/acs.jctc.1c00471
   
   for DFT-D4:
   * E. Caldeweyher, C. Bannwarth and S. Grimme, J. Chem. Phys., 2017,
     147, 034112. DOI: 10.1063/1.4993215
   * E. Caldeweyher, S. Ehlert, A. Hansen, H. Neugebauer, S. Spicher,
     C. Bannwarth and S. Grimme, J. Chem. Phys., 2019, 150, 154122.
     DOI: 10.1063/1.5090222
   * E. Caldeweyher, J.-M. Mewes, S. Ehlert and S. Grimme, Phys. Chem. Chem. Phys.
     2020, 22, 8499-8512. DOI: 10.1039/D0CP00502A
   
   for sTDA-xTB:
   * S. Grimme and C. Bannwarth, J. Chem. Phys., 2016, 145, 054103.
     DOI: 10.1063/1.4959605
   
   in the mass-spec context:
   * V. Asgeirsson, C. Bauer and S. Grimme, Chem. Sci., 2017, 8, 4879.
     DOI: 10.1039/c7sc00601b
   * J. Koopman and S. Grimme, ACS Omega 2019, 4, 12, 15120-15133.
     DOI: 10.1021/acsomega.9b02011
   
   for metadynamics refer to:
   * S. Grimme, J. Chem. Theory Comput., 2019, 155, 2847-2862
     DOI: 10.1021/acs.jctc.9b00143
   
   for SPH calculations refer to:
   * S. Spicher and S. Grimme, J. Chem. Theory Comput., 2021, 17, 1701-1714
     DOI: 10.1021/acs.jctc.0c01306
   
   with help from (in alphabetical order)
   P. Atkinson, C. Bannwarth, F. Bohle, G. Brandenburg, E. Caldeweyher
   M. Checinski, S. Dohm, S. Ehlert, S. Ehrlich, I. Gerasimov, C. Hölzer
   A. Katbashev, J. Koopman, C. Lavigne, S. Lehtola, F. März, M. Müller,
   F. Musil, H. Neugebauer, J. Pisarek, C. Plett, P. Pracht, F. Pultar,
   J. Seibert, P. Shushkov, S. Spicher, M. Stahn, M. Steiner, T. Strunk,
   J. Stückrath, T. Rose, and J. Unsleber
   
 * started run on 2022/07/29 at 22:08:36.715     

           -------------------------------------------------
          |                Calculation Setup                |
           -------------------------------------------------

          program call               : xtb xtbopt.xyz --gfn 1 --vipea
          hostname                   : cx3-5-14.cx3.hpc.ic.ac.uk
          coordinate file            : xtbopt.xyz
          omp threads                :                     1

   ID    Z sym.   atoms
    1    6 C      1-5, 7-10, 12, 14, 16-19, 21-26, 28-31, 33, 35, 37-41,
                  64-68, 70-73, 75, 77, 79-82, 84-89, 91-94, 96, 98, 100-104,
                  127-155, 157-160, 162, 164, 166-169, 171-176, 178-181, 183,
                  185, 187-191, 213-217, 219-222, 224, 226, 228-231, 233-238,
                  240-243, 245, 247, 249-253
    2    7 N      6, 20, 27, 42, 69, 83, 90, 105, 156, 170, 177, 192, 218,
                  232, 239, 254
    3    8 O      11, 13, 15, 32, 34, 36, 74, 76, 78, 95, 97, 99, 161, 163,
                  165, 182, 184, 186, 223, 225, 227, 244, 246, 248
    4    1 H      43-63, 106-126, 193-212, 255-274

           -------------------------------------------------
          |                 I P E A - x T B                 |
           -------------------------------------------------

        Reference                      10.1039/c7sc00601b
      * Hamiltonian:
        H0-scaling (s, p, d)           2.150000    2.300000    2.000000
        zeta-weighting                 0.000000
      * Dispersion:
        s8                             2.400000
        a1                             0.630000
        a2                             5.000000
        s9                             0.000000
      * Repulsion:
        kExp                           1.500000
        rExp                           1.000000
      * Coulomb:
        alpha                          1.000000
        third order                    atomic
        anisotropic                    false
      * Halogen bond correction:
        rad-scale                      1.300000
        damping                        0.440000


          ...................................................
          :                      SETUP                      :
          :.................................................:
          :  # basis functions                1124          :
          :  # atomic orbitals                1124          :
          :  # shells                          740          :
          :  # electrons                       914          :
          :  # halogen bonds                     0          :
          :  max. iterations                   250          :
          :  Hamiltonian                  GFN1-xTB          :
          :  restarted?                      false          :
          :  GBSA solvation                  false          :
          :  PC potential                    false          :
          :  electronic temp.          300.0000000     K    :
          :  accuracy                    1.0000000          :
          :  -> integral cutoff          0.2500000E+02      :
          :  -> integral neglect         0.1000000E-07      :
          :  -> SCF convergence          0.1000000E-05 Eh   :
          :  -> wf. convergence          0.2000000E-04 e    :
          :  Broyden damping             0.4000000          :
          ...................................................

 iter      E             dE          RMSdq      gap      omega  full diag
   1   -593.4536005 -0.593454E+03  0.101E+01    0.27       0.0  T
   2   -595.0990830 -0.164548E+01  0.621E+00    1.18       1.0  T
   3   -588.4358950  0.666319E+01  0.443E+00    0.44       1.0  T
   4   -596.1729766 -0.773708E+01  0.136E+00    1.21       1.0  T
   5   -597.3326480 -0.115967E+01  0.295E-01    1.05       1.0  T
   6   -597.3788057 -0.461577E-01  0.132E-01    1.06       1.0  T
   7   -597.3862015 -0.739577E-02  0.641E-02    1.05       1.0  T
   8   -597.3883709 -0.216942E-02  0.273E-02    1.04       1.0  T
   9   -597.3884746 -0.103687E-03  0.216E-02    1.05       1.0  T
  10   -597.3886449 -0.170306E-03  0.848E-03    1.05       1.0  T
  11   -597.3886726 -0.276809E-04  0.327E-03    1.05       1.8  T
  12   -597.3886767 -0.411100E-05  0.111E-03    1.05       5.5  T
  13   -597.3886773 -0.559126E-06  0.572E-04    1.05      10.6  T
  14   -597.3886774 -0.144381E-06  0.230E-04    1.05      26.2  T
  15   -597.3886774 -0.218936E-07  0.107E-04    1.05      56.4  T
  16   -597.3886774 -0.581042E-08  0.360E-05    1.05     168.0  T

   *** convergence criteria satisfied after 16 iterations ***

         #    Occupation            Energy/Eh            Energy/eV
      -------------------------------------------------------------
         1        2.0000           -1.0460212             -28.4637
       ...           ...                  ...                  ...
       451        2.0000           -0.3893450             -10.5946
       452        2.0000           -0.3887831             -10.5793
       453        2.0000           -0.3879238             -10.5559
       454        2.0000           -0.3746911             -10.1959
       455        2.0000           -0.3708349             -10.0909
       456        2.0000           -0.3678496             -10.0097
       457        2.0000           -0.3632201              -9.8837 (HOMO)
       458                         -0.3247451              -8.8368 (LUMO)
       459                         -0.3166557              -8.6166
       460                         -0.3111226              -8.4661
       461                         -0.3091761              -8.4131
       462                         -0.3061536              -8.3309
       ...                                ...                  ...
      1124                        528.2849674           14375.3657
      -------------------------------------------------------------
                  HL-Gap            0.0384750 Eh            1.0470 eV
             Fermi-level           -0.3439790 Eh           -9.3601 eV

 SCC (total)                   0 d,  0 h,  0 min,  8.818 sec
 SCC setup                      ...        0 min,  0.008 sec (  0.094%)
 Dispersion                     ...        0 min,  0.011 sec (  0.124%)
 classical contributions        ...        0 min,  0.003 sec (  0.035%)
 integral evaluation            ...        0 min,  0.692 sec (  7.846%)
 iterations                     ...        0 min,  6.674 sec ( 75.692%)
 molecular gradient             ...        0 min,  1.343 sec ( 15.228%)
 printout                       ...        0 min,  0.087 sec (  0.981%)

         :::::::::::::::::::::::::::::::::::::::::::::::::::::
         ::                     SUMMARY                     ::
         :::::::::::::::::::::::::::::::::::::::::::::::::::::
         :: total energy            -586.614408815305 Eh    ::
         :: gradient norm              0.104895860855 Eh/a0 ::
         :: HOMO-LUMO gap              1.046957448514 eV    ::
         ::.................................................::
         :: SCC energy              -597.388677440062 Eh    ::
         :: -> electrostatic           0.589060964191 Eh    ::
         :: repulsion energy          11.002588402407 Eh    ::
         :: dispersion energy         -0.228319777650 Eh    ::
         :: halogen bond corr.         0.000000000000 Eh    ::
         :: add. restraining           0.000000000000 Eh    ::
         :: total charge               0.000000000025 e     ::
         :::::::::::::::::::::::::::::::::::::::::::::::::::::

           ------------------------------------------------- 
          |        vertical delta SCC IP calculation        |
           ------------------------------------------------- 
   1   -596.9985962 -0.596999E+03  0.761E-02    1.05       0.0  T
   2   -596.9908740  0.772213E-02  0.102E-01    0.93       1.0  T
   3   -597.0035336 -0.126596E-01  0.421E-02    1.03       1.0  T
   4   -597.0013305  0.220309E-02  0.487E-02    1.01       1.0  T
   5   -597.0031408 -0.181027E-02  0.356E-02    1.02       1.0  T
   6   -597.0050024 -0.186158E-02  0.150E-02    1.03       1.0  T
   7   -597.0051277 -0.125371E-03  0.108E-02    1.02       1.0  T
   8   -597.0052918 -0.164066E-03  0.391E-03    1.02       1.5  T
   9   -597.0053017 -0.985535E-05  0.146E-03    1.02       4.1  T
  10   -597.0053024 -0.781833E-06  0.696E-04    1.02       8.7  T
  11   -597.0053028 -0.372763E-06  0.382E-04    1.02      15.8  T
  12   -597.0053029 -0.903485E-07  0.173E-04    1.02      34.9  T
  13   -597.0053029 -0.891714E-08  0.100E-04    1.02      60.2  T
     SCC iter.                  ...        0 min,  5.397 sec
     gradient                   ...        0 min,  1.328 sec
------------------------------------------------------------------------
empirical IP shift (eV):    4.8455
delta SCC IP (eV):    5.5866
------------------------------------------------------------------------
           ------------------------------------------------- 
          |        vertical delta SCC EA calculation        |
           ------------------------------------------------- 
   1   -597.6699921 -0.597670E+03  0.137E-01    0.24       0.0  T
   2   -597.6677571  0.223494E-02  0.140E-01    0.04       1.0  T
   3   -597.6845031 -0.167460E-01  0.806E-02    0.18       1.0  T
   4   -597.6894335 -0.493033E-02  0.516E-02    0.10       1.0  T
   5   -597.6893368  0.966890E-04  0.341E-02    0.10       1.0  T
   6   -597.6865430  0.279381E-02  0.443E-02    0.12       1.0  T
   7   -597.6895023 -0.295933E-02  0.250E-02    0.11       1.0  T
   8   -597.6903267 -0.824351E-03  0.758E-03    0.11       1.0  T
   9   -597.6904149 -0.882777E-04  0.302E-03    0.10       2.0  T
  10   -597.6904208 -0.591176E-05  0.130E-03    0.10       4.6  T
  11   -597.6904216 -0.795795E-06  0.695E-04    0.10       8.7  T
  12   -597.6904219 -0.243414E-06  0.454E-04    0.10      13.3  T
  13   -597.6904220 -0.116920E-06  0.192E-04    0.10      31.5  T
  14   -597.6904220 -0.106612E-07  0.950E-05    0.10      63.6  T
     SCC iter.                  ...        0 min,  5.793 sec
     gradient                   ...        0 min,  1.322 sec
------------------------------------------------------------------------
empirical EA shift (eV):    4.8455
delta SCC EA (eV):    3.3654
------------------------------------------------------------------------
           -------------------------------------------------
          |                Property Printout                |
           -------------------------------------------------

    * Orbital Energies and Occupations

         #    Occupation            Energy/Eh            Energy/eV
      -------------------------------------------------------------
         1        2.0000           -1.0150509             -27.6209
       ...           ...                  ...                  ...
       446        2.0000           -0.3550186              -9.6605
       447        2.0000           -0.3543912              -9.6435
       448        2.0000           -0.3541415              -9.6367
       449        2.0000           -0.3523271              -9.5873
       450        2.0000           -0.3521131              -9.5815
       451        2.0000           -0.3514596              -9.5637
       452        2.0000           -0.3470458              -9.4436
       453        2.0000           -0.3468504              -9.4383
       454        2.0000           -0.3348108              -9.1107
       455        2.0000           -0.3336055              -9.0779
       456        2.0000           -0.3271251              -8.9015
       457        2.0000           -0.3189411              -8.6788
       458        0.8809           -0.2801194              -7.6224 (HOMO)
       459        0.1159           -0.2762880              -7.5182 (LUMO)
       460        0.0031           -0.2727237              -7.4212
       461        0.0001           -0.2693288              -7.3288
       462        0.0001           -0.2690420              -7.3210
       463        0.0000           -0.2664985              -7.2518
       464                         -0.2617669              -7.1230
       465                         -0.2615233              -7.1164
       466                         -0.2379857              -6.4759
       467                         -0.2309752              -6.2852
       468                         -0.2299051              -6.2560
       469                         -0.2287654              -6.2250
       ...                                ...                  ...
      1124                        528.3289614           14376.5628
      -------------------------------------------------------------
                  HL-Gap            0.0038314 Eh            0.1043 eV
             Fermi-level           -0.2888786 Eh           -7.8608 eV

  Mulliken/CM5 charges         n(s)   n(p)   n(d)
     1C    -0.02566 -0.06650   1.086  2.940  0.000
     2C     0.06098  0.12139   1.105  2.834  0.000
     3C    -0.03706 -0.08237   1.080  2.957  0.000
     4C    -0.03390 -0.07889   1.075  2.959  0.000
     5C     0.06102  0.12493   1.100  2.839  0.000
     6N    -0.16063 -0.51355   1.313  3.848  0.000
     7C     0.00862  0.01440   1.090  2.901  0.000
     8C    -0.00338 -0.01140   1.077  2.927  0.000
     9C    -0.04664 -0.09606   1.051  2.996  0.000
    10C     0.07324  0.08831   1.104  2.822  0.000
    11O    -0.30215 -0.50570   1.624  4.679  0.000
    12C     0.06731  0.08710   1.092  2.840  0.000
    13O    -0.30148 -0.50137   1.622  4.679  0.000
    14C     0.08164  0.09874   1.115  2.803  0.000
    15O    -0.29372 -0.48893   1.629  4.665  0.000
    16C    -0.04106 -0.08918   1.060  2.981  0.000
    17C     0.05690  0.12490   1.117  2.826  0.000
    18C    -0.03985 -0.08584   1.084  2.956  0.000
    19C    -0.03991 -0.08534   1.090  2.950  0.000
    20N    -0.28692 -0.47360   1.293  3.993  0.000
    21C     0.06339  0.13423   1.129  2.807  0.000
    22C     0.01456  0.02174   1.082  2.903  0.000
    23C     0.06578  0.13074   1.109  2.825  0.000
    24C    -0.03486 -0.07928   1.079  2.956  0.000
    25C    -0.03386 -0.07885   1.074  2.960  0.000
    26C     0.06029  0.12354   1.098  2.842  0.000
    27N    -0.15806 -0.51019   1.315  3.843  0.000
    28C     0.00765  0.01349   1.090  2.902  0.000
    29C    -0.00340 -0.01140   1.077  2.927  0.000
    30C    -0.04052 -0.08864   1.060  2.980  0.000
    31C     0.08204  0.09915   1.115  2.803  0.000
    32O    -0.29292 -0.48813   1.629  4.664  0.000
    33C     0.06719  0.08699   1.092  2.840  0.000
    34O    -0.30144 -0.50134   1.622  4.679  0.000
    35C     0.07273  0.08779   1.104  2.823  0.000
    36O    -0.30285 -0.50641   1.624  4.679  0.000
    37C    -0.04730 -0.09673   1.051  2.996  0.000
    38C     0.05838  0.12777   1.120  2.822  0.000
    39C    -0.04008 -0.08606   1.086  2.954  0.000
    40C    -0.04202 -0.08840   1.091  2.951  0.000
    41C     0.05751  0.12316   1.125  2.818  0.000
    42N    -0.28996 -0.47706   1.293  3.997  0.000
    43H     0.02537  0.08440   0.975  0.000  0.000
    44H     0.03666  0.09334   0.963  0.000  0.000
    45H     0.03120  0.09002   0.969  0.000  0.000
    46H     0.16268  0.37106   0.837  0.000  0.000
    47H     0.03167  0.09193   0.968  0.000  0.000
    48H     0.23283  0.40533   0.767  0.000  0.000
    49H     0.23859  0.41794   0.761  0.000  0.000
    50H     0.23362  0.41303   0.766  0.000  0.000
    51H     0.03304  0.09389   0.967  0.000  0.000
    52H     0.02133  0.08012   0.979  0.000  0.000
    53H     0.02320  0.08129   0.977  0.000  0.000
    54H     0.03320  0.09130   0.967  0.000  0.000
    55H     0.03179  0.09064   0.968  0.000  0.000
    56H     0.16135  0.36969   0.839  0.000  0.000
    57H     0.03396  0.09480   0.966  0.000  0.000
    58H     0.23387  0.41328   0.766  0.000  0.000
    59H     0.23815  0.41750   0.762  0.000  0.000
    60H     0.23178  0.40429   0.768  0.000  0.000
    61H     0.03062  0.09090   0.969  0.000  0.000
    62H     0.02059  0.07929   0.979  0.000  0.000
    63H     0.02658  0.08300   0.973  0.000  0.000
    64C    -0.02535 -0.06618   1.086  2.939  0.000
    65C     0.06103  0.12143   1.105  2.834  0.000
    66C    -0.03689 -0.08220   1.080  2.957  0.000
    67C    -0.03384 -0.07882   1.075  2.959  0.000
    68C     0.06119  0.12511   1.100  2.839  0.000
    69N    -0.16051 -0.51342   1.313  3.848  0.000
    70C     0.00864  0.01442   1.090  2.901  0.000
    71C    -0.00338 -0.01141   1.077  2.927  0.000
    72C    -0.04667 -0.09611   1.051  2.996  0.000
    73C     0.07325  0.08831   1.104  2.822  0.000
    74O    -0.30215 -0.50570   1.624  4.679  0.000
    75C     0.06730  0.08709   1.092  2.840  0.000
    76O    -0.30149 -0.50138   1.622  4.679  0.000
    77C     0.08167  0.09877   1.115  2.803  0.000
    78O    -0.29369 -0.48889   1.629  4.664  0.000
    79C    -0.04104 -0.08916   1.060  2.981  0.000
    80C     0.05712  0.12513   1.117  2.826  0.000
    81C    -0.03974 -0.08573   1.084  2.956  0.000
    82C    -0.03968 -0.08512   1.090  2.949  0.000
    83N    -0.28687 -0.47350   1.293  3.993  0.000
    84C     0.06348  0.13430   1.129  2.807  0.000
    85C     0.01486  0.02204   1.083  2.903  0.000
    86C     0.06597  0.13093   1.109  2.825  0.000
    87C    -0.03449 -0.07892   1.079  2.956  0.000
    88C    -0.03358 -0.07857   1.074  2.960  0.000
    89C     0.06055  0.12379   1.098  2.841  0.000
    90N    -0.15797 -0.51009   1.315  3.843  0.000
    91C     0.00786  0.01371   1.090  2.902  0.000
    92C    -0.00343 -0.01144   1.077  2.927  0.000
    93C    -0.04048 -0.08860   1.060  2.980  0.000
    94C     0.08217  0.09928   1.115  2.803  0.000
    95O    -0.29272 -0.48793   1.629  4.664  0.000
    96C     0.06729  0.08709   1.092  2.840  0.000
    97O    -0.30131 -0.50120   1.622  4.679  0.000
    98C     0.07276  0.08782   1.104  2.823  0.000
    99O    -0.30279 -0.50635   1.624  4.679  0.000
   100C    -0.04733 -0.09676   1.051  2.996  0.000
   101C     0.05855  0.12794   1.120  2.822  0.000
   102C    -0.03996 -0.08594   1.086  2.954  0.000
   103C    -0.04188 -0.08825   1.091  2.950  0.000
   104C     0.05759  0.12325   1.125  2.818  0.000
   105N    -0.28975 -0.47686   1.293  3.997  0.000
   106H     0.02557  0.08460   0.974  0.000  0.000
   107H     0.03680  0.09349   0.963  0.000  0.000
   108H     0.03131  0.09013   0.969  0.000  0.000
   109H     0.16277  0.37114   0.837  0.000  0.000
   110H     0.03169  0.09193   0.968  0.000  0.000
   111H     0.23283  0.40533   0.767  0.000  0.000
   112H     0.23858  0.41793   0.761  0.000  0.000
   113H     0.23364  0.41306   0.766  0.000  0.000
   114H     0.03312  0.09397   0.967  0.000  0.000
   115H     0.02152  0.08030   0.978  0.000  0.000
   116H     0.02343  0.08152   0.977  0.000  0.000
   117H     0.03366  0.09177   0.966  0.000  0.000
   118H     0.03219  0.09105   0.968  0.000  0.000
   119H     0.16144  0.36977   0.839  0.000  0.000
   120H     0.03410  0.09493   0.966  0.000  0.000
   121H     0.23404  0.41346   0.766  0.000  0.000
   122H     0.23823  0.41757   0.762  0.000  0.000
   123H     0.23180  0.40432   0.768  0.000  0.000
   124H     0.03066  0.09093   0.969  0.000  0.000
   125H     0.02078  0.07948   0.979  0.000  0.000
   126H     0.02674  0.08317   0.973  0.000  0.000
   127C    -0.01967 -0.02131   1.091  2.929  0.000
   128C    -0.02221 -0.02298   1.061  2.962  0.000
   129C    -0.01906 -0.01916   1.075  2.944  0.000
   130C    -0.01801 -0.01802   1.077  2.941  0.000
   131C    -0.02091 -0.02092   1.075  2.946  0.000
   132C    -0.01623 -0.01632   1.078  2.938  0.000
   133C    -0.02518 -0.02592   1.059  2.967  0.000
   134C    -0.01699 -0.01858   1.095  2.922  0.000
   135C    -0.01853 -0.02012   1.093  2.926  0.000
   136C    -0.02384 -0.02458   1.059  2.964  0.000
   137C    -0.01796 -0.01805   1.076  2.942  0.000
   138C    -0.01994 -0.01995   1.076  2.944  0.000
   139C    -0.01987 -0.01988   1.076  2.944  0.000
   140C    -0.01834 -0.01843   1.076  2.942  0.000
   141C    -0.02405 -0.02478   1.060  2.964  0.000
   142C    -0.01898 -0.02056   1.092  2.927  0.000
   143C    -0.01622 -0.01780   1.095  2.921  0.000
   144C    -0.02441 -0.02515   1.059  2.966  0.000
   145C    -0.01536 -0.01545   1.078  2.937  0.000
   146C    -0.02025 -0.02026   1.075  2.946  0.000
   147C    -0.01728 -0.01729   1.077  2.940  0.000
   148C    -0.01860 -0.01869   1.075  2.943  0.000
   149C    -0.02170 -0.02247   1.061  2.961  0.000
   150C    -0.01942 -0.02106   1.091  2.928  0.000
   151C     0.01049  0.01771   1.079  2.910  0.000
   152C     0.06456  0.12945   1.109  2.826  0.000
   153C    -0.03811 -0.08255   1.077  2.961  0.000
   154C    -0.03615 -0.08110   1.074  2.962  0.000
   155C     0.05746  0.12081   1.096  2.847  0.000
   156N    -0.15818 -0.51049   1.314  3.844  0.000
   157C     0.00988  0.01557   1.092  2.898  0.000
   158C    -0.00449 -0.01267   1.075  2.930  0.000
   159C    -0.04574 -0.09515   1.051  2.995  0.000
   160C     0.08197  0.09929   1.113  2.805  0.000
   161O    -0.29364 -0.49059   1.624  4.669  0.000
   162C     0.07709  0.09934   1.102  2.821  0.000
   163O    -0.29417 -0.48676   1.626  4.668  0.000
   164C     0.07204  0.08708   1.105  2.823  0.000
   165O    -0.30180 -0.50678   1.622  4.680  0.000
   166C    -0.04742 -0.09684   1.049  2.998  0.000
   167C     0.05514  0.12306   1.115  2.830  0.000
   168C    -0.04038 -0.08642   1.084  2.956  0.000
   169C    -0.04121 -0.08666   1.089  2.952  0.000
   170N    -0.28722 -0.47339   1.293  3.994  0.000
   171C     0.06285  0.13374   1.130  2.808  0.000
   172C     0.01243  0.01966   1.081  2.907  0.000
   173C     0.06514  0.13009   1.109  2.826  0.000
   174C    -0.03674 -0.08118   1.078  2.959  0.000
   175C    -0.03465 -0.07960   1.074  2.961  0.000
   176C     0.05863  0.12198   1.096  2.846  0.000
   177N    -0.15741 -0.50981   1.314  3.843  0.000
   178C     0.01043  0.01613   1.092  2.898  0.000
   179C    -0.00272 -0.01082   1.077  2.925  0.000
   180C    -0.04040 -0.08849   1.061  2.980  0.000
   181C     0.08183  0.09895   1.115  2.803  0.000
   182O    -0.29338 -0.48859   1.629  4.664  0.000
   183C     0.06702  0.08683   1.092  2.841  0.000
   184O    -0.30193 -0.50183   1.622  4.680  0.000
   185C     0.07297  0.08805   1.104  2.823  0.000
   186O    -0.30277 -0.50633   1.624  4.679  0.000
   187C    -0.04649 -0.09597   1.050  2.996  0.000
   188C     0.05555  0.12356   1.115  2.830  0.000
   189C    -0.04049 -0.08649   1.085  2.956  0.000
   190C    -0.04173 -0.08718   1.089  2.952  0.000
   191C     0.06254  0.13334   1.130  2.808  0.000
   192N    -0.28778 -0.47393   1.293  3.995  0.000
   193H     0.03053  0.08860   0.969  0.000  0.000
   194H     0.02928  0.08817   0.971  0.000  0.000
   195H     0.16121  0.36915   0.839  0.000  0.000
   196H     0.03163  0.09222   0.968  0.000  0.000
   197H     0.23017  0.40287   0.770  0.000  0.000
   198H     0.23494  0.41569   0.765  0.000  0.000
   199H     0.23254  0.40518   0.767  0.000  0.000
   200H     0.03152  0.09176   0.968  0.000  0.000
   201H     0.02106  0.07996   0.979  0.000  0.000
   202H     0.02179  0.07982   0.978  0.000  0.000
   203H     0.03144  0.08953   0.969  0.000  0.000
   204H     0.03023  0.08915   0.970  0.000  0.000
   205H     0.16115  0.36912   0.839  0.000  0.000
   206H     0.03340  0.09423   0.967  0.000  0.000
   207H     0.23319  0.41259   0.767  0.000  0.000
   208H     0.23773  0.41709   0.762  0.000  0.000
   209H     0.23201  0.40450   0.768  0.000  0.000
   210H     0.03119  0.09140   0.969  0.000  0.000
   211H     0.01959  0.07844   0.980  0.000  0.000
   212H     0.02064  0.07867   0.979  0.000  0.000
   213C     0.01230  0.01953   1.081  2.907  0.000
   214C     0.06468  0.12963   1.109  2.826  0.000
   215C    -0.03745 -0.08189   1.078  2.960  0.000
   216C    -0.03605 -0.08099   1.074  2.962  0.000
   217C     0.05779  0.12113   1.096  2.846  0.000
   218N    -0.15767 -0.51005   1.315  3.843  0.000
   219C     0.00966  0.01535   1.092  2.899  0.000
   220C    -0.00454 -0.01273   1.074  2.930  0.000
   221C    -0.04590 -0.09528   1.051  2.995  0.000
   222C     0.08189  0.09921   1.113  2.806  0.000
   223O    -0.29374 -0.49068   1.624  4.670  0.000
   224C     0.07709  0.09934   1.102  2.821  0.000
   225O    -0.29420 -0.48678   1.626  4.668  0.000
   226C     0.07218  0.08722   1.105  2.823  0.000
   227O    -0.30159 -0.50657   1.622  4.680  0.000
   228C    -0.04735 -0.09678   1.049  2.998  0.000
   229C     0.05543  0.12343   1.116  2.829  0.000
   230C    -0.04016 -0.08617   1.085  2.955  0.000
   231C    -0.04131 -0.08676   1.089  2.952  0.000
   232N    -0.28779 -0.47392   1.293  3.995  0.000
   233C     0.06283  0.13360   1.130  2.807  0.000
   234C     0.01112  0.01835   1.079  2.909  0.000
   235C     0.06518  0.13009   1.109  2.825  0.000
   236C    -0.03716 -0.08160   1.077  2.960  0.000
   237C    -0.03453 -0.07949   1.074  2.960  0.000
   238C     0.05855  0.12192   1.096  2.846  0.000
   239N    -0.15778 -0.51015   1.314  3.844  0.000
   240C     0.01076  0.01646   1.092  2.897  0.000
   241C    -0.00271 -0.01081   1.077  2.926  0.000
   242C    -0.04042 -0.08853   1.060  2.980  0.000
   243C     0.08175  0.09886   1.115  2.803  0.000
   244O    -0.29360 -0.48881   1.629  4.664  0.000
   245C     0.06715  0.08695   1.092  2.841  0.000
   246O    -0.30185 -0.50175   1.622  4.679  0.000
   247C     0.07312  0.08819   1.104  2.823  0.000
   248O    -0.30257 -0.50613   1.623  4.679  0.000
   249C    -0.04629 -0.09578   1.051  2.996  0.000
   250C     0.05552  0.12348   1.115  2.830  0.000
   251C    -0.04042 -0.08644   1.084  2.956  0.000
   252C    -0.04133 -0.08678   1.089  2.952  0.000
   253C     0.06270  0.13358   1.129  2.808  0.000
   254N    -0.28697 -0.47319   1.293  3.994  0.000
   255H     0.03140  0.08948   0.969  0.000  0.000
   256H     0.02972  0.08863   0.970  0.000  0.000
   257H     0.16123  0.36919   0.839  0.000  0.000
   258H     0.03152  0.09208   0.968  0.000  0.000
   259H     0.23002  0.40272   0.770  0.000  0.000
   260H     0.23506  0.41581   0.765  0.000  0.000
   261H     0.23282  0.40545   0.767  0.000  0.000
   262H     0.03175  0.09198   0.968  0.000  0.000
   263H     0.02106  0.07990   0.979  0.000  0.000
   264H     0.02143  0.07946   0.979  0.000  0.000
   265H     0.03081  0.08889   0.969  0.000  0.000
   266H     0.03002  0.08894   0.970  0.000  0.000
   267H     0.16125  0.36922   0.839  0.000  0.000
   268H     0.03327  0.09411   0.967  0.000  0.000
   269H     0.23312  0.41253   0.767  0.000  0.000
   270H     0.23792  0.41727   0.762  0.000  0.000
   271H     0.23226  0.40475   0.768  0.000  0.000
   272H     0.03139  0.09164   0.969  0.000  0.000
   273H     0.01997  0.07884   0.980  0.000  0.000
   274H     0.02152  0.07955   0.978  0.000  0.000

Wiberg/Mayer (AO) data.
largest (>0.10) Wiberg bond orders for each atom

 ---------------------------------------------------------------------------
     #   Z sym  total        # sym  WBO       # sym  WBO       # sym  WBO
 ---------------------------------------------------------------------------
     1   6 C    3.803 --    41 C    1.383     2 C    1.370    43 H    0.996
     2   6 C    3.924 --     1 C    1.370     3 C    1.241     6 N    1.231
     3   6 C    3.834 --     4 C    1.595     2 C    1.241    44 H    0.993
     4   6 C    3.822 --     3 C    1.595     5 C    1.254    45 H    1.000
     5   6 C    3.894 --     7 C    1.342     4 C    1.254     6 N    1.227
     6   7 N    3.246 --     2 C    1.231     5 C    1.227    46 H    0.961
     7   6 C    3.836 --    17 C    1.369     5 C    1.342     8 C    1.053
     8   6 C    3.891 --    16 C    1.411     9 C    1.404     7 C    1.053
     9   6 C    3.817 --     8 C    1.404    10 C    1.401    47 H    0.992
    10   6 C    3.939 --     9 C    1.401    12 C    1.368    11 O    1.094
    11   8 O    2.113 --    10 C    1.094    48 H    0.962
    12   6 C    3.913 --    10 C    1.368    14 C    1.358    13 O    1.091
    13   8 O    2.103 --    12 C    1.091    49 H    0.961
    14   6 C    3.977 --    16 C    1.393    12 C    1.358    15 O    1.125
    15   8 O    2.159 --    14 C    1.125    50 H    0.963
    16   6 C    3.840 --     8 C    1.411    14 C    1.393    51 H    0.993
    17   6 C    3.922 --     7 C    1.369    20 N    1.352    18 C    1.164
    18   6 C    3.838 --    19 C    1.689    17 C    1.164    52 H    1.000
    19   6 C    3.848 --    18 C    1.689    21 C    1.167    53 H    0.999
    20   7 N    2.562 --    21 C    1.415    17 C    1.352
    21   6 C    3.941 --    20 N    1.415    22 C    1.283    19 C    1.167
    22   6 C    3.835 --    21 C    1.283    23 C    1.282   127 C    1.224
    23   6 C    3.901 --    22 C    1.282    24 C    1.268    27 N    1.251
    24   6 C    3.829 --    25 C    1.580    23 C    1.268    54 H    0.998
    25   6 C    3.812 --    24 C    1.580    26 C    1.262    55 H    0.999
    26   6 C    3.889 --    28 C    1.343    25 C    1.262    27 N    1.219
    27   7 N    3.259 --    23 C    1.251    26 C    1.219    56 H    0.960
    28   6 C    3.820 --    38 C    1.358    26 C    1.343    29 C    1.054
    29   6 C    3.891 --    30 C    1.411    37 C    1.403    28 C    1.054
    30   6 C    3.839 --    29 C    1.411    31 C    1.393    57 H    0.993
    31   6 C    3.977 --    30 C    1.393    33 C    1.357    32 O    1.125
    32   8 O    2.160 --    31 C    1.125    58 H    0.963
    33   6 C    3.912 --    35 C    1.369    31 C    1.357    34 O    1.090
    34   8 O    2.103 --    33 C    1.090    59 H    0.961
    35   6 C    3.938 --    37 C    1.401    33 C    1.369    36 O    1.093
    36   8 O    2.112 --    35 C    1.093    60 H    0.963
    37   6 C    3.816 --    29 C    1.403    35 C    1.401    61 H    0.992
    38   6 C    3.942 --    42 N    1.378    28 C    1.358    39 C    1.155
    39   6 C    3.843 --    40 C    1.704    38 C    1.155    62 H    1.000
    40   6 C    3.860 --    39 C    1.704    41 C    1.148    63 H    0.994
    41   6 C    3.967 --     1 C    1.383    42 N    1.375    40 C    1.148
    42   7 N    2.545 --    38 C    1.378    41 C    1.375
    43   1 H    1.034 --     1 C    0.996
    44   1 H    1.017 --     3 C    0.993
    45   1 H    1.027 --     4 C    1.000
    46   1 H    1.083 --     6 N    0.961
    47   1 H    1.025 --     9 C    0.992
    48   1 H    0.996 --    11 O    0.962
    49   1 H    0.991 --    13 O    0.961
    50   1 H    0.996 --    15 O    0.963
    51   1 H    1.032 --    16 C    0.993
    52   1 H    1.029 --    18 C    1.000
    53   1 H    1.033 --    19 C    0.999
    54   1 H    1.030 --    24 C    0.998
    55   1 H    1.027 --    25 C    0.999
    56   1 H    1.087 --    27 N    0.960
    57   1 H    1.032 --    30 C    0.993
    58   1 H    0.995 --    32 O    0.963
    59   1 H    0.992 --    34 O    0.961
    60   1 H    0.997 --    36 O    0.963
    61   1 H    1.025 --    37 C    0.992
    62   1 H    1.029 --    39 C    1.000
    63   1 H    1.019 --    40 C    0.994
    64   6 C    3.804 --   104 C    1.383    65 C    1.371   106 H    0.996
    65   6 C    3.924 --    64 C    1.371    66 C    1.241    69 N    1.230
    66   6 C    3.835 --    67 C    1.596    65 C    1.241   107 H    0.993
    67   6 C    3.822 --    66 C    1.596    68 C    1.254   108 H    1.000
    68   6 C    3.895 --    70 C    1.342    67 C    1.254    69 N    1.227
    69   7 N    3.246 --    65 C    1.230    68 C    1.227   109 H    0.961
    70   6 C    3.836 --    80 C    1.369    68 C    1.342    71 C    1.053
    71   6 C    3.891 --    79 C    1.411    72 C    1.404    70 C    1.053
    72   6 C    3.817 --    71 C    1.404    73 C    1.401   110 H    0.992
    73   6 C    3.939 --    72 C    1.401    75 C    1.369    74 O    1.094
    74   8 O    2.113 --    73 C    1.094   111 H    0.962
    75   6 C    3.913 --    73 C    1.369    77 C    1.358    76 O    1.091
    76   8 O    2.103 --    75 C    1.091   112 H    0.961
    77   6 C    3.977 --    79 C    1.393    75 C    1.358    78 O    1.125
    78   8 O    2.159 --    77 C    1.125   113 H    0.963
    79   6 C    3.840 --    71 C    1.411    77 C    1.393   114 H    0.993
    80   6 C    3.922 --    70 C    1.369    83 N    1.352    81 C    1.164
    81   6 C    3.838 --    82 C    1.690    80 C    1.164   115 H    0.999
    82   6 C    3.848 --    81 C    1.690    84 C    1.167   116 H    0.999
    83   7 N    2.562 --    84 C    1.415    80 C    1.352
    84   6 C    3.941 --    83 N    1.415    85 C    1.284    82 C    1.167
    85   6 C    3.836 --    84 C    1.284    86 C    1.283   150 C    1.222
    86   6 C    3.901 --    85 C    1.283    87 C    1.268    90 N    1.251
    87   6 C    3.830 --    88 C    1.581    86 C    1.268   117 H    0.998
    88   6 C    3.813 --    87 C    1.581    89 C    1.261   118 H    0.999
    89   6 C    3.890 --    91 C    1.344    88 C    1.261    90 N    1.219
    90   7 N    3.259 --    86 C    1.251    89 C    1.219   119 H    0.960
    91   6 C    3.821 --   101 C    1.358    89 C    1.344    92 C    1.054
    92   6 C    3.890 --    93 C    1.411   100 C    1.403    91 C    1.054
    93   6 C    3.839 --    92 C    1.411    94 C    1.393   120 H    0.993
    94   6 C    3.977 --    93 C    1.393    96 C    1.357    95 O    1.126
    95   8 O    2.160 --    94 C    1.126   121 H    0.963
    96   6 C    3.912 --    98 C    1.369    94 C    1.357    97 O    1.091
    97   8 O    2.103 --    96 C    1.091   122 H    0.961
    98   6 C    3.938 --   100 C    1.401    96 C    1.369    99 O    1.093
    99   8 O    2.112 --    98 C    1.093   123 H    0.963
   100   6 C    3.816 --    92 C    1.403    98 C    1.401   124 H    0.992
   101   6 C    3.943 --   105 N    1.379    91 C    1.358   102 C    1.155
   102   6 C    3.843 --   103 C    1.704   101 C    1.155   125 H    1.000
   103   6 C    3.860 --   102 C    1.704   104 C    1.148   126 H    0.994
   104   6 C    3.967 --    64 C    1.383   105 N    1.375   103 C    1.148
   105   7 N    2.546 --   101 C    1.379   104 C    1.375
   106   1 H    1.034 --    64 C    0.996
   107   1 H    1.017 --    66 C    0.993
   108   1 H    1.027 --    67 C    1.000
   109   1 H    1.083 --    69 N    0.961
   110   1 H    1.025 --    72 C    0.992
   111   1 H    0.996 --    74 O    0.962
   112   1 H    0.991 --    76 O    0.961
   113   1 H    0.995 --    78 O    0.963
   114   1 H    1.032 --    79 C    0.993
   115   1 H    1.029 --    81 C    0.999
   116   1 H    1.033 --    82 C    0.999
   117   1 H    1.030 --    87 C    0.998
   118   1 H    1.027 --    88 C    0.999
   119   1 H    1.087 --    90 N    0.960
   120   1 H    1.032 --    93 C    0.993
   121   1 H    0.995 --    95 O    0.963
   122   1 H    0.992 --    97 O    0.961
   123   1 H    0.997 --    99 O    0.963
   124   1 H    1.025 --   100 C    0.992
   125   1 H    1.029 --   102 C    1.000
   126   1 H    1.019 --   103 C    0.994
   127   6 C    3.752 --   128 C    2.458    22 C    1.224   130 C    0.166
   128   6 C    3.806 --   127 C    2.458   129 C    1.366
   129   6 C    3.799 --   130 C    2.339   128 C    1.366   132 C    0.160
   130   6 C    3.836 --   129 C    2.339   131 C    1.394   127 C    0.166
   131   6 C    3.834 --   132 C    2.337   130 C    1.394   134 C    0.165
   132   6 C    3.802 --   131 C    2.337   133 C    1.369   129 C    0.160
   133   6 C    3.802 --   134 C    2.452   132 C    1.369
   134   6 C    3.754 --   133 C    2.452   151 C    1.229   131 C    0.165
   135   6 C    3.752 --   136 C    2.444   172 C    1.236   138 C    0.164
   136   6 C    3.801 --   135 C    2.444   137 C    1.376
   137   6 C    3.800 --   138 C    2.328   136 C    1.376   140 C    0.158
   138   6 C    3.833 --   137 C    2.328   139 C    1.403   135 C    0.164
   139   6 C    3.833 --   140 C    2.328   138 C    1.403   142 C    0.164
   140   6 C    3.800 --   139 C    2.328   141 C    1.375   137 C    0.158
   141   6 C    3.801 --   142 C    2.444   140 C    1.375
   142   6 C    3.752 --   141 C    2.444   213 C    1.236   139 C    0.164
   143   6 C    3.754 --   144 C    2.454   234 C    1.228   146 C    0.165
   144   6 C    3.802 --   143 C    2.454   145 C    1.368
   145   6 C    3.802 --   146 C    2.339   144 C    1.368   148 C    0.160
   146   6 C    3.834 --   145 C    2.339   147 C    1.393   143 C    0.165
   147   6 C    3.836 --   148 C    2.341   146 C    1.393   150 C    0.166
   148   6 C    3.800 --   147 C    2.341   149 C    1.364   145 C    0.160
   149   6 C    3.806 --   150 C    2.460   148 C    1.364
   150   6 C    3.752 --   149 C    2.460    85 C    1.222   147 C    0.166
   151   6 C    3.816 --   191 C    1.279   152 C    1.275   134 C    1.229
   152   6 C    3.903 --   151 C    1.275   153 C    1.274   156 N    1.252
   153   6 C    3.823 --   154 C    1.571   152 C    1.274   193 H    0.999
   154   6 C    3.816 --   153 C    1.571   155 C    1.269   194 H    1.000
   155   6 C    3.883 --   157 C    1.334   154 C    1.269   156 N    1.218
   156   7 N    3.249 --   152 C    1.252   155 C    1.218   195 H    0.962
   157   6 C    3.827 --   167 C    1.375   155 C    1.334   158 C    1.053
   158   6 C    3.887 --   159 C    1.412   166 C    1.402   157 C    1.053
   159   6 C    3.815 --   158 C    1.412   160 C    1.395   196 H    0.993
   160   6 C    3.969 --   159 C    1.395   162 C    1.354   161 O    1.117
   161   8 O    2.149 --   160 C    1.117   197 H    0.964
   162   6 C    3.946 --   164 C    1.358   160 C    1.354   163 O    1.116
   163   8 O    2.146 --   162 C    1.116   198 H    0.962
   164   6 C    3.936 --   166 C    1.408   162 C    1.358   165 O    1.090
   165   8 O    2.106 --   164 C    1.090   199 H    0.962
   166   6 C    3.812 --   164 C    1.408   158 C    1.402   200 H    0.992
   167   6 C    3.922 --   157 C    1.375   170 N    1.346   168 C    1.165
   168   6 C    3.838 --   169 C    1.687   167 C    1.165   201 H    1.000
   169   6 C    3.846 --   168 C    1.687   171 C    1.170   202 H    1.000
   170   7 N    2.547 --   171 C    1.420   167 C    1.346
   171   6 C    3.941 --   170 N    1.420   172 C    1.275   169 C    1.170
   172   6 C    3.817 --   171 C    1.275   173 C    1.274   135 C    1.236
   173   6 C    3.902 --   174 C    1.275   172 C    1.274   177 N    1.253
   174   6 C    3.824 --   175 C    1.572   173 C    1.275   203 H    0.999
   175   6 C    3.813 --   174 C    1.572   176 C    1.268   204 H    1.000
   176   6 C    3.883 --   178 C    1.334   175 C    1.268   177 N    1.219
   177   7 N    3.250 --   173 C    1.253   176 C    1.219   205 H    0.962
   178   6 C    3.825 --   188 C    1.377   176 C    1.334   179 C    1.051
   179   6 C    3.891 --   180 C    1.412   187 C    1.406   178 C    1.051
   180   6 C    3.841 --   179 C    1.412   181 C    1.393   206 H    0.993
   181   6 C    3.977 --   180 C    1.393   183 C    1.358   182 O    1.125
   182   8 O    2.159 --   181 C    1.125   207 H    0.964
   183   6 C    3.913 --   185 C    1.369   181 C    1.358   184 O    1.090
   184   8 O    2.102 --   183 C    1.090   208 H    0.961
   185   6 C    3.938 --   187 C    1.401   183 C    1.369   186 O    1.094
   186   8 O    2.112 --   185 C    1.094   209 H    0.962
   187   6 C    3.816 --   179 C    1.406   185 C    1.401   210 H    0.992
   188   6 C    3.923 --   178 C    1.377   192 N    1.346   189 C    1.164
   189   6 C    3.838 --   190 C    1.688   188 C    1.164   211 H    1.000
   190   6 C    3.846 --   189 C    1.688   191 C    1.169   212 H    1.000
   191   6 C    3.942 --   192 N    1.418   151 C    1.279   190 C    1.169
   192   7 N    2.544 --   191 C    1.418   188 C    1.346
   193   1 H    1.029 --   153 C    0.999
   194   1 H    1.025 --   154 C    1.000
   195   1 H    1.085 --   156 N    0.962
   196   1 H    1.024 --   159 C    0.993
   197   1 H    1.003 --   161 O    0.964
   198   1 H    0.997 --   163 O    0.962
   199   1 H    0.997 --   165 O    0.962
   200   1 H    1.022 --   166 C    0.992
   201   1 H    1.027 --   168 C    1.000
   202   1 H    1.033 --   169 C    1.000
   203   1 H    1.030 --   174 C    0.999
   204   1 H    1.027 --   175 C    1.000
   205   1 H    1.085 --   177 N    0.962
   206   1 H    1.032 --   180 C    0.993
   207   1 H    0.996 --   182 O    0.964
   208   1 H    0.992 --   184 O    0.961
   209   1 H    0.997 --   186 O    0.962
   210   1 H    1.025 --   187 C    0.992
   211   1 H    1.029 --   189 C    1.000
   212   1 H    1.034 --   190 C    1.000
   213   6 C    3.817 --   253 C    1.276   214 C    1.273   142 C    1.236
   214   6 C    3.902 --   215 C    1.276   213 C    1.273   218 N    1.253
   215   6 C    3.824 --   216 C    1.570   214 C    1.276   255 H    0.999
   216   6 C    3.814 --   215 C    1.570   217 C    1.270   256 H    1.000
   217   6 C    3.883 --   219 C    1.333   216 C    1.270   218 N    1.220
   218   7 N    3.251 --   214 C    1.253   217 C    1.220   257 H    0.962
   219   6 C    3.825 --   229 C    1.377   217 C    1.333   220 C    1.052
   220   6 C    3.887 --   221 C    1.412   228 C    1.402   219 C    1.052
   221   6 C    3.814 --   220 C    1.412   222 C    1.395   258 H    0.993
   222   6 C    3.969 --   221 C    1.395   224 C    1.354   223 O    1.117
   223   8 O    2.149 --   222 C    1.117   259 H    0.964
   224   6 C    3.946 --   226 C    1.358   222 C    1.354   225 O    1.116
   225   8 O    2.146 --   224 C    1.116   260 H    0.962
   226   6 C    3.937 --   228 C    1.407   224 C    1.358   227 O    1.090
   227   8 O    2.107 --   226 C    1.090   261 H    0.962
   228   6 C    3.812 --   226 C    1.407   220 C    1.402   262 H    0.992
   229   6 C    3.923 --   219 C    1.377   232 N    1.346   230 C    1.164
   230   6 C    3.839 --   231 C    1.689   229 C    1.164   263 H    1.000
   231   6 C    3.846 --   230 C    1.689   233 C    1.169   264 H    1.000
   232   7 N    2.545 --   233 C    1.418   229 C    1.346
   233   6 C    3.942 --   232 N    1.418   234 C    1.279   231 C    1.169
   234   6 C    3.818 --   233 C    1.279   235 C    1.277   143 C    1.228
   235   6 C    3.903 --   234 C    1.277   236 C    1.273   239 N    1.252
   236   6 C    3.824 --   237 C    1.574   235 C    1.273   265 H    0.999
   237   6 C    3.815 --   236 C    1.574   238 C    1.267   266 H    1.000
   238   6 C    3.883 --   240 C    1.337   237 C    1.267   239 N    1.218
   239   7 N    3.249 --   235 C    1.252   238 C    1.218   267 H    0.962
   240   6 C    3.826 --   250 C    1.374   238 C    1.337   241 C    1.052
   241   6 C    3.891 --   242 C    1.412   249 C    1.405   240 C    1.052
   242   6 C    3.840 --   241 C    1.412   243 C    1.393   268 H    0.993
   243   6 C    3.977 --   242 C    1.393   245 C    1.358   244 O    1.125
   244   8 O    2.159 --   243 C    1.125   269 H    0.964
   245   6 C    3.913 --   247 C    1.369   243 C    1.358   246 O    1.090
   246   8 O    2.103 --   245 C    1.090   270 H    0.961
   247   6 C    3.939 --   249 C    1.401   245 C    1.369   248 O    1.094
   248   8 O    2.112 --   247 C    1.094   271 H    0.962
   249   6 C    3.816 --   241 C    1.405   247 C    1.401   272 H    0.992
   250   6 C    3.922 --   240 C    1.374   254 N    1.347   251 C    1.165
   251   6 C    3.837 --   252 C    1.687   250 C    1.165   273 H    1.000
   252   6 C    3.846 --   251 C    1.687   253 C    1.170   274 H    1.000
   253   6 C    3.941 --   254 N    1.419   213 C    1.276   252 C    1.170
   254   7 N    2.546 --   253 C    1.419   250 C    1.347
   255   1 H    1.029 --   215 C    0.999
   256   1 H    1.025 --   216 C    1.000
   257   1 H    1.084 --   218 N    0.962
   258   1 H    1.024 --   221 C    0.993
   259   1 H    1.003 --   223 O    0.964
   260   1 H    0.997 --   225 O    0.962
   261   1 H    0.996 --   227 O    0.962
   262   1 H    1.021 --   228 C    0.992
   263   1 H    1.027 --   230 C    1.000
   264   1 H    1.033 --   231 C    1.000
   265   1 H    1.030 --   236 C    0.999
   266   1 H    1.027 --   237 C    1.000
   267   1 H    1.085 --   239 N    0.962
   268   1 H    1.032 --   242 C    0.993
   269   1 H    0.996 --   244 O    0.964
   270   1 H    0.992 --   246 O    0.961
   271   1 H    0.996 --   248 O    0.962
   272   1 H    1.025 --   249 C    0.992
   273   1 H    1.029 --   251 C    1.000
   274   1 H    1.033 --   252 C    1.000
 ---------------------------------------------------------------------------

Topologies differ in total number of bonds
Writing topology from bond orders to xtbtopo.mol

 dipole moment from electron density (au)
     X       Y       Z   
-128.6565   5.6225  -1.7068  total (Debye):  327.353


           -------------------------------------------------
          | TOTAL ENERGY             -586.916153385780 Eh   |
          | GRADIENT NORM               0.106856059662 Eh/α |
          | HOMO-LUMO GAP               0.104258620547 eV   |
           -------------------------------------------------
########################################################################
[WARNING] Runtime exception occurred
-1- restart_readRestart: Dimension missmatch in restart file.
########################################################################

------------------------------------------------------------------------
 * finished run on 2022/07/29 at 22:09:01.569     
------------------------------------------------------------------------
 total:
 * wall-time:     0 d,  0 h,  0 min, 24.854 sec
 *  cpu-time:     0 d,  0 h,  0 min, 24.762 sec
 * ratio c/w:     0.996 speedup
 SCF:
 * wall-time:     0 d,  0 h,  0 min, 24.253 sec
 *  cpu-time:     0 d,  0 h,  0 min, 24.167 sec
 * ratio c/w:     0.996 speedup

