274
 energy: -527.106871281120 gnorm: 2.235064009706 xtb: 6.5.1 (b24c23e)
C           35.13550200000000       -0.61814300000000        0.56791000000000
C           35.82604700000000       -1.25801800000000       -0.67641400000000
C           35.17695400000000       -1.78632500000000       -1.76630200000000
C           36.17357200000000       -2.26145200000000       -2.65588100000000
C           37.39873900000000       -2.01864100000000       -2.07555000000000
N           37.17604100000000       -1.36838000000000       -0.88582900000000
C           38.82198500000000       -2.43132200000000       -2.64514100000000
C           38.87694200000000       -3.31138200000000       -3.84498200000000
C           39.44346600000000       -2.80054300000000       -5.02929200000000
C           39.50444300000000       -3.58866400000000       -6.17058000000000
O           40.05982700000000       -3.13161300000000       -7.33226600000000
C           38.98381199999999       -4.87372200000000       -6.15317900000000
O           39.03105500000000       -5.64679300000000       -7.28397000000000
C           38.39700200000000       -5.38066700000000       -4.99592500000000
O           37.86066300000000       -6.63785800000000       -5.01134600000000
C           38.34388199999999       -4.61199700000000       -3.83689100000000
C           39.95205299999999       -1.93910300000000       -2.06107600000000
C           41.27254500000000       -2.39745000000000       -2.44127600000000
C           42.17070500000000       -1.74703200000000       -1.71186700000000
N           40.13482399999999       -1.01227600000000       -1.06864400000000
C           41.47228400000000       -0.82830900000000       -0.83639700000000
C           42.13498000000000        0.00877000000000        0.00618300000000
C           41.34226000000000        1.05328500000000        0.89953100000000
C           41.83299900000000        2.24918800000000        1.38624000000000
C           40.81669000000000        2.84561100000000        2.17480800000000
C           39.72494200000000        2.00525100000000        2.13269100000000
N           40.03894200000000        0.93994800000000        1.31960200000000
C           38.33979699999999        2.21622000000000        2.87049100000000
C           38.26228700000000        3.24679600000000        3.92995200000000
C           38.73568600000000        2.99422700000000        5.22804400000000
C           38.64825800000000        3.99127800000000        6.18732100000000
O           39.09851500000000        3.76612800000000        7.45763900000000
C           38.10363899999999        5.22842000000000        5.86397400000000
O           38.02467600000000        6.19966100000000        6.82859500000000
C           37.64715000000000        5.48799800000000        4.57616700000000
O           37.13204100000000        6.72900300000000        4.32008200000000
C           37.72176000000000        4.50432700000000        3.60332200000000
C           37.24846200000000        1.50802100000000        2.47368500000000
C           35.96156100000000        1.60849800000000        3.14119300000000
C           35.09902599999999        0.81659200000000        2.51139000000000
C           35.79733300000000        0.19720300000000        1.41092100000000
N           37.09073000000000        0.61488500000000        1.45263700000000
H           34.08480500000000       -0.82665300000000        0.73423500000000
H           34.10732999999999       -1.82344700000000       -1.90829200000000
H           36.01248200000000       -2.74017300000000       -3.61024600000000
H           37.90231400000000       -0.99821600000000       -0.28123900000000
H           39.82539200000000       -1.78041600000000       -5.01729900000000
H           40.37378500000000       -2.23436900000000       -7.13961600000000
H           39.51694500000000       -5.08465100000000       -7.91172400000000
H           38.10215200000000       -6.97255400000000       -5.89203400000000
H           37.88187899999999       -5.00357100000000       -2.93404000000000
H           41.50060000000000       -3.16284000000000       -3.16010800000000
H           43.23060300000000       -1.90191900000000       -1.77556300000000
H           42.81788100000000        2.65265500000000        1.19891400000000
H           40.87837200000000        3.78126200000000        2.71082300000000
H           39.38065000000000        0.21530600000000        1.03812200000000
H           39.16511799999999        2.02515500000000        5.46658800000000
H           38.92859700000000        4.60697300000000        7.92213600000000
H           37.60953700000000        6.95293300000000        6.35252900000000
H           36.89856200000000        6.74511800000000        3.37251400000000
H           37.36631100000000        4.66818200000000        2.58790300000000
H           35.73727700000000        2.20247000000000        4.00860400000000
H           34.06469800000000        0.66965900000000        2.76771900000000
C           99.65473599999999       -0.69134500000000        0.47351100000000
C           98.96419100000000        0.35450000000000        1.40302200000000
C           99.61328399999999        1.27854800000000        2.18602900000000
C           98.61666600000000        2.02183300000000        2.86766200000000
C           97.39149899999998        1.52022300000000        2.48802000000000
N           97.61419699999999        0.52984700000000        1.56204500000000
C           95.96825299999999        1.96914000000000        3.02951100000000
C           95.91329599999999        2.91210800000000        4.18057000000000
C           95.34677199999999        4.18630700000000        3.98065500000000
C           95.28579499999999        5.09545400000000        5.02809300000000
O           94.73041100000000        6.33434900000000        4.87464000000000
C           95.80642600000000        4.75867700000000        6.26835800000000
O           95.75918299999998        5.66140500000000        7.29860600000000
C           96.39323600000000        3.51165400000000        6.47123600000000
O           96.92957399999999        3.21360400000000        7.69268400000000
C           96.44635599999999        2.58047700000000        5.43822000000000
C           94.83818500000000        1.52600600000000        2.40738300000000
C           93.51769299999999        1.78012700000000        2.94595200000000
C           92.61953300000000        1.23561000000000        2.13442200000000
N           94.65541399999999        0.79556000000000        1.26266600000000
C           93.31795400000000        0.61642500000000        1.02667200000000
C           92.65525800000000        0.00877000000000        0.00618300000000
C           93.44797800000001       -0.59641300000000       -1.22785000000000
C           92.95723899999999       -0.77007100000000       -2.50726900000000
C           93.97354799999998       -1.38532700000000       -3.28123200000000
C           95.06529599999999       -1.55374900000000       -2.45684600000000
N           94.75129599999998       -1.03147400000000       -1.22266100000000
C           96.45044100000000       -2.21579700000000       -2.84485200000000
C           96.52795099999999       -2.98533300000000       -4.10673900000000
C           96.05455200000000       -4.30543300000000       -4.18529000000000
C           96.14198000000000       -4.98628500000000       -5.38976700000000
O           95.69172300000000       -6.27265900000000       -5.48795900000000
C           96.68659900000000       -4.36512500000000       -6.50745700000000
O           96.76556199999999       -5.05757900000000       -7.68826700000000
C           97.14308799999999       -3.05324100000000       -6.43825500000000
O           97.65819700000000       -2.49626300000000       -7.57643300000000
C           97.06847800000000       -2.35591700000000       -5.24336000000000
C           97.54177600000000       -2.00779500000000       -2.06016300000000
C           98.82867699999998       -2.62927300000000       -2.32365700000000
C           99.69121199999999       -2.21644800000000       -1.39989100000000
C           98.99290499999999       -1.30482800000000       -0.52603500000000
N           97.69950799999999       -1.24124600000000       -0.94095200000000
H          100.70543300000000       -0.90434300000000        0.63404900000000
H          100.68290800000000        1.40682500000000        2.25733100000000
H           98.77775600000000        2.82696900000000        3.56890600000000
H           96.88792400000000        0.03644700000000        1.05301900000000
H           94.96484599999999        4.42865800000000        2.98966100000000
H           94.41645299999999        6.37113900000000        3.95768500000000
H           95.27329300000000        6.40934200000000        6.91044600000000
H           96.68808600000000        3.98323800000000        8.23609400000000
H           96.90835900000000        1.60856700000000        5.59269500000000
H           93.28963800000000        2.28577800000000        3.86620100000000
H           91.55963500000000        1.25874000000000        2.30028900000000
H           91.97235699999999       -0.48819700000000       -2.85139600000000
H           93.91186599999999       -1.67153000000000       -4.32086800000000
H           95.40958800000000       -0.93926000000000       -0.45075800000000
H           95.62512000000000       -4.77772300000000       -3.30611700000000
H           95.86164099999999       -6.51319800000000       -6.41796900000000
H           97.18070099999998       -4.40897000000000       -8.29930200000000
H           97.89167599999999       -1.57451800000000       -7.35613800000000
H           97.42392699999999       -1.33167600000000       -5.14926200000000
H           99.05296099999998       -3.32149900000000       -3.11487400000000
H          100.72553899999998       -2.50128700000000       -1.32139900000000
C           44.62238100000000        0.02299600000000        0.01613300000000
C           46.08060699999999        0.00115900000000       -0.00174000000000
C           47.21453500000000       -0.01959400000000       -0.00323100000000
C           48.57591700000000       -0.03218400000000       -0.00542200000000
C           49.85013600000000       -0.02187800000000       -0.01018700000000
C           51.03859800000000       -0.00308000000000       -0.01634300000000
C           52.39095900000000        0.02170500000000       -0.00047500000000
C           53.49122599999999        0.02299600000000        0.01613300000000
C           62.90063900000000        0.02299600000000        0.01613300000000
C           64.35886499999999        0.00115900000000       -0.00174000000000
C           65.49279300000001       -0.01959400000000       -0.00323100000000
C           66.85417500000000       -0.03218400000000       -0.00542200000000
C           68.12839400000000       -0.02187800000000       -0.01018700000000
C           69.31685600000000       -0.00308000000000       -0.01634300000000
C           70.66921700000000        0.02170500000000       -0.00047500000000
C           71.76948400000001        0.02299600000000        0.01613300000000
C           81.17889700000001        0.02299600000000        0.01613300000000
C           82.63712400000000        0.00115900000000       -0.00174000000000
C           83.77105199999998       -0.01959400000000       -0.00323100000000
C           85.13243300000001       -0.03218400000000       -0.00542200000000
C           86.40665199999998       -0.02187800000000       -0.01018700000000
C           87.59511500000001       -0.00308000000000       -0.01634300000000
C           88.94747499999998        0.02170500000000       -0.00047500000000
C           90.04774299999998        0.02299600000000        0.01613300000000
C           54.69225000000000       -0.01336200000000       -0.00940500000000
C           55.47668300000000       -1.36003500000000        0.28408100000000
C           54.94214600000000       -2.52948600000000        0.78866600000000
C           55.97956300000000       -3.49498800000000        0.81125700000000
C           57.11994700000000       -2.88253300000000        0.33267400000000
N           56.82070100000000       -1.56543100000000        0.08264800000000
C           58.52135700000000       -3.57454900000000        0.09233300000000
C           58.52866599999999       -5.03820000000000       -0.13523100000000
C           58.85533299999999       -5.91930400000000        0.91303100000000
C           58.86358000000000       -7.29719300000000        0.68813600000000
O           59.19282500000000       -8.15840900000000        1.70384000000000
C           58.54184700000000       -7.79430400000000       -0.57530400000000
O           58.54241100000000       -9.14092100000000       -0.82965200000000
C           58.21637000000000       -6.91587100000000       -1.61589800000000
O           57.91447900000000       -7.45165100000000       -2.84745200000000
C           58.20562800000000       -5.54074500000000       -1.40641400000000
C           59.65708900000000       -2.83165600000000        0.02302900000000
C           60.94841500000000       -3.42666300000000       -0.25477300000000
C           61.85535600000000       -2.45833200000000       -0.29452500000000
N           59.86496399999999       -1.48614500000000        0.15452800000000
C           61.19128100000000       -1.19664300000000       -0.03207400000000
C           61.86063100000000       -0.01336200000000       -0.00940500000000
C           61.07803100000000        1.33373300000000        0.28224800000000
C           61.61175700000000        2.49752900000000        0.80333700000000
C           60.57696700000000        3.46623600000000        0.81958500000000
C           59.43775900000000        2.86030000000000        0.32340900000000
N           59.73863600000000        1.54740000000000        0.05464100000000
C           58.03141800000000        3.54996800000000        0.09650500000000
C           57.98925900000000        5.02941700000000        0.04238300000000
C           58.26570000000000        5.72236400000000       -1.14761200000000
C           58.20423300000000        7.11038600000000       -1.15449900000000
O           58.46199800000000        7.80014700000000       -2.30844000000000
C           57.87598500000000        7.80657600000000        0.00754100000000
O           57.81261800000000        9.17608800000000       -0.02251000000000
C           57.61071900000000        7.12327500000000        1.18976500000000
O           57.29223900000000        7.85426400000000        2.30508100000000
C           57.66603000000000        5.73644700000000        1.21668400000000
C           56.89916599999999        2.80226800000000        0.00128500000000
C           55.60140199999999        3.40044400000000       -0.24805500000000
C           54.69419599999999        2.43139400000000       -0.28525900000000
C           55.36431200000000        1.16752800000000       -0.05125500000000
N           56.69671600000000        1.45315600000000        0.09814700000000
H           53.91384200000000       -2.68280800000000        1.08327600000000
H           55.89677900000000       -4.52715600000000        1.12272200000000
H           57.49206100000000       -0.85176400000000       -0.18886300000000
H           59.10447400000000       -5.49743200000000        1.88608300000000
H           59.44832400000000       -7.61831500000000        2.47478100000000
H           58.29705500000000       -9.19344500000000       -1.77600700000000
H           57.73456400000000       -6.69432200000000       -3.43755200000000
H           57.95926900000000       -4.83733400000000       -2.20015000000000
H           61.15105800000000       -4.47064200000000       -0.41544000000000
H           62.90133099999999       -2.60742400000000       -0.49175600000000
H           62.63665300000000        2.64515300000000        1.11568700000000
H           60.66143200000000        4.49387500000000        1.14167200000000
H           59.06729400000000        0.83744600000000       -0.22948100000000
H           58.51623900000000        5.16975700000000       -2.05077900000000
H           58.31825900000000        8.73426400000000       -2.05798500000000
H           57.55620300000000        9.40326100000000        0.89667800000000
H           57.14697900000000        7.20670000000000        3.02001400000000
H           57.45785600000000        5.16844100000000        2.12032700000000
H           55.39764700000000        4.44626800000000       -0.39703000000000
H           53.64388900000000        2.58109400000000       -0.45723000000000
C           72.97050800000000       -0.01336200000000       -0.00940500000000
C           73.75494200000000       -1.36003500000000        0.28408100000000
C           73.22040400000000       -2.52948600000000        0.78866600000000
C           74.25782199999999       -3.49498800000000        0.81125700000000
C           75.39820500000000       -2.88253300000000        0.33267400000000
N           75.09895899999999       -1.56543100000000        0.08264800000000
C           76.79961499999999       -3.57454900000000        0.09233300000000
C           76.80692400000000       -5.03820000000000       -0.13523100000000
C           77.13359100000000       -5.91930400000000        0.91303100000000
C           77.14183799999999       -7.29719300000000        0.68813600000000
O           77.47108299999998       -8.15840900000000        1.70384000000000
C           76.82010500000000       -7.79430400000000       -0.57530400000000
O           76.82066900000000       -9.14092100000000       -0.82965200000000
C           76.49462900000000       -6.91587100000000       -1.61589800000000
O           76.19273800000001       -7.45165100000000       -2.84745200000000
C           76.48388599999998       -5.54074500000000       -1.40641400000000
C           77.93534699999999       -2.83165600000000        0.02302900000000
C           79.22667300000001       -3.42666300000000       -0.25477300000000
C           80.13361399999999       -2.45833200000000       -0.29452500000000
N           78.14322199999999       -1.48614500000000        0.15452800000000
C           79.46953900000000       -1.19664300000000       -0.03207400000000
C           80.13888899999999       -0.01336200000000       -0.00940500000000
C           79.35629000000000        1.33373300000000        0.28224800000000
C           79.89001599999999        2.49752900000000        0.80333700000000
C           78.85522500000000        3.46623600000000        0.81958500000000
C           77.71601699999999        2.86030000000000        0.32340900000000
N           78.01689399999999        1.54740000000000        0.05464100000000
C           76.30967600000000        3.54996800000000        0.09650500000000
C           76.26751699999998        5.02941700000000        0.04238300000000
C           76.54395800000000        5.72236400000000       -1.14761200000000
C           76.48249100000000        7.11038600000000       -1.15449900000000
O           76.74025600000000        7.80014700000000       -2.30844000000000
C           76.15424400000001        7.80657600000000        0.00754100000000
O           76.09087599999998        9.17608800000000       -0.02251000000000
C           75.88897799999998        7.12327500000000        1.18976500000000
O           75.57049800000000        7.85426400000000        2.30508100000000
C           75.94428800000000        5.73644700000000        1.21668400000000
C           75.17742500000000        2.80226800000000        0.00128500000000
C           73.87966000000000        3.40044400000000       -0.24805500000000
C           72.97245400000000        2.43139400000000       -0.28525900000000
C           73.64257000000001        1.16752800000000       -0.05125500000000
N           74.97497400000000        1.45315600000000        0.09814700000000
H           72.19210000000000       -2.68280800000000        1.08327600000000
H           74.17503699999999       -4.52715600000000        1.12272200000000
H           75.77031900000000       -0.85176400000000       -0.18886300000000
H           77.38273199999999       -5.49743200000000        1.88608300000000
H           77.72658199999999       -7.61831500000000        2.47478100000000
H           76.57531299999998       -9.19344500000000       -1.77600700000000
H           76.01282199999999       -6.69432200000000       -3.43755200000000
H           76.23752700000000       -4.83733400000000       -2.20015000000000
H           79.42931600000000       -4.47064200000000       -0.41544000000000
H           81.17958900000001       -2.60742400000000       -0.49175600000000
H           80.91491099999999        2.64515300000000        1.11568700000000
H           78.93969100000000        4.49387500000000        1.14167200000000
H           77.34555300000000        0.83744600000000       -0.22948100000000
H           76.79449700000001        5.16975700000000       -2.05077900000000
H           76.59651700000001        8.73426400000000       -2.05798500000000
H           75.83446100000000        9.40326100000000        0.89667800000000
H           75.42523799999999        7.20670000000000        3.02001400000000
H           75.73611400000000        5.16844100000000        2.12032700000000
H           73.67590500000000        4.44626800000000       -0.39703000000000
H           71.92214699999998        2.58109400000000       -0.45723000000000
274
 energy: -527.882015684507 gnorm: 0.798525469145 xtb: 6.5.1 (b24c23e)
C           35.14641961561778       -0.62687297751801        0.55109319923540
C           35.82223491807785       -1.25191526724961       -0.66503003919874
C           35.17854876361773       -1.78926468623475       -1.76971304291907
C           36.17040754766226       -2.26214634756955       -2.65464678505534
C           37.41222823630761       -2.02130989481928       -2.07878100131645
N           37.17655052612442       -1.36866081562998       -0.88590437305109
C           38.80334251333295       -2.42525278528085       -2.63771678869195
C           38.87358781222444       -3.30882315199418       -3.84239827601531
C           39.44334606826748       -2.80038221803530       -5.02510155862348
C           39.50408423989292       -3.58751463075153       -6.16780396010060
O           40.05984984298605       -3.13062797233028       -7.33090246359167
C           38.98307481058150       -4.87426185660133       -6.15237676983281
O           39.03191946987405       -5.64569130135371       -7.28343234464528
C           38.39583352781511       -5.38071410655177       -4.99354831676990
O           37.86319048058328       -6.63565461777646       -5.01271675618372
C           38.34350414281359       -4.60890746836113       -3.83627631311209
C           39.95528458815381       -1.93728957282235       -2.05813329515554
C           41.27349045773627       -2.40020132302877       -2.44452868642396
C           42.17542096457169       -1.74786295492754       -1.71194018737050
N           40.12993076985942       -1.00985865487995       -1.06682525346341
C           41.47462635719344       -0.82842885783841       -0.83544135068967
C           42.11970090461997        0.02234410676266        0.01727676868880
C           41.34934077038400        1.04406258719457        0.89002206459628
C           41.83244111611223        2.25072143449679        1.38959670568376
C           40.82008737758127        2.84410695897232        2.17359111866333
C           39.71250648755693        2.00472185643578        2.13740727396434
N           40.03950942004863        0.93873961405678        1.32048509992118
C           38.35746714662606        2.21243386532547        2.85951607020881
C           38.26536851247480        3.24589731487554        3.92760774799999
C           38.73553390017265        2.99361664924995        5.22441454043167
C           38.64896467519112        3.98940737033945        6.18788603064354
O           39.09713538238878        3.76846663118685        7.45593955389314
C           38.10371604040385        5.22850549049819        5.86414141225156
O           38.02350806249175        6.20114948706549        6.82635383933317
C           37.64731496642413        5.48635997809574        4.57552603417423
O           37.13195565976866        6.72820182314827        4.31797487471238
C           37.72236103816306        4.50060912314089        3.60294018410754
C           37.24598781943494        1.50478811748222        2.47224790262563
C           35.96042299830285        1.61143814320120        3.14505373631544
C           35.09549925350262        0.81736644637261        2.51373648109036
C           35.80060895885077        0.19801967324754        1.41355880265499
N           37.09566726778345        0.61390672301827        1.44890416987698
H           34.08862022026956       -0.82715796207973        0.72998657253440
H           34.10820339819223       -1.82404902741867       -1.90914028208576
H           36.01169976030013       -2.73995111660929       -3.60971221831944
H           37.90202510970088       -0.99842020262560       -0.28142081610015
H           39.82533851239677       -1.78155289170979       -5.01815783245302
H           40.37458262863542       -2.23428278555213       -7.14214519353510
H           39.51662770914135       -5.08638034529627       -7.91387891344671
H           38.10070443625727       -6.97474632377743       -5.89219842479745
H           37.88250387179573       -5.00349327310063       -2.93518615291805
H           41.49955964300470       -3.16454635087258       -3.16236986284618
H           43.23393803513181       -1.90040689770066       -1.77405169925944
H           42.81723234678117        2.65264386456317        1.19977036039022
H           40.87901155930786        3.78050275978910        2.71007840172110
H           39.38168009732298        0.21614745198808        1.03854126551506
H           39.16467567220313        2.02619181020005        5.46660707849102
H           38.92935582844563        4.60608731366408        7.92378150919484
H           37.61034719991318        6.95312660880607        6.35540005628494
H           36.89815038474114        6.74695454531032        3.37417364993110
H           37.36660507534868        4.66882786247105        2.58909729827984
H           35.73838896497713        2.20470162415791        4.01064034733836
H           34.06264167587629        0.66884007356930        2.76742440500228
C           99.64381388770757       -0.67720741910166        0.48617802679953
C           98.96800762664060        0.34497073188638        1.39425643703787
C           99.61168576307367        1.28113091059941        2.18974236991511
C           98.61985074146114        2.02046103582586        2.86802333978652
C           97.37798254088115        1.52268620139944        2.49140784450520
N           97.61368269971200        0.52985199904078        1.56233243898619
C           95.98691676118706        1.96343201127582        3.02176425916872
C           95.91665016877521        2.91024418704045        4.17743850846597
C           95.34689354062128        4.18228914023695        3.97945613903325
C           95.28615334477014        5.09304973051404        5.02628836522771
O           94.73038660088554        6.33327653413623        4.87334832977179
C           95.80716376542496        4.75776206205265        6.26867696110036
O           95.75831742870696        5.66116346361710        7.29741259943694
C           96.39440294126616        3.50934157250771        6.47068437494148
O           96.92704817986724        3.21547857544369        7.69089779001235
C           96.44673106536463        2.58065051904322        5.43507165447270
C           94.83491544942594        1.52353406667145        2.40483347341104
C           93.51675491933322        1.78258408283405        2.94941229838278
C           92.61479070949777        1.23552366997314        2.13528789777469
N           94.66008282181328        0.79427793647691        1.25970366578964
C           93.31492680474661        0.61542712331012        1.02636204014301
C           92.66717332880101        0.00120591803354       -0.00955791211253
C           93.44038515480815       -0.58960030671586       -1.21648015080438
C           92.95776655459329       -0.77296386815560       -2.50959328738715
C           93.97017069560124       -1.38451287590612       -3.27946438858122
C           95.07769396492499       -1.55838487673535       -2.45749735662080
N           94.75058587952014       -1.03245983948694       -1.22164056862405
C           96.43278978344500       -2.20609510382879       -2.83844794064868
C           96.52486488314395       -2.98329982289613       -4.10527762149104
C           96.05470394967180       -4.30207419618532       -4.18379527471393
C           96.14126978360609       -4.98730354498782       -5.38809864030530
O           95.69310768954460       -6.27042407399105       -5.48979899148238
C           96.68652162741122       -4.36526739758318       -6.50758580868331
O           96.76673271704887       -5.05503442046332       -7.68914417564330
C           97.14292237063529       -3.05302912683342       -6.43650979218159
O           97.65828373123394       -2.49442234278294       -7.57512746149919
C           97.06787510076195       -2.35647155804002       -5.23965806182694
C           97.54424307738529       -2.00721169925160       -2.05668817773481
C           98.82981563443671       -2.63228061570125       -2.32746953394716
C           99.69473467886530       -2.21852748095788       -1.40122938872811
C           98.98960391262000       -1.30717780277712       -0.52749557128058
N           97.69458345836478       -1.23787915995583       -0.93905070780813
H          100.70161666678526       -0.90035028053235        0.63559660427461
H          100.68203425473386        1.40749911781172        2.25812612923152
H           98.77854052637028        2.82650734599771        3.56855684517241