130
 energy: -237.872830799770 gnorm: 0.000471258421 xtb: 6.5.1 (b24c23e)
C           12.36964196585635       -0.04569391743819       -0.58196673709187
C           12.97349978578890        1.17250000057472       -0.86511383598405
C           12.31683167532699        2.38899780926610       -1.20367025762921
C           13.27240659487260        3.35139564858188       -1.37021745302854
C           14.54493147774812        2.75108624564666       -1.14883021365225
N           14.31349085163989        1.43939372672466       -0.84616378503898
C           15.80131679081024        3.36544470488680       -1.19228259000984
C           15.82703786072868        4.80517716290056       -1.55160066775459
C           16.32409868012745        5.74724427245017       -0.65533364110242
C           16.35130650378000        7.09961802688411       -0.99315816363420
C           16.89377925054736        8.05521888690364        0.00548323043087
O           16.89065917222804        9.32860931700909       -0.41472525129442
O           17.30339171035613        7.74193556099982        1.09376794496289
C           15.87988645397037        7.51932608955309       -2.23698541806062
C           15.38384099554010        6.58345189868516       -3.13086817140963
C           15.35526433123917        5.23756449756025       -2.79320446742520
C           17.01704421442272        2.73024944684531       -0.92888248749891
C           18.31199822750618        3.37637632559957       -1.04897736917131
C           19.23532396855314        2.44020113965334       -0.74825168867557
N           17.17643696817625        1.42686268691319       -0.56940483530606
C           18.50386843201684        1.22424090686747       -0.44859122956153
C           19.14500679718365        0.01870532093540       -0.09911443576449
C           18.51446028762577       -1.20451119503811        0.19707433163888
C           19.16392598887971       -2.42131587586493        0.53522273353330
C           18.20166131086922       -3.37200224917838        0.73396932156968
C           16.93312945696178       -2.76159499902621        0.52842447231914
N           17.17457854497125       -1.45307288580540        0.20361070141158
C           15.67569876205669       -3.37093787754652        0.59656964109307
C           15.65196173389936       -4.80158326259531        0.98775873665606
C           15.13717285432020       -5.76630168298274        0.11866198447690
C           15.12278239325396       -7.10666440437935        0.47875202879729
C           15.61998925012892       -7.50108176291044        1.70965980265455
C           16.13506767867047       -6.54638859105439        2.58792166565972
C           16.66013767348587       -7.00747610692210        3.89782237446254
O           17.13098304925274       -6.01461310102412        4.66621898306933
O           16.67542997081612       -8.15702766444501        4.25680271374472
C           16.15081623420801       -5.20106314157673        2.22600250155967
C           14.45999562730517       -2.73591482392925        0.32307507016978
C           13.15746093288712       -3.37099832716535        0.45223481146292
C           12.24317832718771       -2.43905587640729        0.11590394443923
C           12.98499642243434       -1.23299936427032       -0.20755011753090
N           14.31616835370930       -1.44776600665091       -0.06841057044882
H           11.28632530461528       -0.05751823756054       -0.64733308701785
H           11.24837120099153        2.50175720299567       -1.29575372537140
H           13.11475693772459        4.38968701177193       -1.61340390739114
H           15.03989262908738        0.76739029717149       -0.62248399499722
H           16.68339614140029        5.44061598692682        0.32088533589394
H           17.26008227222247        9.88594557566813        0.28948015649973
H           15.90378445167834        8.57016101428477       -2.49886127261210
H           15.01880049447831        6.90200695693499       -4.10075090592936
H           14.98026801921514        4.50967699146536       -3.50410347482395
H           18.47225860652490        4.40167144983376       -1.34026865654242
H           20.30911729802082        2.53600608148240       -0.72838185939308
H           20.23226037430784       -2.54507391827619        0.60934587091838
H           18.35505898432223       -4.40796059628748        0.98854852323417
H           16.45044767516663       -0.77498218406801       -0.00969463551769
H           14.76195167363940       -5.46184372319425       -0.85201625430648
H           14.72446494821891       -7.84446230397773       -0.20843678830863
H           15.61764272948960       -8.54400388400500        2.00568752688662
H           17.45483002125565       -6.39449845605189        5.49904232355658
H           16.53797516792649       -4.46041392924667        2.91579978807871
H           12.98953931845492       -4.38627848198314        0.77384405686527
H           11.16824427943873       -2.52592048216406        0.09015637682622
C           32.52537763110309       -0.19322049324039       -0.54894283185376
C           31.92226320902281       -1.42065251480168       -0.30719770477593
C           32.57965248933736       -2.66836684452156       -0.11525359150570
C           31.62450548995449       -3.61497499707694        0.12701107722997
C           30.35154023061385       -2.97771503462161        0.08043353548622
N           30.58228220142153       -1.65721762050766       -0.18175517631668
C           29.09538227998962       -3.55719407331260        0.29010440478854
C           29.07103430364350       -5.01787652311108        0.55214511345674
C           28.57660999419504       -5.51034528113580        1.75663862612941
C           28.55216829234395       -6.88238808772161        2.00308083349616
C           28.01478436790050       -7.34536521199951        3.30748132828183
O           28.02184821632644       -8.67904485089208        3.44684568779266
O           27.60584147316717       -6.61418096269085        4.17257028086024
C           29.02268088260739       -7.77440717393013        1.03952082441954
C           29.51544291199636       -7.28657611078667       -0.16054469660028
C           29.54217540650878       -5.92047264469189       -0.40408216908655
C           27.87891391114181       -2.87132330354844        0.26834469582642
C           26.58453723523036       -3.51184426685375        0.42078035937120
C           25.66014422422801       -2.53556475262250        0.31212174264355
N           27.71817876546430       -1.53498874549237        0.06432507953101
C           26.39041488885437       -1.30223444917218        0.09053218554292
C           25.74860356761573       -0.05941828077859       -0.08239159523483
C           26.37877208006227        1.17831904983918       -0.31161678170649
C           25.72874759973906        2.42669392459538       -0.50079177680159
C           26.69057775003820        3.37587249844863       -0.70878428862225
C           27.95928301007040        2.73519214540241       -0.64738924471736
N           27.71850155617505        1.40824871661103       -0.40798649779257
C           29.21614440266248        3.31974423176876       -0.83546658308808
C           29.23890074322928        4.78532102213174       -1.06461452219056
C           29.74500490399468        5.30890900200056       -2.25646812585248
C           29.75879227632633        6.67918290842464       -2.47704535680905
C           29.27114312369486        7.54355501622802       -1.51118678031787
C           28.76550773936874        7.03279510650598       -0.31470154898540
C           28.25343260323352        7.99098546281781        0.69720432524270
O           27.79429365798743        7.40095315195353        1.81028458705047
O           28.23978134098693        9.18680154854044        0.55443301245014
C           28.74867754832103        5.65714862628051       -0.09451262047067
C           30.43236572616743        2.62954973376499       -0.82576993723239
C           31.73409070600029        3.26304893435798       -0.96953479147608
C           32.64944296317719        2.27608331463599       -0.89464142260450
C           31.90898728943433        1.04270671280828       -0.69453196408689
N           30.57762040952217        1.29422859881939       -0.65495473782490
H           33.60870315911095       -0.20851355846589       -0.61341208942650
H           33.64828179225545       -2.80816026512661       -0.15133854101245
H           31.78259592718816       -4.66138814800100        0.33220094147769
H           29.85542847422634       -0.95327109822181       -0.25529314278907
H           28.21758754297877       -4.83086031627264        2.52184421614177
H           27.65589731994334       -8.89945702193909        4.31889206238356
H           29.00094942330400       -8.84026115823171        1.23162106764159
H           29.87973688298433       -7.97424557863761       -0.91539766193855
H           29.91525436516681       -5.54729702348443       -1.35139101183413
H           26.42567770417280       -4.56705862980726        0.57283812048117
H           24.58637107882315       -2.61627039740778        0.36789004363440
H           24.66036265721458        2.56944637440007       -0.48330678027959
H           26.53710159056154        4.42531940326356       -0.90026395534121
H           28.44289031072405        0.70253789398593       -0.32515711482641
H           30.11385047444482        4.63320756307096       -3.02000118227033
H           30.14961663010296        7.07051752442960       -3.40941540438598
H           29.27412410809398        8.61630819461861       -1.66781561961903
H           27.48019596618607        8.08945258062248        2.41870598493217
H           28.36805036744187        5.26417398132012        0.84082094115800
H           31.90050949116854        4.32111935884656       -1.09299959010271
H           33.72426411403895        2.34579815988091       -0.95441694041668
C           21.77218107621761       -0.00047602257210       -0.03240321912182
C           20.55041320068744        0.01684014413833       -0.05566673027460
C           23.12139896395208       -0.01701492991877       -0.02914392555005
C           24.34319588634670       -0.04031744382773       -0.04338042548198
