130
 energy: -236.847520090911 gnorm: 3.201214825056 xtb: 6.5.1 (b24c23e)
C           12.37141000000000       -0.18905400000000       -0.39123100000000
C           13.08320300000000        1.16227800000000       -0.69914800000000
C           12.44783000000000        2.35408000000000       -0.96394200000000
C           13.45868700000000        3.32601800000000       -1.17235500000000
C           14.68034300000000        2.69373400000000       -1.02959000000000
N           14.43852300000000        1.37546500000000       -0.73213100000000
C           16.10848400000000        3.37213700000000       -1.15468600000000
C           16.14556900000000        4.79083400000000       -1.58594500000000
C           16.30294100000000        5.82494400000000       -0.65473300000000
C           16.29394500000000        7.15568800000000       -1.08453400000000
C           16.48258700000000        8.22935700000000       -0.08176600000000
O           16.07229600000000        9.43432600000000       -0.53161600000000
O           16.94483900000000        8.12138300000000        1.03777200000000
C           16.12742400000000        7.45351700000000       -2.44599700000000
C           15.97649400000000        6.42355800000000       -3.37529200000000
C           15.98588800000000        5.09720800000000       -2.94509800000000
C           17.24241500000000        2.66943500000000       -0.89118500000000
C           18.55113900000000        3.28924500000000       -0.94398100000000
C           19.45708900000000        2.38319800000000       -0.59579500000000
N           17.44231800000000        1.35938100000000       -0.53946700000000
C           18.78027000000000        1.12548800000000       -0.34443500000000
C           19.46232200000000        0.00021600000000        0.00006100000000
C           18.71382800000000       -1.39203000000000        0.17372300000000
C           19.32029700000000       -2.63384500000000        0.19546900000000
C           18.30515100000000       -3.60510200000000        0.36602100000000
C           17.10164300000000       -2.93490400000000        0.43056000000000
N           17.35725400000000       -1.58775000000000        0.29712600000000
C           15.67605000000000       -3.60894000000000        0.60267900000000
C           15.62730800000000       -5.03313600000000        1.00312500000000
C           15.64328200000000       -6.03995700000000        0.02840200000000
C           15.60857100000000       -7.38432300000000        0.39863000000000
C           15.55189700000000       -7.72851100000000        1.74991100000000
C           15.53361300000000       -6.72728000000000        2.73338300000000
C           15.46378000000000       -7.14298000000000        4.15349900000000
O           15.64419800000000       -6.12282300000000        5.01075200000000
O           15.28313300000000       -8.28020300000000        4.55571200000000
C           15.57436400000000       -5.38056000000000        2.35879600000000
C           14.54589000000000       -2.88925800000000        0.38376400000000
C           13.21774800000000       -3.46729900000000        0.50077100000000
C           12.32640300000000       -2.52373400000000        0.21773600000000
C           13.04788300000000       -1.31031600000000       -0.08032700000000
N           14.37689000000000       -1.57941900000000        0.03182400000000
H           11.28779000000000       -0.20912900000000       -0.42400900000000
H           11.37956300000000        2.50802300000000       -0.99836600000000
H           13.31110400000000        4.37109700000000       -1.39872300000000
H           15.15156000000000        0.66909700000000       -0.56768900000000
H           16.42834800000000        5.57507000000000        0.39715000000000
H           16.24746000000000       10.01045200000000        0.24012800000000
H           16.12404400000000        8.48383700000000       -2.78976600000000
H           15.85304800000000        6.64510900000000       -4.43103200000000
H           15.86717100000000        4.28336400000000       -3.66009800000000
H           18.76903200000000        4.30997400000000       -1.20091400000000
H           20.51435000000000        2.56879000000000       -0.54305200000000
H           20.37813100000000       -2.82848500000000        0.09800400000000
H           18.44034400000000       -4.67519000000000        0.42416800000000
H           16.64403600000000       -0.86361200000000        0.24355000000000
H           15.68236800000000       -5.75616200000000       -1.02161000000000
H           15.62524700000000       -8.15538200000000       -0.36682400000000
H           15.52207300000000       -8.77705500000000        2.03635600000000
H           15.57243800000000       -6.52153300000000        5.89882800000000
H           15.55761000000000       -4.58384500000000        3.10103400000000
H           12.98788700000000       -4.48399400000000        0.76596800000000
H           11.25777100000000       -2.63690500000000        0.21428100000000
C           32.52678900000000        0.01272000000000       -0.43442300000000
C           31.81499700000000       -1.34624700000000       -0.16217500000000
C           32.45037000000000       -2.54201100000000        0.08411300000000
C           31.43951300000000       -3.51409600000000        0.29183700000000
C           30.21785600000000       -2.87877500000000        0.16325800000000
N           30.45967700000000       -1.55425500000000       -0.10499700000000
C           28.78971599999999       -3.54894100000000        0.32683600000000
C           28.75263100000000       -5.01986100000000        0.51412800000000
C           28.59525900000000       -5.58215300000000        1.78706400000000
C           28.60425400000000       -6.97223100000000        1.93968100000000
C           28.41561300000000       -7.54132200000000        3.29409800000000
O           28.82590300000000       -8.82485300000000        3.37693400000000
O           27.95336000000000       -6.98451400000000        4.27133200000000
C           28.77077600000000       -7.80129200000000        0.81943900000000
C           28.92170600000000       -7.24200300000000       -0.45004800000000
C           28.91231200000000       -5.85577400000000       -0.60050800000000
C           27.65578500000000       -2.79994800000000        0.27958800000000
C           26.34706000000000       -3.38705800000000        0.48514500000000
C           25.44111100000000       -2.41787100000000        0.43191900000000
N           27.45588200000000       -1.46071100000000        0.06420000000000
C           26.11793000000000       -1.16747500000000        0.14639600000000
C           25.43587800000000        0.00021600000000        0.00006100000000
C           26.18437100000000        1.34155300000000       -0.41142600000000
C           25.57790200000000        2.48345200000000       -0.89993700000000
C           26.59304900000000        3.43941700000000       -1.14192500000000
C           27.79655700000000        2.85436700000000       -0.80868800000000
N           27.54094500000000        1.57063900000000       -0.37895700000000
C           29.22214900000000        3.53979800000000       -0.92757600000000
C           29.27089200000000        5.00312200000000       -1.14523100000000
C           29.25491800000000        5.52270300000000       -2.44669500000000
C           29.28962900000000        6.90082300000000       -2.65924100000000
C           29.34630300000000        7.76801300000000       -1.56726800000000
C           29.36458700000000        7.25711300000000       -0.26010900000000
C           29.43442000000000        8.21772600000000        0.86539400000000
O           29.25400200000000        7.63789100000000        2.06514100000000
O           29.61506600000000        9.41994800000000        0.76682700000000
C           29.32383600000000        5.87506100000000       -0.05057600000000
C           30.35231000000000        2.79356500000000       -0.83269800000000
C           31.68045200000000        3.36885200000000       -0.96257200000000
C           32.57179600000000        2.39210500000000       -0.83454600000000
C           31.85031700000000        1.16300100000000       -0.60976400000000
N           30.52130900000000        1.45443300000000       -0.61760100000000
H           33.61040900000000        0.01761800000000       -0.47254700000000
H           33.51863600000000       -2.69655600000000        0.11572400000000
H           31.58709600000000       -4.56026400000000        0.51312000000000
H           29.74664000000000       -0.84246800000000       -0.24412400000000
H           28.46985099999999       -4.92357500000000        2.64448400000000
H           28.65074000000000       -9.03457300000000        4.31689600000000
H           28.77415600000000       -8.88205200000000        0.92756800000000
H           29.04515200000000       -7.87632000000000       -1.32258300000000
H           29.03102900000000       -5.40593800000000       -1.58601100000000
H           26.12916800000000       -4.42352100000000        0.66857400000000
H           24.38384900000000       -2.56561000000000        0.55601500000000
H           24.52006900000000        2.62113800000000       -1.06853900000000
H           26.45785600000000        4.43954000000000       -1.52692700000000
H           28.25416300000000        0.88802300000000       -0.13140400000000
H           29.21583200000000        4.83394300000000       -3.28852300000000
H           29.27295300000000        7.29096900000000       -3.67326100000000
H           29.37612700000000        8.84193500000000       -1.73515600000000
H           29.32576100000000        8.36520600000000        2.71218000000000
H           29.34059000000000        5.45200500000000        0.95276500000000
H           31.91031300000000        4.40501700000000       -1.13680900000000
H           33.64042900000000        2.49394500000000       -0.88402600000000
C           21.71360800000000        0.01238700000000        0.00242800000000
C           20.46133800000000       -0.00679400000000       -0.00192100000000
C           23.02727700000000        0.01162100000000        0.00436000000000
C           24.53041000000000       -0.00679400000000       -0.00192100000000
130
 energy: -237.660740220967 gnorm: 0.508133081390 xtb: 6.5.1 (b24c23e)
C           12.37942819453699       -0.17493507272327       -0.39450016611910
C           13.07965797842941        1.15260123176771       -0.69674183704748
C           12.44931742734466        2.35689416288719       -0.96461958129759
C           13.45707440712943        3.32508202268832       -1.17233218017800
C           14.68956566199760        2.69714336747025       -1.03024070525307
N           14.43840153880303        1.37563438676402       -0.73226737856223
C           16.09596448443013        3.36405723386316       -1.15318921269733
C           16.14348360718690        4.78951205611544       -1.58553253341934
C           16.30314694478716        5.82362046192509       -0.65602221246742
C           16.29447492318351        7.15453005770692       -1.08500441334314
C           16.48286470992540        8.23019566537048       -0.08085698634258
O           16.07345267533139        9.43377292727849       -0.52902417419885
O           16.94336902300052        8.11974612776701        1.03430366785590
C           16.12727254527573        7.45242363435124       -2.44601199843137
C           15.97687272589921        6.42312117501735       -3.37351767311817
C           15.98562769474184        5.09741257449178       -2.94427469110170
C           17.24371978262781        2.67072972526435       -0.89174839782854
C           18.55109551199462        3.29365290054499       -0.94505284328608
C           19.45907584923505        2.38262712638107       -0.59576110130431
N           17.43850421417492        1.35710587171432       -0.53867075418048
C           18.75024697391950        1.14295188740604       -0.34913234806385
C           19.35252509467505       -0.01225377978974        0.00077791076519
C           18.70355446976269       -1.39286497344231        0.17361469799632
C           19.31892501541699       -2.63452918776578        0.19612301027229
C           18.30636163994245       -3.60444422419314        0.36615849703068
C           17.09159585116014       -2.93923681116475        0.43163309319689
N           17.35492469116849       -1.59021895423438        0.29748384282391
C           15.68962841962336       -3.60120687980985        0.60110188529877
C           15.62910902255846       -5.03232796501366        1.00273835318560
C           15.64339621659501       -6.03989049910121        0.02917350280974
C           15.60849109606961       -7.38322494002370        0.39979786827239
C           15.55181669948157       -7.72781788040179        1.74867653546580
C           15.53332574730289       -6.72798536684627        2.73206302439034
C           15.46407606253574       -7.14447793121706        4.15439313309451
O           15.64350369130217       -6.12474632356202        5.01121459753423
O           15.28361214957859       -8.27668206240105        4.55354469027530
C           15.57448401697795       -5.38047048686715        2.35757888255946
C           14.54324576946531       -2.88721441351660        0.38358358835211
C           13.21702749473992       -3.47091671130039        0.50170568811387
C           12.32345157298026       -2.52538075428897        0.21807155750943
C           13.04986569851918       -1.31285727643606       -0.07967131899745
N           14.38077219648553       -1.57656575543791        0.03122454783319
H           11.29027355424984       -0.20689405012586       -0.42441370256449
H           11.38026869613971        2.50854687484333       -0.99852434142343
H           13.31082506004948        4.37067571398025       -1.39867528813592
H           15.15110710533664        0.66960818178410       -0.56777115603970
H           16.42827123321693        5.57591855110017        0.39641824001168
H           16.24674547828032       10.01200006836402        0.23862457898539
H           16.12405777022047        8.48334968312698       -2.78910027208211
H           15.85316929735673        6.64518627459801       -4.43023131322919
H           15.86722675978600        4.28424882201648       -3.65953998157116
H           18.76826931947634        4.31183124670507       -1.20139907393572
H           20.51589746192492        2.56713696526479       -0.54237232888946
H           20.37761764097900       -2.82812304380669        0.09820104151813
H           18.44067221779026       -4.67464017455810        0.42419274140417
H           16.64460752704129       -0.86434720565320        0.24365812484948
H           15.68239646677422       -5.75658441497831       -1.02085597344355
H           15.62519664207678       -8.15490858690206       -0.36612325089636
H           15.52206639086737       -8.77620331646352        2.03668909409499
H           15.57269487267580       -6.52039712209961        5.89901126649837
H           15.55768433866367       -4.58503010951206        3.10075888251777
H           12.98866440970286       -4.48571752304055        0.76644839909931
H           11.25619092760279       -2.63645551186422        0.21410412824490
C           32.51883601327431       -0.00142415801143       -0.43164602443228
C           31.81845740240545       -1.33647692208730       -0.16392922616930
C           32.44884322686798       -2.54487450818006        0.08465338357119
C           31.44113489714426       -3.51325293071352        0.29147163610479
C           30.20847684147238       -2.88233581946074        0.16409662819783
N           30.45985175691716       -1.55436376464103       -0.10506552743934
C           28.80259022689929       -3.54104106727236        0.32488507392046
C           28.75471023040499       -5.01848288227503        0.51397429113475
C           28.59504664286288       -5.58146776116430        1.78535339033039
C           28.60373046323324       -6.97136333019697        1.93876647672114
C           28.41533776356061       -7.54173435507960        3.29530121786468
O           28.82474036407891       -8.82326684188731        3.37906326819750
O           27.95483122332978       -6.98443403407348        4.26747868881510
C           28.77092582717253       -7.80029719534590        0.81897974470036
C           28.92132594084357       -7.24087134322374       -0.44860525374753
C           28.91257452789526       -5.85561286713282       -0.59968401628573
C           27.65429465627772       -2.80194508266967        0.27964635687728
C           26.34751223622449       -3.39165976608951        0.48595611951194
C           25.43933613634245       -2.41649702176404        0.43155092783867
N           27.46089082347749       -1.45918537348184        0.06387062761773
C           26.15506493597503       -1.18882890443878        0.14978543868741
C           25.59033061360724        0.01192878076706       -0.00358026247708
C           26.19923613642670        1.34583781937288       -0.41318357243182
C           25.57922258996421        2.48396262688079       -0.89951190576999
C           26.59220623780195        3.43891033403916       -1.14153770678349
C           27.80635213814693        2.85896601278241       -0.80958301300867
N           27.54439083347704        1.57374107399332       -0.37971989391114
C           29.20908558497067        3.53216932636753       -0.92586063947502
C           29.26908315794556        5.00224524939977       -1.14524030957681
C           29.25479926908702        5.52296561907051       -2.44595995578818
C           29.28971034946212        6.90030185652078       -2.65772925874531
C           29.34638316495423        7.76687627420066       -1.56811146516185
C           29.36487570662799        7.25722275991353       -0.26159577587147
C           29.43412702226918        8.21945591338987        0.86558484061704
O           29.25469287553513        7.63983288541872        2.06478419722713
O           29.61458652058983        9.41585414571588        0.76629518038662
C           29.32371193817753        5.87449544834976       -0.05165155131413
C           30.35480572733154        2.79178646570855       -0.83207632571090
C           31.68121861187941        3.37254048508436       -0.96320222315082
C           32.57471851096020        2.39379403852034       -0.83491906668907
C           31.84825825215295        1.16554699430595       -0.61019107342065
N           30.51741900511524        1.45142843819974       -0.61695263255490
H           33.60793101717137        0.01540811633870       -0.47200192738605
H           33.51791703008562       -2.69710066965861        0.11579533709550
H           31.58737766379601       -4.55986864569986        0.51299306669495
H           29.74716447444739       -0.84293002090606       -0.24400188283096
H           28.46992932815358       -4.92464953451444        2.64416801306349
H           28.65145599457904       -9.03660468604444        4.31615930763556
H           28.77414251426980       -8.88133297472270        0.92797687208041
H           29.04503092561158       -7.87605592468593       -1.32181921370438
H           29.03097510108148       -5.40651589841722       -1.58514109179779
H           26.12992366129275       -4.42538733190325        0.66889608185561
H           24.38229264869092       -2.56348254093700        0.55590320176981
H           24.52051530310882        2.62068697076382       -1.06812604432960
H           26.45751127835479        4.43901970079151       -1.52666257910233
H           28.25375020189654        0.88876449349998       -0.13161946840274
H           29.21580583223271        4.83463707378634       -3.28800742697080
H           29.27300415425151        7.29082672097166       -3.67242943198562
H           29.37613321736801        8.84129470882794       -1.73450388805049
H           29.32550532689103        8.36424625684315        2.71281043034101
H           29.34051804722604        5.45297378305407        0.95202730057480
H           31.90954532132556        4.40679149235290       -1.13707717786122
H           33.64200685566010        2.49346705772974       -0.88400456021988
C           21.75711681479831        0.01138522908795        0.00306020110933
C           20.56370608681400       -0.01478823971107        0.00148456980222
C           23.02362003352701        0.01340026090648        0.00448890112220
C           24.32839612371605        0.00119631341700       -0.00158128132050
130
 energy: -237.773063406744 gnorm: 0.282015942213 xtb: 6.5.1 (b24c23e)
C           12.41676712139123       -0.13908921051768       -0.40193776331702
C           13.08187645015858        1.13927551892476       -0.69208780632703
C           12.45796522653662        2.36092524517138       -0.96608964004352
C           13.45741914578554        3.32074715321540       -1.17303290526498
C           14.70507387306089        2.69872365779726       -1.03090442820512
N           14.44192142455766        1.37545846822735       -0.73231510507287
C           16.05374123811879        3.34103446598938       -1.14925943816270
C           16.11966306419462        4.77608484166656       -1.58095115059237
C           16.30177688567705        5.81453424558607       -0.66092185371303
C           16.29755280560427        7.14693012771919       -1.08735534295504
C           16.48252319935656        8.22745014550109       -0.08347586584037
O           16.07664168183423        9.43274335797652       -0.52371209560134
O           16.93874345930048        8.10551738006006        1.02567184792788
C           16.12708957353442        7.44703609537664       -2.44390098598029
C           15.97908822988232        6.41858400159980       -3.36601203983131
C           15.98007886188221        5.09394763642211       -2.93820458870801
C           17.23068046315866        2.67239629001495       -0.89320935045289
C           18.54366956920524        3.30456495594196       -0.94668565920864
C           19.45239954275850        2.38267083319184       -0.59559432089876
N           17.40355055831696        1.35897767138846       -0.53614942048732
C           18.70695504390852        1.15350098932362       -0.35028913949743
C           19.29920499515187       -0.05558582659952       -0.00762085991222
C           18.67880852896381       -1.38701435449020        0.16843811920207
C           19.30540258205972       -2.63429664868273        0.20218032627146
C           18.30294918602773       -3.60122536125398        0.36980440606066
C           17.06813751906538       -2.94801512958458        0.43350551299150
N           17.33538094845507       -1.59942040897649        0.29660067672816
C           15.72295781704537       -3.57569641390576        0.59692381093956
C           15.64831192612785       -5.01950730385734        0.99860152677560
C           15.64733965158913       -6.03360241739337        0.03182814337685
C           15.60749314509219       -7.37563380161631        0.40252673947746
C           15.55087646059433       -7.72335019886818        1.74539273245496
C           15.53190539932566       -6.72535424730591        2.72559021975953
C           15.46674444504567       -7.14281547739000        4.15106936630449
O           15.64066184777352       -6.12761282762963        5.01219637331751
O           15.28478017157354       -8.26978492771910        4.54204158132955
C           15.57798886415315       -5.37746441190145        2.35007450077197
C           14.54680239087801       -2.87832600116658        0.38500825090754
C           13.21916545677084       -3.47863721158534        0.50409235503836
C           12.32059729438889       -2.52695548241090        0.21842039060305
C           13.06279251951780       -1.31042605467073       -0.08015014056969
N           14.39479652264457       -1.56777530985484        0.03043929393024
H           11.32315420979338       -0.17825354982974       -0.42969914849232
H           11.38844095649856        2.51348581590420       -1.00000633512511
H           13.30867834058582        4.36637620218594       -1.39838504213530
H           15.15252553137954        0.67062153739974       -0.56754852278857
H           16.42736246220449        5.57889268686110        0.39237251833391
H           16.24391960887586       10.02239382248479        0.23311435170491
H           16.12395212305622        8.47870208779298       -2.78379975640297
H           15.85489432486870        6.64392324538809       -4.42237715273619
H           15.86594550017016        4.28743242168899       -3.65727708361665
H           18.76008644047289        4.32445948182665       -1.20492055079412
H           20.51634498438462        2.55300096911589       -0.53835305225448
H           20.36654444245101       -2.82434970872664        0.10112005244400
H           18.44363608187592       -4.67031161438633        0.42493107496724
H           16.63411744174455       -0.87012587033989        0.24411080784209
H           15.68363022947396       -5.75773218882312       -1.01793985137142
H           15.62432711770058       -8.14909342186266       -0.36134770271829
H           15.52193991795040       -8.76982882816020        2.03804212797882
H           15.57365991862943       -6.51572964564404        5.90164781871022
H           15.55917777412070       -4.59099096385030        3.09931058085596
H           12.99661100599389       -4.49673504152525        0.76953550806788
H           11.24946320227459       -2.63201357824588        0.21254995255996
C           32.48146624886876       -0.03722487294686       -0.42375169581888
C           31.81627443295816       -1.32238049918643       -0.16515829930555
C           32.44014466283674       -2.54916187369722        0.08495054472173
C           31.44056328603564       -3.50949283872098        0.28904779800422
C           30.19275626062586       -2.88371588212075        0.16411422904578
N           30.45628308982731       -1.55417000237311       -0.10520120546345
C           28.84345651099677       -3.51686816227976        0.31883288423879
C           28.77833964617523       -5.00365726676084        0.51256105547175
C           28.59641981615955       -5.57496162374079        1.77704569981266
C           28.60065396668165       -6.96525572758733        1.93345910301505
C           28.41568646244633       -7.54024470690231        3.29172884655002
O           28.82155914671551       -8.82013374940351        3.38346241735023
O           27.95945705302808       -6.97496912969587        4.25377475295114
C           28.77110687388412       -7.79443637175580        0.81868921901117
C           28.91910253913474       -7.23349538996906       -0.44358634546673
C           28.91807873853588       -5.84970854116804       -0.59549635009223
C           27.66524447738627       -2.80193094032102        0.27882280461232
C           26.35331913247402       -3.40197831592684        0.48887654264826
C           25.44129438427250       -2.41966243393824        0.43220298112303
N           27.48566394751046       -1.45684525089573        0.06870660162562
C           26.17744330914257       -1.19627139257495        0.15251994402762
C           25.59197304576103        0.05121860477419       -0.02600313708943
C           26.21203550938964        1.33472264366232       -0.41229887722299
C           25.59038723688345        2.48666169115785       -0.89449837103095
C           26.59467873127578        3.43671799195764       -1.13670620796298
C           27.82857408644188        2.86618541898320       -0.81093846192657
N           27.55860050710749        1.57990836865507       -0.38349992482875
C           29.17482692513892        3.50675178942767       -0.91912126516515
C           29.24971743512040        4.98865515608969       -1.14374569075974
C           29.25082781432540        5.51824295138542       -2.44093774078063
C           29.29069540541498        6.89444665469880       -2.65211433986964
C           29.34731865775666        7.76143027114261       -1.56927916564262
C           29.36628706138525        7.25212706200181       -0.26643844284618
C           29.43145746719868        8.21656337060579        0.86322629566614
O           29.25754083254391        7.64284405034419        2.06449346991603
O           29.61342152054323        9.40482924824178        0.75860484781303
C           29.32018787481423        5.86860288507751       -0.05728586337941
C           30.35106625706230        2.78407996853910       -0.82708271379214
C           31.67891136845996        3.38052614446632       -0.96418343420171
C           32.57752223913576        2.39535902319284       -0.83525367818929
C           31.83533561309014        1.16314691457875       -0.60965054846795
N           30.50339678985004        1.44308701876412       -0.61406909863621
H           33.57505443813040       -0.01289402418903       -0.46510676363089
H           33.50969396993443       -2.70224825091131        0.11645927860980
H           31.58938302738873       -4.55576607372642        0.51147928038504
H           29.74570098021232       -0.84369101858821       -0.24340757699194
H           28.47082658950864       -4.92896642119182        2.64169120250249
H           28.65428296767433       -9.04832598415170        4.31535508957561
H           28.77425333231981       -8.87486537799156        0.93089550827446
H           29.04330122716315       -7.87159286246767       -1.31513681943419
H           29.03224003548223       -5.40843502739021       -1.58178713029401
H           26.13857500464497       -4.43853188927733        0.67077181780652
H           24.37899920431318       -2.55265327841352        0.55458404408559
H           24.53024631094367        2.62010618052320       -1.06472814235146
H           26.45472550967413        4.43495174060410       -1.52412821078033
H           28.26090748928920        0.89341728058356       -0.13327787879797
H           29.21456146328071        4.83685818439182       -3.28582180425645
H           29.27387480733636        7.28744746862988       -3.66567944824132