310
 energy: -511.165726483365 gnorm: 0.000601211311 xtb: 6.5.1 (b24c23e)
C           64.89864248127839       -0.03676258567054        0.12507930937505
C           65.51203019024516       -0.91321033361949        1.01091426169681
C           64.86501316414034       -1.82333158058724        1.89274824703113
C           65.83134469534227       -2.49952426965445        2.58341519749631
C           67.09997669214520       -2.01526505886226        2.15491972507618
N           66.85624197855928       -1.06697178291255        1.20168527457691
C           68.36495551823154       -2.42904251565828        2.58814413707572
C           68.40025323954893       -3.46487426471796        3.64825234603295
C           69.01760879060450       -4.69709582513931        3.41957985563552
C           69.04784837249927       -5.66912605671424        4.40361926144864
C           68.47015706440031       -5.42199027750237        5.65157364928276
N           68.46422527138056       -6.40616819168534        6.62538030547975
C           67.84624899591704       -4.19426025864056        5.88678190341771
C           67.81235006129549       -3.23117282001452        4.89368331930269
C           69.57827785279240       -1.93925574943036        2.09644414397830
C           70.87604708876763       -2.34530133666565        2.60294050770244
C           71.79544979640441       -1.66220868869715        1.88970866799871
N           69.73183878129315       -1.01361487351913        1.10944173700529
C           71.06014951341608       -0.82987209857010        0.95871891546607
C           71.69590522731207        0.02165974725982        0.03263660513870
C           71.05527196990077        0.86405930245057       -0.89561719176880
C           71.69187457311955        1.70758292907836       -1.84332065377191
C           70.72034345248997        2.36752972567455       -2.54375126737224
C           69.45758277156440        1.95848833105802       -2.03390576442252
N           69.71171785926661        1.04336921074300       -1.04608879131713
C           68.19379257633705        2.38263238670457       -2.46092369954639
C           68.15649320055169        3.40071879671833       -3.53711561638484
C           67.52115063028130        3.12798965132837       -4.75123243634314
C           67.48376848484986        4.07301531021266       -5.76100587345536
C           68.07190250129553        5.32601663114584       -5.57082161812701
N           68.06965204411861        6.26051465205492       -6.59256616839839
C           68.71345377005346        5.60537331911546       -4.36155920207110
C           68.75440023708725        4.65098318247748       -3.36048377784222
C           66.97935843402277        1.91832411127189       -1.94385141436219
C           65.67449293159534        2.41392794188533       -2.35262584415613
C           64.76244046885304        1.73382105687575       -1.62852013273719
C           65.50922026110869        0.83223727514243       -0.76993556097874
N           66.84047497641042        0.97553989582059       -0.98150249434614
H           63.81330242478645       -0.03933344094751        0.13933203505697
H           63.79608680166152       -1.94204973819421        1.97247235184332
H           65.68367946094642       -3.27395898287292        3.31856368473619
H           67.57847731855622       -0.55931362340365        0.70179932448138
H           69.46048399010674       -4.89996304392915        2.45066498706241
H           69.52086345634932       -6.62576310575774        4.21035056428500
H           68.34568836515655       -6.07062325143987        7.56800942316319
H           69.18677618253828       -7.10196874833380        6.53039108677523
H           67.39291839648851       -3.99761776847656        6.85228279675509
H           67.34326180837839       -2.27340333906960        5.09149998982441
H           71.04159876644867       -3.04708924981188        3.40428937251794
H           72.86961328688477       -1.70289772847678        1.96935691012282
H           72.75855835750349        1.79305762500301       -1.96991980365848
H           70.86406045673483        3.06951319435985       -3.34878934871206
H           68.99371319788079        0.56613212432134       -0.51096134315203
H           67.07025486188446        2.15453247324839       -4.91003915262211
H           66.99692212075196        3.84510113144851       -6.70299258281921
H           67.33607253688275        6.14333920605879       -7.27326894030913
H           68.19918648168751        7.21462061642200       -6.29576377007412
H           69.17459042200576        6.57513936244303       -4.20906696187779
H           69.23649275474598        4.88394823122113       -2.41723843792369
H           65.50382500345393        3.18795734186044       -3.08362096025744
H           63.68699107400695        1.81906392004896       -1.64475276284028
C          115.25131532136156        0.09091403243594       -0.10440475833109
C          114.64120810066409        0.73907013504402       -1.17080021354586
C          115.29187097542797        1.36501877588689       -2.27047623753573
C          114.32905584221591        1.88960855544731       -3.08670300859720
C          113.05932622924728        1.61109465840960       -2.50591231269864
N          113.29838022996641        0.90653546104953       -1.35967466513304
C          111.79646920924344        1.96540165661603       -2.99541392155019
C          111.76284511515158        2.76737975297707       -4.24106066500932
C          111.10396223843424        2.28967968075501       -5.37679535612256
C          111.07411344844152        3.03090453311847       -6.54452815460707
C          111.69374018930380        4.28213029830825       -6.59697994203653
N          111.69981055000065        5.00935623904814       -7.77506668809233
C          112.35786359656608        4.76580612845706       -5.46694711121069
C          112.39124767382708        4.01343423165901       -4.30612184214517
C          110.58271308163748        1.62106353493479       -2.39368977395992
C          109.28817073395105        2.07106239292740       -2.87047754343702
C          108.36815056510800        1.53816554575307       -2.03922989705879
N          110.42775490016203        0.84950484342729       -1.28228519909760
C          109.10105172178012        0.77018040360609       -1.05241900142896
C          108.46378646507911        0.06090239225643       -0.01404295578952
C          109.09955750420242       -0.64633219851886        1.02385480869682
C          108.45812149920278       -1.40514452177873        2.03777725229052
C          109.42582862512074       -1.93232623636603        2.84791996550830
C          110.69000046651131       -1.50513086876244        2.35673565065622
N          110.44111227621362       -0.73832001089495        1.24874219557131
C          111.95234506275850       -1.81897054833056        2.87408386199418
C          111.98678719787299       -2.63712495998641        4.10836848347805
C          112.64115173368776       -3.87174256266778        4.12423924605576
C          112.67475001210767       -4.64296474796313        5.27218921409028
C          112.06348871887820       -4.18557881966626        6.44238779422170
N          112.06252135505159       -4.97139882176372        7.58228113605500
C          111.40251765416052       -2.95467114517886        6.43408082672296
C          111.36521958597140       -2.19420823562488        5.27868887461658
C          113.16745000446470       -1.42058319556372        2.30528013194611
C          114.47183187866999       -1.69752428593669        2.88578839289291
C          115.38478337865962       -1.16514760932781        2.04790808350410
C          114.63905741812769       -0.55304284058586        0.96308210522720
N          113.30730379399886       -0.71660157382039        1.15678274762090
H          116.33673287734624        0.09272410156178       -0.11479368799093
H          116.36063142156365        1.39672338155472       -2.41120099541106
H          114.47989401899380        2.41494949639220       -4.01582235287439
H          112.57348877175508        0.55364907918906       -0.74380875183318
H          110.62810771506402        1.31563522727013       -5.34669452324597
H          110.56896636180105        2.64414196690022       -7.42288957782651
H          111.85529809979747        5.99853602894339       -7.66335885772179
H          110.95614495181121        4.78510223841117       -8.41678661638763
H          112.84274536049222        5.73534733189661       -5.50209948300598
H          112.89148154292998        4.40585932671475       -3.42734708748737
H          109.12609608648953        2.72249152490584       -3.71402361109502
H          107.29664086560672        1.65550097665557       -2.06196214646315
H          107.39188104376088       -1.53788162987530        2.12282206144557
H          109.27920110800603       -2.57329693479059        3.70188147249105
H          111.16236891572751       -0.31760274628691        0.67223749025042
H          113.10937438947259       -4.23850149485375        3.21739139596182
H          113.17625935320757       -5.60460599602919        5.26824324213546
H          112.80515491094154       -5.65064756889059        7.63055300806946
H          111.91366451352327       -4.47056710054755        8.44376031972385
H          110.92318587000584       -2.59570710382728        7.33839242913780
H          110.86744918533782       -1.23057166674806        5.28716908726538
H          114.64188747531765       -2.21502997516504        3.81632463175529
H          116.46028808636312       -1.16264188983920        2.13400804870864
C           73.10603112204981        0.04000795589661        0.02446226346516
C           74.32336534824127        0.05891390943542        0.01552315190812
C           84.02357350767258        0.06927034459802        0.01055162919615
C           85.24231797271548        0.06190354919711        0.00454792262959
C           94.93454133958316        0.01735151996683        0.01190349480125
C           96.15329102747467        0.01655446787885        0.01173138989939
C          105.83779717488579        0.03667143922416        0.00746538442685
C          107.05507519537090        0.05088620191381       -0.00317183945292
C           75.73245178211145        0.07298410382419        0.01719995474693
C           76.36276041451119       -0.21472679172745        1.24317878182625
C           75.72339785460495       -0.53266360265565        2.46837652452869
C           76.69217189998511       -0.69145576212722        3.42170866558089
C           77.95271874239056       -0.45891297799982        2.80875368125564
N           77.70401672268768       -0.19136438539664        1.48878841353920
C           79.21051698942210       -0.48074503571957        3.42580771584520
C           79.22677067265639       -0.72566901336026        4.88747625597940
C           79.92132235598581       -1.81731886033426        5.41528980701185
C           79.93580932215787       -2.05839856662856        6.77737266513401
C           79.26446468876051       -1.19707109040164        7.64898472510955
N           79.24353633392417       -1.45709259525187        9.00866775179733
C           78.56567315302938       -0.10436716730896        7.12959233910909
C           78.54802525858831        0.12363674900876        5.76497318320946
C           80.43332597065813       -0.29058266376836        2.77865378118114
C           81.70660455850150       -0.21411980224129        3.47034713857468
C           82.64971654568066       -0.05474860303671        2.51805564256645
N           80.62228561340635       -0.14914046789082        1.43714190475763
C           81.95252758488570       -0.02981419009111        1.24919856011153
C           82.61721312583708        0.07970361823264        0.00979427581806
C           81.98437705564368        0.20153059968942       -1.24360005649747
C           82.61849529149433        0.25122654098313       -2.51039341229878
C           81.64938337057738        0.42159706781742       -3.46174423763721
C           80.39323697936672        0.48459040610684       -2.80115333202951
N           80.64472375674434        0.32855811832821       -1.46386683539806
C           79.13607327772293        0.66498917951367       -3.39341274544613
C           79.12586284129107        0.90810647633581       -4.85538213889690
C           79.80849080939754        1.99893508089110       -5.39998641966973
C           79.79462445665654        2.23719879511229       -6.76281775345311
C           79.09615799742208        1.38016459853378       -7.61707037940524
N           79.11811149580704        1.58810716591329       -8.98559204196791
C           78.42477213188086        0.27747211917593       -7.08259468687230
C           78.43566593988965        0.05225074648717       -5.71770678476252
C           77.91178865481665        0.62942552642446       -2.72214691728494
C           76.63315847342128        0.87899988465988       -3.36184882903531
C           75.69014918895355        0.70575808844937       -2.41218433728636
C           76.39315688030841        0.36932428558005       -1.19146149237977
N           77.72573912231577        0.34719536932772       -1.40309690665793
H           74.65805017622843       -0.62583240484162        2.59987031019659
H           76.54617809974009       -0.95448511410367        4.45656139423528
H           78.41911286616238       -0.00498946640087        0.79373254120517
H           80.43767063625587       -2.49501710207457        4.74430675419180
H           80.46882010098828       -2.91585122762461        7.17353970482070
H           80.00762129583158       -2.02100867460648        9.34522430291024
H           79.03943678390495       -0.66025703722164        9.59048559281277
H           78.04108127168057        0.56676209300349        7.80095579950386
H           78.02011215597651        0.98599771302513        5.37249369127102
H           81.83907859057332       -0.25531573310105        4.53941841625988
H           83.71451219361101        0.05738270593545        2.64155218017981
H           83.67948778111460        0.15491770224275       -2.67051293963836
H           81.79084355098801        0.48268538223781       -4.52840263631662
H           79.93179389911835        0.30290654630877       -0.74267926384979
H           80.33674276212157        2.68045473375950       -4.74199174064319
H           80.32142917839808        3.09251358604618       -7.17182618855566
H           78.35665220126479        1.16511569476433       -9.49200796375525
H           79.31827778988122        2.53413981304774       -9.26862630117392
H           77.89390772684274       -0.39998574421255       -7.74250469328330
H           77.91992927998837       -0.81116029836328       -5.31203954885465
H           76.49515523576206        1.16078331374401       -4.39315666893506
H           74.62005740000585        0.79531076692250       -2.50620218974621
C           86.64838880009121        0.05349700262193        0.00778744267706
C           87.27877042247579       -0.34202247593115        1.20510300095847
C           86.64612213384376       -0.81189392567827        2.38302646339693
C           87.61367275939428       -1.01429829401487        3.33040157693348
C           88.86638487246843       -0.66718640768850        2.75801053106304
N           88.61639564315553       -0.29275445374929        1.46463373419587
C           90.11869485217740       -0.67244638008081        3.38826328498603
C           90.13130602085451       -0.98278220672506        4.83579283198729
C           90.90012490995765       -2.04024192716386        5.33028117809900
C           90.91315846983946       -2.33820448166666        6.68088574249483
C           90.16455283260250       -1.56954261311565        7.57603405434764
N           90.14437041816173       -1.88865687518569        8.92280847523547
C           89.39041637154533       -0.51252916385638        7.09045535845749
C           89.37530984080620       -0.22771413604282        5.73676329551668
C           91.33813648705008       -0.40952085914760        2.75962921406933
C           92.60389739529522       -0.30439765456664        3.46101126150644
C           93.54884834214253       -0.10890599474735        2.51683617236308
N           91.53123427302197       -0.24022292119114        1.42205884511135
C           92.85968161321111       -0.09004829985176        1.24372723931714
C           93.52855777064393        0.02367130021246        0.00698777116759
C           92.89727543491782        0.14429144668515       -1.24772372192921
C           93.52814204489013        0.17553064615247       -2.51640528739226
C           92.56058641461750        0.37386945674226       -3.46470154632807
C           91.30978562171188        0.47586985157225       -2.79950700541798
N           91.56066426740634        0.30436892086077       -1.46411302388489
C           90.05831923484385        0.73144008189176       -3.37754500323068
C           90.04395208775045        1.01942958202566       -4.82961930321323
C           90.80891256449878        2.06115030360830       -5.36171063146078
C           90.79108825596825        2.33510376017154       -6.71763164742285
C           90.00505342774180        1.56474987352220       -7.57849284694655
N           90.02180004851620        1.80432855576253       -8.94171490152267
C           89.24749349589173        0.51262697940029       -7.05725347109776
C           89.26344558631695        0.25197307546721       -5.69902369845282
C           88.84031273905588        0.73387580464997       -2.69329408642513
C           87.57706413974896        1.12222798290514       -3.29202799400669
C           86.63220117453758        0.93446825696295       -2.34618887446769
C           87.31869387166604        0.43702663559775       -1.17268948674652
N           88.64610985422669        0.35786009780714       -1.39871030078262
H           85.58768300667511       -0.98516051802715        2.48487917500220
H           87.47257927273063       -1.38562019321738        4.33226772510021
H           89.32885691767237       -0.02181014498288        0.79537220744836
H           91.47600075485374       -2.64804265876745        4.64108561776809
H           91.50499150095709       -3.16866310613078        7.05010934636439
H           90.94255794398609       -2.41024541718410        9.24833723883916
H           89.87345000813517       -1.13546317482351        9.53466472256871
H           88.80556129799136        0.08670551247098        7.77982472916671
H           88.78842372460913        0.60831357751053        5.37198204523395
H           92.73064819007809       -0.35123801605314        4.53057422381278
H           94.60947636064421        0.03066668865356        2.64860972334854
H           94.58529270308740        0.04801690539742       -2.68047492141059
H           92.70035839352559        0.42917296234973       -4.53190445138328
H           90.84918808864693        0.29282580121677       -0.74122674928994
H           91.40497677168915        2.67866555376626       -4.69852096095725
H           91.38294581353088        3.15191161069711       -7.11626677283296
H           89.21786298111509        1.46223608369675       -9.44350829089684
H           90.30110745260824        2.73531570849922       -9.20688057917589
H           88.64636567572232       -0.09771435329326       -7.72236888190449
H           88.68042371448733       -0.57272563424907       -5.30405498276290
H           87.45207455617822        1.50737149697309       -4.29115808979434
H           85.57339047421361        1.12585099907517       -2.40915658906877
C           97.55961957745382        0.01748944664035        0.01563413198524
C           98.19100807925157       -0.38696421871962        1.20920785012378
C           97.55543989541535       -0.86085720527049        2.38431873770299
C           98.52298017334870       -1.08983644641437        3.32526024896371
C           99.77923713154711       -0.75740980493651        2.75158384968186
N           99.52998335907175       -0.35845035534991        1.46517743951439
C          101.03483549993629       -0.81263888172611        3.37212620843646
C          101.04761781731230       -1.16494594962503        4.81086226230897
C          101.77137244667232       -2.26923584137480        5.26881038244209
C          101.78695139822794       -2.60064073443188        6.61175423369973
C          101.08699019717095       -1.81972999894887        7.53514869864869
N          101.07032340346019       -2.16932476005054        8.87456923145960
C          100.35615041789228       -0.71705873895285        7.08549924163617
C          100.33763440681173       -0.39879168792134        5.73924000318381
C          102.25681377480419       -0.56104738582858        2.74399599747087
C          103.53248965754553       -0.53502802253302        3.43569296359017
C          104.47317912152582       -0.30568461287312        2.49518884695691
N          102.44101966375582       -0.31744669542605        1.41709718330305
C          103.77068116096210       -0.18254559951795        1.23443114005210
C          104.43013267324400        0.03033557290883        0.00759929484756
C          103.80179594182829        0.24201507087260       -1.23481764803797
C          104.44207006402827        0.38259752893002       -2.49227840509809
C          103.47517075298451        0.60579716578865       -3.43513011451504
C          102.21584071314504        0.61700722569737       -2.77748937608359
N          102.46245202322729        0.37318382624758       -1.45265373449086
C          100.95860471564613        0.84587206852837       -3.35269706226530
C          100.93952505259257        1.18078378461419       -4.79532879076467
C          101.64856137072755        2.27997403748960       -5.28690029011773
C          101.62847145824476        2.59308919272704       -6.63443011816437
C          100.89673621458654        1.80523562158486       -7.52665359475252
N          100.91417777933493        2.08561335494494       -8.88220479274460
C          100.19490032128502        0.69691294418160       -7.04554889208368
C          100.21221023386869        0.39697470651757       -5.69540202524972
C           99.73852107219280        0.78100670485168       -2.67559976443788
C           98.46553498391157        1.13975923233722       -3.27215966585566
C           97.52507163473176        0.91279814545237       -2.33088810655746
C           98.22357648874912        0.41924760420603       -1.16242060823803
N           99.55258924298879        0.37636131312012       -1.38829780865658
H           96.49465685293723       -1.01793533117878        2.48849704253369
H           98.38020988980747       -1.47006176020327        4.32355830659835
H          100.24459835217522       -0.08716062169025        0.79827058391358
H          102.30995909476857       -2.88571839478133        4.55751730494140
H          102.34374287237664       -3.46653694617445        6.95305466663785
H          101.84862177192728       -2.73358385199740        9.17626884995890
H          100.84328170879435       -1.41864314493425        9.50707294491880
H           99.80813434060879       -0.10873502957439        7.79684293864896
H           99.78477282807684        0.47126136002790        5.40188742339163
H          103.66881539825116       -0.65555629649577        4.49827685624860
H          105.53947407400094       -0.20787365168349        2.62197140458484
H          105.50525795756774        0.30793842499682       -2.65222886089108
H          103.62116542306175        0.73698829661220       -4.49483234832589
H          101.74567316305058        0.29139044723495       -0.73948479378360
H          102.20206072538502        2.90969017930553       -4.59877948029229
H          102.17674120308862        3.45368043568946       -7.00207076891047
H          100.13567269127546        1.71439353448368       -9.40300948300977
H          101.14306534526152        3.03837982371255       -9.11654244009469
H           99.63618997360675        0.07370298543147       -7.73525592926911
H           99.67268289671458       -0.47037090923985       -5.33112787036333
H           98.33161479513151        1.53326236332983       -4.26684842589677
H           96.46137493232101        1.07477493302154       -2.39369094863363
