193
 energy: -384.356293025627 gnorm: 1.360644322640 xtb: 6.5.1 (b24c23e)
Ni          32.54472100000000       -0.05000700000000       -0.02159700000000
C           29.21158100000000        0.10100500000000        0.08481200000000
C           29.87839300000000        1.25795100000000        0.06341300000000
C           29.23002200000000        2.56356900000000        0.06220800000000
C           30.17366300000000        3.48564000000000        0.05424800000000
C           31.47880900000000        2.81059000000000        0.05217900000000
N           31.29882700000000        1.39436400000000        0.05721500000000
C           32.67275900000000        3.43548100000000        0.08209700000000
C           32.71028400000000        4.91418500000000        0.08961100000000
C           32.50094400000000        5.62945900000000       -1.09736300000000
C           32.52259800000000        7.02779900000000       -1.09442500000000
O           32.30832200000000        7.70897600000000       -2.29281300000000
C           32.75566300000000        7.72345700000000        0.10572600000000
O           32.77129100000000        9.11899000000000        0.10166100000000
C           32.96943800000000        7.00744400000000        1.29781900000000
O           33.20228300000000        7.69014200000000        2.49045900000000
C           32.94696100000000        5.60621400000000        1.28442500000000
C           33.97096700000000        2.71137600000000        0.12045200000000
C           35.27024000000000        3.38090200000000        0.25187600000000
C           36.20456600000000        2.45373300000000        0.23722200000000
N           34.10559000000000        1.42360200000000        0.01986700000000
C           35.51146099999999        1.17983100000000        0.08569400000000
C           36.10667000000000       -0.02087800000000       -0.02270300000000
C           35.35371100000000       -1.28640900000000       -0.20285400000000
C           35.91899999999999       -2.44835000000000       -0.50798100000000
C           34.87150400000000       -3.44741000000000       -0.53817900000000
C           33.72981500000000       -2.83324300000000       -0.25212300000000
N           33.94356600000000       -1.43652500000000       -0.02583400000000
C           32.42070400000000       -3.52695700000000       -0.13365400000000
C           32.40188800000000       -5.00573800000000       -0.15226000000000
C           32.54851800000000       -5.72374100000000        1.04114900000000
C           32.52723400000000       -7.12220200000000        1.03229100000000
O           32.66896300000000       -7.80748700000000        2.23902300000000
C           32.36390700000000       -7.81416900000000       -0.18169400000000
O           32.34707700000000       -9.20960300000000       -0.18271000000000
C           32.22200300000000       -7.09438800000000       -1.38223800000000
O           32.06456300000000       -7.77379100000000       -2.58944700000000
C           32.24017600000000       -5.69307600000000       -1.36222400000000
C           31.25803000000000       -2.86178200000000       -0.01155900000000
C           29.93410000000000       -3.46995300000000        0.10715600000000
C           29.07509000000000       -2.47130900000000        0.15889100000000
C           29.84120000000000       -1.22867800000000        0.07889800000000
N           31.11593300000000       -1.44343100000000       -0.02154700000000
H           28.12869800000000        0.13379000000000        0.10943300000000
H           28.16539500000000        2.75932900000000        0.07132200000000
H           29.98998200000000        4.55228900000000        0.06080500000000
H           32.31721300000000        5.09913700000000       -2.02405400000000
H           32.31329600000000        8.72041600000000       -2.34578800000000
H           32.92166500000000        9.65924500000000        0.94466700000000
H           33.35859700000000        7.19781700000000        3.36238100000000
H           33.10968800000000        5.05561400000000        2.20308500000000
H           35.45380699999999        4.44346200000000        0.34178900000000
H           37.26835400000000        2.63690900000000        0.31197700000000
H           36.96865200000000       -2.63325800000000       -0.68995500000000
H           35.00639799999999       -4.50217600000000       -0.74112300000000
H           32.67569300000000       -5.19598500000000        1.97859700000000
H           32.65064700000000       -8.81855300000000        2.28939000000000
H           32.23318400000000       -9.74772000000000       -1.03313700000000
H           31.96472500000000       -7.27949200000000       -3.46886500000000
H           32.12983600000000       -5.13959300000000       -2.28726800000000
H           29.68220900000000       -4.52211200000000        0.14164900000000
H           28.00009100000000       -2.56911300000000        0.24233600000000
Ni          60.89923399999999        0.00793900000000       -0.01830300000000
C           64.23237300000000       -0.15416100000000        0.07030500000000
C           63.56556100000000       -1.30122600000000       -0.08209200000000
C           64.21393200000000       -2.59829400000000       -0.23127400000000
C           63.27029200000000       -3.51352000000000       -0.34369600000000
C           61.96514500000000       -2.84258600000000       -0.26923700000000
N           62.14512700000000       -1.43605700000000       -0.10371200000000
C           60.77119500000000       -3.46684100000000       -0.31034200000000
C           60.73367100000000       -4.93686700000000       -0.47048000000000
C           60.94301000000000       -5.51299300000000       -1.73087800000000
C           60.92135600000000       -6.90265400000000       -1.88645500000000
O           61.13563300000000       -7.44361100000000       -3.15432800000000
C           60.68829200000000       -7.72986200000000       -0.77288700000000
O           60.67266300000000       -9.11594100000000       -0.93510400000000
C           60.47451700000000       -7.15358100000000        0.49268000000000
O           60.24167099999999       -7.96706000000000        1.60025400000000
C           60.49699300000000       -5.75986300000000        0.63819600000000
C           59.47298799999999       -2.75175000000000       -0.19015900000000
C           58.17371400000000       -3.43185700000000       -0.13547000000000
C           57.23938800000000       -2.50900200000000       -0.04493900000000
N           59.33836400000000       -1.46087300000000       -0.14413300000000
C           57.93249299999999       -1.22613400000000       -0.05110000000000
C           57.33728400000000       -0.02087800000000       -0.02270300000000
C           58.09024300000000        1.25691700000000       -0.05825100000000
C           57.52495400000000        2.44595600000000       -0.22971100000000
C           58.57245000000000        3.44200000000000       -0.14647500000000
C           59.71414000000000        2.79936800000000        0.06812500000000
N           59.50038899999999        1.38600200000000        0.13464400000000
C           61.02325000000000        3.47518300000000        0.26446000000000
C           61.04206599999999        4.94654300000000        0.41358700000000
C           60.89543599999999        5.52465100000000        1.68068700000000
C           60.91672000000000        6.91510500000000        1.83039600000000
O           60.77499200000000        7.45919500000000        3.10702500000000
C           61.08004699999999        7.74021200000000        0.70266600000000
O           61.09687800000000        9.12676800000000        0.85982200000000
C           61.22195100000000        7.16114600000000       -0.57172600000000
O           61.37939100000000        7.97300300000000       -1.69414800000000
C           61.20377899999999        5.76659500000000       -0.71067300000000
C           62.18592399999999        2.80045600000000        0.31037300000000
C           63.50985400000000        3.39125100000000        0.49725700000000
C           64.36886500000000        2.39318000000000        0.43546600000000
C           63.60275399999999        1.16762400000000        0.21514200000000
N           62.32802100000000        1.39237700000000        0.13968600000000
H           65.31525700000000       -0.18952500000000        0.09105000000000
H           65.27855900000000       -2.79382500000000       -0.24440800000000
H           63.45397199999999       -4.57403800000000       -0.45808100000000
H           61.12674200000000       -4.88105300000000       -2.59148700000000
H           61.13065900000000       -8.44252700000000       -3.32160400000000
H           60.52228999999999       -9.74826500000000       -0.15876600000000
H           60.08535800000000       -7.57673600000000        2.52235900000000
H           60.33426699999999       -5.31693800000000        1.61334300000000
H           57.99014800000000       -4.49776100000000       -0.16657300000000
H           56.17560000000000       -2.69947100000000        0.00857200000000
H           56.47530199999999        2.65029800000000       -0.38955300000000
H           58.43755700000000        4.51297100000000       -0.22855700000000
H           60.76826100000000        4.89404100000000        2.55227600000000
H           60.79330800000000        8.45803700000000        3.27166700000000
H           61.21077100000000        9.75781000000000        0.07586900000000
H           61.47923000000000        7.58156700000000       -2.62392500000000
H           61.31411800000000        5.32152900000000       -1.69249100000000
H           63.76174600000000        4.43272000000000        0.65078500000000
H           65.44386299999999        2.48089500000000        0.52945900000000
C           39.38611500000000       -0.00844100000000       -0.02026100000000
C           38.13384400000000       -0.02762200000000       -0.02461000000000
C           40.69978300000000       -0.00920700000000       -0.01832900000000
C           42.20291700000000       -0.02762200000000       -0.02461000000000
C           52.58331400000000       -0.00844100000000       -0.02026100000000
C           51.33104400000000       -0.02762200000000       -0.02461000000000
C           53.89698200000000       -0.00920700000000       -0.01832900000000
C           55.40011599999999       -0.02762200000000       -0.02461000000000
Ni          46.68222100000000       -0.03881100000000       -0.04735000000000
C           43.27259000000000        0.04606200000000        0.04937700000000
C           43.92905700000000        1.21469900000000        0.16894800000000
C           43.28746700000000        2.51375600000000        0.38137900000000
C           44.22552700000000        3.44016800000000        0.40362900000000
C           45.52433900000000        2.78867600000000        0.20633000000000
N           45.34640799999999        1.37706700000000        0.06491100000000
C           46.70929300000000        3.43289900000000        0.15429400000000
C           46.73901300000000        4.90856200000000        0.25756600000000
C           47.20151000000000        5.52151900000000        1.43099600000000
C           47.24414399999999        6.91867300000000        1.52978600000000
O           47.69708300000000        7.52925300000000        2.69971100000000
C           46.82914000000000        7.70950900000000        0.44894300000000
O           46.88165999999999        9.09890200000000        0.56470200000000
C           46.36675499999999        7.09851700000000       -0.73215200000000
O           45.95529300000000        7.88155200000000       -1.80958400000000
C           46.32264400000000        5.70041600000000       -0.82246500000000
C           48.01035300000000        2.73446000000000        0.00105200000000
C           49.28373200000000        3.42617200000000       -0.23401200000000
C           50.23750799999999        2.51735300000000       -0.26349200000000
N           48.17647299999999        1.45259900000000        0.10694100000000
C           49.57886300000000        1.23505700000000       -0.05159200000000
C           50.19391000000000        0.04606200000000        0.04937700000000
C           49.44496100000000       -1.21277800000000        0.24776600000000
C           49.98314100000000       -2.34434900000000        0.68413800000000
C           48.95068000000000       -3.36130500000000        0.62501700000000
C           47.85243600000000       -2.78152100000000        0.15431900000000
N           48.07411900000000       -1.39627500000000       -0.10529300000000
C           46.59373900000000       -3.49994400000000       -0.15789900000000
C           46.65566600000000       -4.96481800000000       -0.38083600000000
C           47.39044100000000       -5.47888000000000       -1.45618300000000
C           47.46181500000000       -6.85754800000000       -1.67158000000000
O           48.19305500000000       -7.32770100000000       -2.76306000000000
C           46.80310599999999       -7.74626700000000       -0.79973200000000
O           46.89736600000000       -9.11731600000000       -1.05306500000000
C           46.07092500000000       -7.22980100000000        0.29792800000000
O           45.39918600000000       -8.04709400000000        1.21053300000000
C           46.00683800000000       -5.84587200000000        0.49537500000000
C           45.41742599999999       -2.85147500000000       -0.26150300000000
C           44.13600399999999       -3.45337900000000       -0.61520400000000
C           43.24674500000000       -2.48306100000000       -0.55721400000000
C           43.94881600000000       -1.25381200000000       -0.17225100000000
N           45.21792800000000       -1.46180100000000        0.00019300000000
H           42.23106600000000        2.71242200000000        0.50629200000000
H           44.04066600000000        4.49611100000000        0.55155700000000
H           47.52675200000000        4.91387700000000        2.26735300000000
H           47.98784000000000        6.98479900000000        3.50791400000000
H           46.58905000000000        9.71389200000000       -0.18848900000000
H           45.59545300000000        7.46733200000000       -2.66190900000000
H           45.96892300000000        5.23045200000000       -1.73384400000000
H           49.43522900000000        4.49039300000000       -0.35963000000000
H           51.29090399999999        2.71535900000000       -0.41311000000000
H           51.00819799999999       -2.49574100000000        0.99676300000000
H           49.06797100000000       -4.40615400000000        0.88194000000000
H           47.90374800000000       -4.80631400000000       -2.13408200000000
H           48.27601200000000       -8.31533900000000       -2.97376000000000
H           46.44730700000000       -9.83081600000000       -0.49596300000000
H           45.39026900000000       -9.05557000000000        1.16784500000000
H           45.45056400000000       -5.45507000000000        1.33956800000000
H           43.92879400000000       -4.48118400000000       -0.88195300000000
H           42.19184400000000       -2.59726800000000       -0.77067700000000
193
 energy: -384.781226826962 gnorm: 0.536919864260 xtb: 6.5.1 (b24c23e)
Ni          32.55382533577141       -0.04514275751298       -0.01865112892128
C           29.21198535246359        0.08625920080969        0.08501704604722
C           29.88524997564251        1.25878770606498        0.06286699728409
C           29.22968272247370        2.55758785571851        0.06227784725078
C           30.18226270013055        3.48693087552486        0.05415908891858
C           31.47817920975872        2.80270127029074        0.05120857480882
N           31.28704861369420        1.40268379582750        0.05744479139728
C           32.68645009529936        3.43207138617279        0.08197221974283
C           32.71283719918430        4.91877077522182        0.08868775221089
C           32.50074894939806        5.63550006832809       -1.09597385885970
C           32.52272874273918        7.03808509553003       -1.09351450861698
O           32.30886917281372        7.70829689465017       -2.28945225370612
C           32.75729307513097        7.73035405476265        0.11446492498118
O           32.77096229173667        9.12059871122606        0.10022259453964
C           32.97063044968884        7.00534271208198        1.30400666978579
O           33.20205720856261        7.69184453658706        2.48990345311796
C           32.94745255947880        5.60789476012624        1.28292966249661
C           33.96369609716222        2.72305010881801        0.12058763864605
C           35.25871246663853        3.38844325791502        0.25129076821900
C           36.20431174088996        2.44739932354665        0.23663354785111
N           34.11288767865653        1.41415655522741        0.02157557545244
C           35.52096322756094        1.17574413093870        0.08567051144106
C           36.13144772889861       -0.03301997490806       -0.02560502720948
C           35.35348217385626       -1.27078586905921       -0.19708856754493
C           35.92056684901694       -2.46717913687400       -0.51045427797363
C           34.88993514857341       -3.44822980452512       -0.53981906707537
C           33.71827786678672       -2.82100212910689       -0.24688219913650
N           33.94636444969534       -1.43551622988126       -0.03070292332397
C           32.43354587112243       -3.51924171504256       -0.13366122966003
C           32.40655006284314       -5.00869251842586       -0.15201583005430
C           32.54852075586139       -5.72949647712391        1.03987746412291
C           32.52671835996708       -7.13238936636453        1.03132919958190
O           32.66835063902903       -7.80664671579486        2.23554321430150
C           32.36287397725009       -7.82096356780425       -0.19054389895262
O           32.34712503420864       -9.21117745041621       -0.18127179251991
C           32.22128824284820       -7.09200589181340       -1.38838127271478
O           32.06446617737067       -7.77525875664623       -2.58870395779976
C           32.24057094826851       -5.69406986574794       -1.36068440880225
C           31.25843541897154       -2.85838496398516       -0.01107399169726
C           29.94192084275372       -3.46914699585502        0.10650725382115
C           29.06865037468348       -2.46071022514451        0.15885590402575
C           29.82630258632969       -1.21917707414972        0.07917940616725
N           31.12108464503069       -1.44641506246873       -0.02074863966066
H           28.12905769248239        0.13012822307156        0.10967775285996
H           28.16575671177806        2.75385269460292        0.07127673511866
H           29.99679601688771        4.55241377631777        0.06054809810674
H           32.31763424054035        5.10142229739153       -2.02297721432862
H           32.31554222831890        8.70382847199617       -2.33269087115290
H           32.92020837889109        9.63993577575129        0.93667184480005
H           33.35479702873384        7.19824255631985        3.34194080720606
H           33.10956018337207        5.05616011202450        2.20239584642941
H           35.44796834366623        4.44606304011954        0.34172964857854
H           37.26752928021789        2.63051757025918        0.31151433720302
H           36.96931610468272       -2.63668911619651       -0.69049934687439
H           35.00962403152413       -4.50181234572219       -0.74175825694402
H           32.67564528977714       -5.19832258468251        1.97760337837304
H           32.64947508739794       -8.80195329500649        2.27621976803134
H           32.23448199443848       -9.72835237793901       -1.02499397911112
H           31.96728913429123       -7.27995235975050       -3.44811588963344
H           32.12999748358571       -5.14005518937028       -2.28648172816712
H           29.68884015100440       -4.52110266736674        0.14121627223975
H           27.99831882801058       -2.56419473860687        0.24250180378620
Ni          60.89011665847148        0.00277897096799       -0.01592606513215
C           64.23196071964975       -0.13956589656969        0.07217830436833
C           63.55873822189183       -1.30200450531325       -0.08272834801086
C           64.21428141194397       -2.59235814995949       -0.23052750114933
C           63.26168358653035       -3.51478329695016       -0.34392572861725
C           61.96580790571584       -2.83457451416689       -0.26930212897524
N           62.15688781334914       -1.44436798404718       -0.10444367546336
C           60.75736294614365       -3.46338798238130       -0.31007546926197
C           60.73110692679338       -4.94131657314075       -0.47191902239854
C           60.94321493035758       -5.51914458567131       -1.73018680581883
C           60.92122024833486       -6.91298753457954       -1.88674199218939
O           61.13510160988024       -7.44330271411891       -3.15086269308075
C           60.68665548699913       -7.73771545356012       -0.76498904187387
O           60.67299930613472       -9.11735909314995       -0.93670315185369
C           60.47332215533670       -7.15220039320246        0.49906383862556
O           60.24190125946339       -7.96868234902070        1.59950816376497
C           60.49650058903805       -5.76135742744711        0.63652765451279
C           59.48027609855077       -2.76332920574054       -0.19136177483894
C           58.18532634379535       -3.43934585179539       -0.13691020230313
C           57.23966727149060       -2.50280669283367       -0.04480231311970
N           59.33042678411979       -1.45121834261633       -0.14128742838399
C           57.92238153990077       -1.22239594403479       -0.05066705028904
C           57.30592393843335       -0.00858317609596       -0.02417503016742
C           58.08956111735744        1.24078822682852       -0.05426533549019
C           57.52329791657108        2.46502551314130       -0.23005439722902
C           58.55406300809664        3.44297345100683       -0.14799877761334
C           59.72561467049785        2.78650283091595        0.07194920716666
N           59.49709455282247        1.38525857537948        0.12962804703660
C           61.01039079201490        3.46751794738486        0.26358191561585
C           61.03739924692368        4.94946586362894        0.41416654073631
C           60.89543089318825        5.53051180378080        1.68009114456521
C           60.91722126887268        6.92537107983797        1.83062657012030
O           60.77564679288195        7.45871492312516        3.10342238277559
C           61.08106921095879        7.74802938022184        0.69464311592709
O           61.09687852213500        9.12806831442478        0.86141223681095
C           61.22265657924370        7.15950432184544       -0.57812241506127
O           61.37951608911219        7.97431647786965       -1.69320267455693
C           61.20338952529360        5.76740359700787       -0.70904757770452
C           62.18550792129310        2.79702541008356        0.31046617708989
C           63.50202989823378        3.39052106818086        0.49652021552398
C           64.37529816254087        2.38266454616535        0.43422994557725
C           63.61762762620433        1.15818682835072        0.21434638522194
N           62.32288486676507        1.39523334886858        0.14082927306730
H           65.31489002513523       -0.18591956493447        0.09170497659842
H           65.27819533513157       -2.78837849781884       -0.24383244030913
H           63.44714857458548       -4.57412439659901       -0.45835048852884
H           61.12631784157378       -4.88344518574767       -2.59068072435923
H           61.12840124356274       -8.42752047718819       -3.30672502114317
H           60.52374715497261       -9.72817091049666       -0.16452473946301
H           60.08915658875437       -7.57483925098709        2.50200315790436
H           60.33439314510616       -5.31740085195396        1.61260153420920
H           57.99600136846024       -4.50034003503939       -0.16693156579511
H           56.17637464852984       -2.69300043070329        0.00883420264495
H           56.47456605800203        2.65378911354068       -0.38971173176977
H           58.43434892402058        4.51264956869837       -0.22922686493175
H           60.76830682882150        4.89647375846263        2.55156060396987
H           60.79444675658466        8.44303739927226        3.25670374022281
H           61.20943652165715        9.73766153413210        0.08177911621335
H           61.47664703494078        7.57969487101040       -2.60326600498299
H           61.31395626271817        5.32189436780880       -1.69166462887055
H           63.75510970434915        4.43175801323873        0.65023873306578
H           65.44562651761629        2.47598645330342        0.52906521615539
C           39.36901672814937       -0.00998249387704       -0.02072220378366
C           38.10364423119832       -0.02937502441073       -0.02486073326953
C           40.70971715720661       -0.00874425205945       -0.01795781829070
C           42.03759078872077       -0.03738442955228       -0.02862743961929
C           52.64647476301587       -0.01143933352423       -0.02136760159779
C           51.41419508820669       -0.03934975037828       -0.02683239260109
C           53.98075444875597       -0.00921659678551       -0.01915636756801
C           55.37304602273113       -0.02419769851674       -0.02433968048230
Ni          46.68520280504412       -0.03375054070471       -0.03976376277314
C           43.32291230568202        0.03686530693934        0.04715712072199
C           43.96218199471078        1.23478318785211        0.17343099862793
C           43.28933506469642        2.50405903885898        0.38094692302292
C           44.23677345062703        3.44327680962889        0.40296854188767
C           45.52304680664877        2.78481257064681        0.20671045078135
N           45.34072455183139        1.39034224889682        0.06486156697325
C           46.72298743581547        3.43203582726082        0.15264758708527
C           46.74204088385318        4.91234356870419        0.25692106855025
C           47.20172511514441        5.52462706163129        1.42875527436549
C           47.24553527878770        6.91982297533920        1.53425782630795
O           47.69622248894996        7.52793040754634        2.69808053781401
C           46.82738207034144        7.71815653105003        0.44459658762810
O           46.88123086542370        9.09921393124124        0.56375815341598
C           46.36466157217610        7.09694930683479       -0.73664218389753
O           45.95563472836442        7.88282156395179       -1.80801334561458
C           46.32263597483191        5.70185174135020       -0.82047882076765
C           48.00086280964256        2.75346290157188        0.00193115340231
C           49.26974854601524        3.43615016381156       -0.23168494539475
C           50.23311902654762        2.50933216313009       -0.26224692911518
N           48.17470251602779        1.44888152233068        0.10134701445125
C           49.55164863954969        1.25110136699594       -0.05324945711363
C           50.13613172227329        0.03662691764183        0.05223114723427
C           49.41723554259504       -1.21152472414197        0.24377008351585
C           49.98117633909353       -2.36278728648179        0.68651137452792
C           48.96757916321712       -3.36409277841429        0.62740098640622
C           47.84114487141582       -2.77484101597146        0.14572105699916
N           48.06743765097453       -1.39990580536310       -0.09935524591361
C           46.60538632325365       -3.49625262861696       -0.15721119260236
C           46.66017938428307       -4.96813015849642       -0.37889950581713
C           47.39140262832006       -5.48447850288064       -1.45588103303892
C           47.46218424122563       -6.86732891512419       -1.67362464321556
O           48.19113253789929       -7.32764290202806       -2.76047774932671
C           46.79977420817981       -7.75310114193124       -0.79594567113536
O           46.89807378828964       -9.11950349436712       -1.05417495495102
C           46.07091573697677       -7.23662666114789        0.29750153423093
O           45.40032729166585       -8.04690156564188        1.20867596233405
C           46.00652455920473       -5.84987885463634        0.49364910566892
C           45.41809904724668       -2.85266962156088       -0.26231250068236
C           44.14434913301907       -3.45385902370206       -0.61367697291451
C           43.24143887947850       -2.47167268383934       -0.55492820020452
C           43.95491424869310       -1.25935817555567       -0.17423457565998
N           45.23215676171169       -1.47006242682700       -0.00610359874894
H           42.23171425754460        2.70365120712198        0.50511605236114
H           44.04723649382041        4.49668758755133        0.55099386849487
H           47.52631529574555        4.91501031378688        2.26612423342144
H           47.98032057049664        6.98636911972726        3.48737605304975
H           46.59138062983497        9.69350475843311       -0.18245692043424
H           45.60350479608501        7.46597283678881       -2.64230833185578
H           45.96947179325065        5.23104431513726       -1.73263056832598
H           49.42978964480606        4.49359688485889       -0.35910080981788
H           51.28850982353962        2.70740099366589       -0.41227827390454
H           51.00701267643587       -2.49774229261552        0.99754004755734
H           49.07142796621196       -4.40633054975973        0.88343508699210
H           47.90336178980846       -4.80865133429350       -2.13361440358591
H           48.26761693591912       -8.30106259133756       -2.96029803602579
H           46.45100852556043       -9.81113941899345       -0.49925577321347