207
 energy: -330.926941175656 gnorm: 2.165820612385 xtb: 6.5.1 (b24c23e)
Cu          33.48254700000000       -0.02073100000000       -0.02206700000000
C           30.12385900000000        0.18252900000000       -0.25737800000000
C           30.78817800000000        1.28336600000000        0.10409800000000
C           30.13852899999999        2.52685400000000        0.50154300000000
C           31.08124400000000        3.40269400000000        0.79169600000000
C           32.38696500000000        2.76192700000000        0.58438400000000
N           32.20780000000000        1.41337000000000        0.15131200000000
C           33.58213700000000        3.35743400000000        0.77065700000000
C           34.87745400000000        2.66597300000000        0.54283600000000
C           36.17422400000000        3.35261500000000        0.54373300000000
C           37.10740800000000        2.44964700000000        0.32666600000000
N           35.01032400000000        1.39172400000000        0.33089000000000
C           36.41378200000000        1.17464400000000        0.18337300000000
C           37.00537099999999       -0.01546700000000       -0.01561400000000
C           36.24680200000000       -1.28194200000000       -0.15672300000000
C           36.80399100000000       -2.48646600000000       -0.14040800000000
C           35.75675500000000       -3.45205000000000       -0.40038400000000
C           34.62258599999999       -2.77771800000000       -0.55518600000000
C           33.32063300000000       -3.40226700000000       -0.91381900000000
C           33.29556700000000       -4.84406200000000       -1.24838500000000
C           33.22909100000000       -5.25711300000000       -2.58664400000000
C           33.22444900000000       -6.62302300000000       -2.90614900000000
C           33.11866700000000       -7.06289400000000       -4.33647500000000
C           33.25225500000000       -7.57506000000000       -1.87519400000000
C           33.30931800000000       -7.16996900000000       -0.53335300000000
C           33.37606300000000       -8.20055500000000        0.55517800000000
C           33.34085600000000       -5.80157200000000       -0.22488300000000
C           32.16748900000000       -2.70786800000000       -0.92767700000000
C           30.84681900000000       -3.24830900000000       -1.24620000000000
C           29.99156500000000       -2.26380400000000       -1.05676200000000
C           30.75524800000000       -1.09586500000000       -0.62115600000000
N           32.02546600000000       -1.34285700000000       -0.54198900000000
N           34.84280600000000       -1.37250400000000       -0.40820300000000
C           33.63167000000000        4.76769900000000        1.21535800000000
C           33.31618700000000        5.80319000000000        0.32357800000000
C           33.35917200000000        7.13946600000000        0.74686500000000
C           33.03902800000000        8.24848200000000       -0.21167700000000
C           33.75980800000000        7.43757600000000        2.05789300000000
C           34.10083700000000        6.40901900000000        2.94893800000000
C           34.48316800000000        6.72979000000000        4.36359900000000
C           34.01972100000000        5.07413300000000        2.52692000000000
H           29.04090800000000        0.21950800000000       -0.27565600000000
H           29.07391500000000        2.71340700000000        0.56092000000000
H           30.89531100000000        4.41537900000000        1.12432600000000
H           36.35414900000000        4.40952500000000        0.69019600000000
H           38.16964599999999        2.64716100000000        0.27192400000000
H           37.84963000000000       -2.71793000000000        0.00977600000000
H           35.89231700000000       -4.52173500000000       -0.48682800000000
H           33.18500600000000       -4.51570600000000       -3.37645000000000
H           33.62116600000000       -8.04265600000000       -4.48403200000000
H           32.04834600000000       -7.15934800000000       -4.61400100000000
H           33.60319100000000       -6.32423800000000       -5.01060700000000
H           33.23111900000000       -8.63152500000000       -2.11668900000000
H           33.20750000000000       -7.74533600000000        1.55549400000000
H           32.59729300000000       -8.97549100000000        0.39170100000000
H           34.37524199999999       -8.68459500000000        0.54600200000000
H           33.39762300000000       -5.47785700000000        0.80853900000000
H           30.59296800000000       -4.25166300000000       -1.56129800000000
H           28.91996500000000       -2.32531600000000       -1.19393100000000
H           33.03216100000000        5.56768600000000       -0.69545600000000
H           32.55012500000000        9.09233500000000        0.32035600000000
H           32.34783600000000        7.89659300000000       -1.00662000000000
H           33.97630899999999        8.61214800000000       -0.68161200000000
H           33.80562500000000        8.47039200000000        2.38397000000000
H           33.57370700000000        6.73702000000000        4.99861200000000
H           34.97329599999999        7.72467700000000        4.42214900000000
H           35.19449000000000        5.97258400000000        4.75841200000000
H           34.26178399999999        4.27318900000000        3.21583400000000
Cu          55.33136300000000       -0.00780400000000       -0.01235400000000
C           58.69005100000000        0.16162600000000       -0.27308300000000
C           58.02573200000000       -0.49199500000000       -1.22978800000000
C           58.67538100000000       -1.21987300000000       -2.31349500000000
C           57.73266600000000       -1.74235900000000       -3.07395000000000
C           56.42694500000000       -1.36487500000000       -2.51621700000000
N           56.60611100000000       -0.57353100000000       -1.34151200000000
C           55.23177299999999       -1.70955300000000       -3.03633600000000
C           53.93645600000000       -1.29825900000000       -2.43562100000000
C           52.63968600000000       -1.49025600000000       -3.09487500000000
C           51.70650199999999       -1.03041600000000       -2.28801900000000
N           53.80358600000000       -0.73998700000000       -1.27073400000000
C           52.40012900000000       -0.53787300000000       -1.10329700000000
C           51.80854000000000       -0.01546700000000       -0.01561400000000
C           52.56710800000000        0.47260400000000        1.16152500000000
C           52.00991900000000        0.79222900000000        2.32298300000000
C           53.05715600000000        1.31071200000000        3.17803500000000
C           54.19132399999999        1.27168800000000        2.48726400000000
C           55.49327700000000        1.78999700000000        2.98729900000000
C           55.51834300000000        2.51268200000000        4.27897600000000
C           55.58482000000000        3.91302700000000        4.30318100000000
C           55.58946100000000        4.60012200000000        5.52616600000000
C           55.69524299999999        6.09636000000000        5.55050000000000
C           55.56165600000000        3.87492700000000        6.72755400000000
C           55.50459200000000        2.47335800000000        6.71199200000000
C           55.43784700000000        1.71472800000000        8.00485300000000
C           55.47305399999999        1.79616900000000        5.48354800000000
C           56.64642099999999        1.61001200000000        2.31648700000000
C           57.96709199999999        2.06638500000000        2.74690300000000
C           58.82234600000000        1.61038400000000        1.85404200000000
C           58.05866300000000        0.86688500000000        0.85352200000000
N           56.78844399999999        0.85960000000000        1.11278900000000
N           53.97110500000000        0.73935400000000        1.17850400000000
C           55.18224000000000       -2.52924300000000       -4.26707300000000
C           55.49772399999999       -1.96095200000000       -5.50987600000000
C           55.45473799999999       -2.73948000000000       -6.67550900000000
C           55.77488300000000       -2.12753300000000       -8.00751400000000
C           55.05410200000000       -4.08167300000000       -6.59689500000000
C           54.71307399999999       -4.65118900000000       -5.36095600000000
C           54.33074200000000       -6.09922700000000       -5.27525900000000
C           54.79418900000000       -3.87426800000000       -4.19630500000000
H           59.77300200000000        0.16888800000000       -0.31368900000000
H           59.73999500000000       -1.32883300000000       -2.47614600000000
H           57.91860000000000       -2.34373600000000       -3.95401800000000
H           52.45976100000000       -1.92513600000000       -4.06924100000000
H           50.64426500000000       -1.03281800000000       -2.49296400000000
H           50.96428000000000        0.71241200000000        2.58710300000000
H           52.92159299999999        1.69150100000000        4.18137900000000
H           55.62890399999999        4.46523600000000        3.37122300000000
H           55.19274500000000        6.51081400000000        6.45046500000000
H           56.76556400000000        6.38976500000000        5.56589000000000
H           55.21071999999999        6.53823200000000        4.65338700000000
H           55.58279199999999        4.40095800000000        7.67504000000000
H           55.60641000000000        0.62723200000000        7.84607700000000
H           56.21661700000000        2.08745700000000        8.70365500000000
H           54.43866900000000        1.85828000000000        8.46720700000000
H           55.41628700000000        0.71348200000000        5.46029300000000
H           58.22094199999999        2.64832500000000        3.62288900000000
H           59.89394500000000        1.75925400000000        1.87494000000000
H           55.78174899999999       -0.91664000000000       -5.56734200000000
H           56.26378500000000       -2.87343500000000       -8.66991700000000
H           56.46607400000000       -1.26605600000000       -7.89081700000000
H           54.83760200000000       -1.77740200000000       -8.48762000000000
H           55.00828600000000       -4.68236100000000       -7.49812200000000
H           55.24020399999999       -6.71115400000000       -5.10544000000000
H           53.84061400000000       -6.43240300000000       -6.21452700000000
H           53.61942000000000       -6.26765700000000       -4.43808000000000
H           54.55212700000000       -4.31299900000000       -3.23524900000000
C           38.71731400000000       -0.01546700000000       -0.01561400000000
C           39.93923200000000       -0.01546700000000       -0.01561400000000
C           48.87467800000000       -0.01546700000000       -0.01561400000000
C           50.09659599999999       -0.01546700000000       -0.01561400000000
Cu          44.29984300000000       -0.06158700000000       -0.02256200000000
C           40.93048100000000        0.03231900000000        0.03262700000000
C           41.58675000000000        1.20324000000000       -0.06603800000000
C           40.94678500000000        2.52028300000000       -0.08093900000000
C           41.88294699999999        3.43387000000000       -0.24251800000000
C           43.17938800000000        2.75544000000000       -0.34259100000000
N           43.00120700000000        1.34219500000000       -0.22148400000000
C           44.36343699999999        3.37535800000000       -0.53297600000000
C           45.66076000000000        2.65273600000000       -0.56816300000000
C           46.92973500000000        3.26992600000000       -0.97535700000000
C           47.88247199999999        2.37343300000000       -0.82056100000000
N           45.82872499999999        1.42512900000000       -0.18637300000000
C           47.22735999999999        1.17198900000000       -0.31962800000000
C           47.84229100000000        0.03231900000000        0.03262700000000
C           47.09111200000000       -1.15163400000000        0.50044900000000
C           47.62561100000000       -2.16404800000000        1.17127700000000
C           46.59319599999999       -3.17181400000000        1.32122800000000
C           45.49956799999999       -2.70720700000000        0.72762900000000
C           44.24659100000000       -3.47980200000000        0.55117900000000
C           44.30992600000000       -4.95936900000000        0.63718000000000
C           43.61225100000000       -5.64401500000000        1.64431600000000
C           43.68792999999999       -7.04111800000000        1.73671600000000
C           42.97785199999999       -7.76052000000000        2.84474500000000
C           44.49331200000000       -7.75159000000000        0.83396200000000
C           45.18852100000000       -7.07758600000000       -0.18093600000000
C           46.07306900000000       -7.84204100000000       -1.12077400000000
C           45.10564800000000       -5.68006400000000       -0.26547300000000
C           43.07468600000000       -2.86741600000000        0.29482100000000
C           41.79987500000000       -3.52728000000000        0.03253900000000
C           40.91161300000000       -2.56476700000000       -0.11036200000000
C           41.60818099999999       -1.28433200000000        0.05338100000000
N           42.87247200000000       -1.45431800000000        0.28723400000000
N           45.72359900000000       -1.40801300000000        0.18350600000000
C           44.39783500000000        4.84627700000000       -0.70597400000000
C           44.98520899999999        5.65506000000000        0.27768300000000
C           45.03366100000000        7.04727700000000        0.11589200000000
C           45.70542000000000        7.90239100000000        1.14945700000000
C           44.51491800000000        7.62634100000000       -1.05228400000000
C           43.91438400000000        6.82671800000000       -2.03640900000000
C           43.39253300000000        7.44937200000000       -3.29677600000000
C           43.87231800000000        5.43524300000000       -1.86598500000000
H           39.89278600000000        2.73991200000000        0.02379700000000
H           41.69765300000000        4.49960200000000       -0.28167700000000
H           47.07904599999999        4.27854400000000       -1.33792200000000
H           48.93207499999999        2.52861700000000       -1.03221900000000
H           48.64950100000000       -2.24720000000000        1.51083700000000
H           46.70967800000000       -4.13978400000000        1.79083500000000
H           43.01835900000000       -5.08744600000000        2.36003400000000
H           42.73899200000000       -8.80458100000000        2.54797800000000
H           43.62585799999999       -7.77965200000000        3.74572900000000
H           42.02496000000000       -7.24783500000000        3.09511100000000
H           44.58068500000000       -8.82844400000000        0.92150100000000
H           46.22191400000000       -7.28246100000000       -2.06946700000000
H           45.61611199999999       -8.82382800000000       -1.36968500000000
H           47.06109000000000       -8.01102600000000       -0.64254500000000
H           45.65883200000000       -5.15119800000000       -1.03279400000000
H           41.59724600000000       -4.58732600000000       -0.04434300000000
H           39.86219100000000       -2.71824200000000       -0.32241200000000
H           45.40603300000000        5.19872600000000        1.16634800000000
H           45.27202399999999        8.92520000000000        1.15573300000000
H           46.79012699999999        7.97037400000000        0.92375800000000
H           45.57208300000000        7.46776600000000        2.16287300000000
H           44.57830900000000        8.69857800000000       -1.19597300000000
H           42.96629000000000        8.45324000000000       -3.08638100000000
H           42.59135200000000        6.82288800000000       -3.74474900000000
H           44.22148300000000        7.55295500000000       -4.02804200000000
H           43.43663400000000        4.80823000000000       -2.63552300000000
207
 energy: -331.513744417584 gnorm: 0.505604402446 xtb: 6.5.1 (b24c23e)
Cu          33.48528928225760       -0.01891592186131       -0.02456512643541
C           30.12457203142737        0.17128939481918       -0.26095742587848
C           30.79376105901168        1.28535781404255        0.10502747635818
C           30.13727180580505        2.52267757054131        0.50009164472265
C           31.08731534217901        3.40465598253159        0.79231888894294
C           32.38480701026772        2.75718304664837        0.58330586069230
N           32.19573149428565        1.42430953732746        0.15520023517201
C           33.59221936538305        3.35506265743646        0.76960767670075
C           34.87195668744739        2.67720859310934        0.54596720108828
C           36.16535877076300        3.35901258545266        0.54589045360613
C           37.10706990645539        2.44416963321363        0.32581877697274
N           35.01902345417336        1.38886500358457        0.32920281010866
C           36.41603391012897        1.17578927191140        0.18316667646974
C           37.01718168301340       -0.02583189134879       -0.01573137578499
C           36.24389833127175       -1.27007018824659       -0.15846298902271
C           36.80456041624464       -2.50183099684554       -0.14232888062835
C           35.77126187672425       -3.45402096914003       -0.39874511443041
C           34.61239936210422       -2.76906264360950       -0.55720502893983
C           33.32990858347962       -3.39713725187739       -0.91132165507693
C           33.29805669040699       -4.84525683226193       -1.24842618009129
C           33.22925321837526       -5.25899011165812       -2.58454811999194
C           33.22325052509687       -6.62238775959816       -2.90357906065509
C           33.11972098151325       -7.06332675069601       -4.33815423368867
C           33.25246572972100       -7.57164713022889       -1.87453658093722
C           33.30980791125687       -7.16791439555032       -0.53482827520335
C           33.37538242666044       -8.20148994230594        0.55666806897741
C           33.34112641267125       -5.80268037130022       -0.22735788256240
C           32.16620684028870       -2.70644563878240       -0.92757441076627
C           30.85256568243426       -3.24945156694692       -1.24583193454382
C           29.98609452099405       -2.25630826748243       -1.05518355454697
C           30.74274691626846       -1.08910842443572       -0.61954365762296
N           32.02628939790442       -1.35015310019472       -0.54367620895380
N           34.84897126796452       -1.37731047081693       -0.40650702127723
C           33.63382995485668        4.76991540586546        1.21537652738751
C           33.31612939998180        5.80421542543736        0.32637235851545
C           33.36053316744290        7.13778127746971        0.74809604337796
C           33.03765841079124        8.24967417203201       -0.21246124831202
C           33.75964341792049        7.43442334593100        2.05693361747200
C           34.09900822981616        6.40856607164088        2.94705515768113
C           34.48477994188433        6.73017629372190        4.36489775033995
C           34.01987086646186        5.07654342260369        2.52525952458531
H           29.04121232546948        0.21770438981024       -0.27647854806525
H           29.07387791831403        2.71038000254016        0.55988000420343
H           30.89910799160477        4.41578061061559        1.12444636583806
H           36.35098363220069        4.41104997300655        0.69075616810058
H           38.16801117629294        2.64355686889268        0.27148648272790
H           37.84945753769583       -2.71981262798287        0.00991587248784
H           35.89397572967147       -4.52202830340632       -0.48615482937906
H           33.18534229232975       -4.51625705949921       -3.37572574501368
H           33.61866590658235       -8.03940275755960       -4.48376814506805
H           32.05247163608583       -7.15926333752097       -4.61392665000843
H           33.60072440514400       -6.32685275171135       -5.00855684212756
H           33.23124919153894       -8.63061337574353       -2.11652056577120
H           33.20853338991918       -7.74713466396896        1.55167771287986
H           32.60063578309410       -8.97346160022902        0.39258139568238
H           34.37129701380891       -8.68352726195661        0.54661489775096
H           33.39747245272194       -5.47818693179244        0.80766018932751
H           30.59665321724236       -4.25164581246689       -1.56104075263711
H           28.91879171080243       -2.32263574066490       -1.19337850183924
H           33.03227186822577        5.56773316399955       -0.69462379471371
H           32.55242294802085        9.08986169012522        0.31810687829197
H           32.35082457348372        7.89805090429584       -1.00425513153587
H           33.97247152293370        8.61153744713836       -0.68044815469072
H           33.80563970887511        8.46953202819144        2.38371985870954
H           33.57743584427948        6.73719368453189        4.99718852907338
H           34.97104539903302        7.72136450103719        4.42245683882556
H           35.19141317134002        5.97522427280817        4.75758119117957
H           34.26175468020963        4.27374717614666        3.21522323058865
Cu          55.32882812372331       -0.00600271652329       -0.01469817189180
C           58.68926896382904        0.16816186149926       -0.26335699227309
C           58.02015713960318       -0.49339054842551       -1.23149511882440
C           58.67666945185135       -1.21740300951256       -2.30997784750931
C           57.72674100095306       -1.74346101499856       -3.07573409860719
C           56.42915232326076       -1.36236647518032       -2.51183068385301
N           56.61838727039103       -0.58074034137046       -1.35118424447296
C           55.22162328354266       -1.70788122177614       -3.03427291778597
C           53.94198133627494       -1.30416667096435       -2.44514403138285
C           52.64789887986057       -1.49388177740856       -3.10031178025374
C           51.70591624928521       -1.02826903623784       -2.28339415496354
N           53.79502945320970       -0.73776875394817       -1.26882492573038
C           52.39740418768910       -0.53778121756574       -1.10365341555074
C           51.79851660730636       -0.01210828859902       -0.00579008652460
C           52.56986591937982        0.47116438454902        1.14945689491714
C           52.00883293360418        0.79853148638873        2.33750887132571
C           53.04232904430866        1.30954471954133        3.18032893505585
C           54.20141557346974        1.27113222446051        2.47811411596749
C           55.48400270806562        1.78615970862456        2.98300496655148
C           55.51583473921837        2.51305268255897        4.28010907121046
C           55.58465922031875        3.91153845015232        4.30556060480269
C           55.59066127154918        4.59747772653618        5.52627517530463
C           55.69418923426588        6.09809327313107        5.55044740222957
C           55.56144699882148        3.87334446617845        6.72445518690596
C           55.50410387171149        2.47419934827013        6.70962089334937
C           55.43852837716481        1.71355646854845        8.00616126675992
C           55.47278100611245        1.79884979273482        5.48391920306536
C           56.64776300684665        1.60948154164273        2.31513900170662
C           57.96145358327895        2.06635720414124        2.74815454296043
C           58.82786807647093        1.60684151415584        1.84737141515388
C           58.07111221482460        0.86349274315233        0.84759015025752
N           56.78790738404001        0.86360995641230        1.11943835800447
N           53.96480638309048        0.73924385372390        1.18378616875125
C           55.18005238655528       -2.52988487530369       -4.26920245001425
C           55.49778059061751       -1.96391935133102       -5.51008163703974
C           55.45338158459350       -2.74019177966418       -6.67355988172218
C           55.77625312007002       -2.12711100423569       -8.00887647386325
C           55.05426746799794       -4.07987319708133       -6.59413203838988
C           54.71490253354438       -4.64926062648991       -5.36105266529435
C           54.32913006292036       -6.10058214540685       -5.27526992086478
C           54.79403582558548       -3.87334946558612       -4.19908251829265
H           59.77268611110423        0.17016456590233       -0.31218515459504
H           59.74004573534900       -1.32699980382929       -2.47355332553198
H           57.91482148656304       -2.34397469924822       -3.95438326851762
H           52.46286811209937       -1.92609437162252       -4.07050231227672
H           50.64457829136079       -1.03118920198681       -2.48965524823715
H           50.96399351336503        0.71284238526421        2.58890313761577
H           52.91989630904522        1.69090855056229        4.18181948869759
H           55.62856793766863        4.46469619960895        3.37194979206899
H           55.19524580308582        6.50965344703818        6.44741159187632
H           56.76143816166029        6.38967008093227        5.56582880980438
H           55.21318612161053        6.53699264501690        4.65646701817862
H           55.58266128994675        4.40054146936851        7.67420633973566
H           55.60537634099758        0.63140084017287        7.84674043333776
H           56.21327286918152        2.08604866797800        8.70194672555674
H           54.44261839423230        1.85739622883585        8.46634581736375
H           55.41643858041973        0.71441858134002        5.46036416882670
H           58.21727453993297        2.64808282934343        3.62295845977286
H           59.89513812448198        1.75798416596255        1.87253818462010
H           55.78163765835507       -0.91745134429038       -5.56715494002003
H           56.26148472039018       -2.87058534771852       -8.66816543760310
H           56.46308404524505       -1.26873330450337       -7.89155892931098
H           54.84144077111269       -1.77835188313779       -8.48670652586607
H           55.00827085605010       -4.68187854195020       -7.49736265563710
H           55.23647489838656       -6.70983310920638       -5.10600409571610
H           53.84286572165150       -6.43177466890454       -6.21125921837908
H           53.62249651566023       -6.26759402173620       -4.44084667160493
H           54.55215827817145       -4.31257002376809       -3.23595353119502
C           38.62646698098075       -0.01647518036232       -0.01576632813040
C           39.79342169750888       -0.02705798018513       -0.02041739655328
C           48.99336543108240       -0.02812421997837       -0.01803539824048
C           50.17278741743599       -0.01664271904378       -0.01549966512176
Cu          44.30420195820365       -0.06000455108753       -0.02189781309166
C           41.05398202395654        0.02698265655885        0.03576929023006
C           41.62575003754004        1.22241644462483       -0.06604185792879
C           40.94756040235789        2.51295698339853       -0.08028897032160
C           41.89003572965154        3.43690841804018       -0.24373075828470
C           43.17755052380421        2.75328759560627       -0.34216260010307
N           42.99580462436069        1.35915103305538       -0.22270752915422
C           44.37343811728822        3.37435954029697       -0.53410773565983
C           45.65434984479776        2.66761158538454       -0.57030052711818
C           46.92050094329261        3.27755540957969       -0.97602287529224
C           47.88125351977987        2.36732638454363       -0.81823521966118
N           45.82963793793693        1.42679387402227       -0.18817088213646
C           47.19774977444843        1.18736608312830       -0.32403710155875
C           47.73886611053868        0.02826264511264        0.03813784662925
C           47.06370468539285       -1.15205148968165        0.49733970702396
C           47.62498198598784       -2.17811996800143        1.17666380620706
C           46.60771030096186       -3.17314607068683        1.32459329340973
C           45.49022004300895       -2.70347350425153        0.71969902492720
C           44.25511610996072       -3.47630215925998        0.55136661200772
C           44.31254544981049       -4.95956545100118        0.63879736483129
C           43.61298975864054       -5.64526953564334        1.64192620067794
C           43.69010436789893       -7.03978278685064        1.73557277483956
C           42.97617873424217       -7.76151413940207        2.84536472543346
C           44.49260019075963       -7.74827510554421        0.83341451210541
C           45.18792830402256       -7.07590865850856       -0.17890830295279
C           46.07328179926499       -7.84289455635274       -1.12263806134306
C           45.10471914328113       -5.68147747553177       -0.26352220348132
C           43.07373481106382       -2.86919059098435        0.29457042245233
C           41.80558205747013       -3.52859166514921        0.03403878293479
C           40.90722710249230       -2.55555674617080       -0.11117324493840
C           41.62067650522968       -1.29009794260290        0.05257797663981
N           42.88128174213183       -1.46754931544154        0.28831719107481
N           45.72298482259761       -1.41533163133439        0.18755719366535
C           44.39974312715907        4.84810564448958       -0.70702276609728
C           44.98454311324170        5.65656240116877        0.27541979114934