181
 energy: -329.193685353048 gnorm: 0.670292368223 xtb: 6.5.1 (b24c23e)
Cu          31.90177900000000       -0.26210000000000       -0.17992800000000
C           28.51607300000000       -0.11977600000000       -0.13205300000000
C           29.18156900000000        0.67002600000000        0.71546800000000
C           28.53396300000000        1.55555500000000        1.67620300000000
C           29.47847500000000        2.20352900000000        2.33289000000000
C           30.78299700000000        1.76496600000000        1.81750300000000
N           30.60135200000000        0.78744900000000        0.79284400000000
C           31.97636900000000        2.23839500000000        2.22377200000000
C           32.01778200000000        3.25227200000000        3.25397900000000
C           32.05481100000000        4.09749000000000        4.11272000000000
C           32.09972000000000        5.10580300000000        5.13750100000000
C           33.30531300000000        5.75096300000000        5.43677900000000
C           33.32716400000000        6.72754100000000        6.43612600000000
N           32.18611900000000        7.04275600000000        7.10698000000000
C           31.00360800000000        6.42823400000000        6.83251500000000
C           30.93818100000000        5.44622400000000        5.84045400000000
C           33.27127000000000        1.78346800000000        1.65799900000000
C           34.56258500000000        2.40317800000000        1.97892000000000
C           35.49893500000000        1.74111500000000        1.33096700000000
N           33.41168500000000        0.77956200000000        0.84652500000000
C           34.81349900000000        0.68803600000000        0.59060200000000
C           35.40953100000000       -0.25005400000000       -0.16488700000000
C           34.65254300000000       -1.29729600000000       -0.89103900000000
C           35.20542499999999       -2.37817100000000       -1.42777300000000
C           34.15897799999999       -3.10038600000000       -2.12291000000000
C           33.03240200000000       -2.41451200000000       -1.96560400000000
N           33.25415000000000       -1.24189400000000       -1.17859200000000
C           31.73493600000000       -2.78559600000000       -2.58475800000000
C           31.72823899999999       -3.79581300000000       -3.62098700000000
C           31.72310200000000       -4.63754900000000       -4.48401300000000
C           31.71680400000000       -5.64189100000000       -5.51371300000000
C           32.90988000000000       -6.26612600000000       -5.89435000000000
C           32.88201400000000       -7.23874300000000       -6.89745100000000
N           31.70509400000000       -7.57065700000000       -7.49325800000000
C           30.53374500000000       -6.97692800000000       -7.13879400000000
C           30.51760900000000       -5.99932300000000       -6.14020200000000
C           30.57187200000000       -2.22302400000000       -2.21360700000000
C           29.25218000000000       -2.53952000000000       -2.75774100000000
C           28.39003300000000       -1.81178100000000       -2.07461600000000
C           29.14949000000000       -1.02852800000000       -1.10101300000000
N           30.42246000000000       -1.26111600000000       -1.17191900000000
H           27.43262900000000       -0.09619500000000       -0.11298200000000
H           27.46961400000000        1.67440900000000        1.83362900000000
H           29.29607900000000        2.93526200000000        3.10951500000000
H           34.21604499999999        5.50211600000000        4.90429600000000
H           34.25171300000000        7.23495200000000        6.67849500000000
H           30.11393800000000        6.70199400000000        7.38440800000000
H           29.99465000000000        4.95884900000000        5.62412800000000
H           34.73725699999999        3.25130300000000        2.62809200000000
H           36.55814200000000        1.95811800000000        1.36700200000000
H           36.24724000000000       -2.66528000000000       -1.38200300000000
H           34.28466300000000       -4.01664200000000       -2.68523000000000
H           33.84900500000000       -6.00423200000000       -5.42171700000000
H           33.79655800000000       -7.72987800000000       -7.20226400000000
H           29.61456900000000       -7.26363800000000       -7.63210900000000
H           29.58275300000000       -5.52845300000000       -5.86037300000000
H           29.00486099999999       -3.23323700000000       -3.55104000000000
H           27.31733200000000       -1.80836100000000       -2.21681800000000
Cu          59.64372500000000       -0.23096200000000       -0.16227100000000
C           63.02943100000000       -0.34511100000000       -0.25983200000000
C           62.36393600000000       -1.47788400000000       -0.50253300000000
C           63.01154100000000       -2.75695700000000       -0.76926400000000
C           62.06703000000000       -3.65315300000000       -0.98822000000000
C           60.76250700000000       -2.98572100000000       -0.87643700000000
N           60.94415300000000       -1.60456700000000       -0.56358000000000
C           59.56913600000000       -3.57741000000000       -1.07415800000000
C           59.52772299999999       -4.98199100000000       -1.41536900000000
C           59.49069399999999       -6.15284100000000       -1.69986600000000
C           59.44578400000000       -7.54991000000000       -2.03908800000000
C           58.24019100000000       -8.13794200000000       -2.43910900000000
C           58.21833999999999       -9.49689200000000       -2.76415400000000
N           59.35938600000000      -10.23441900000000       -2.69027200000000
C           60.54189700000000       -9.68340900000000       -2.30380600000000
C           60.60732400000000       -8.32792300000000       -1.97035900000000
C           58.27423500000000       -2.85833600000000       -0.97419800000000
C           56.98292000000000       -3.45187800000000       -1.34126800000000
C           56.04657000000000       -2.55594500000000       -1.10573800000000
N           58.13381900000000       -1.64658500000000       -0.52925400000000
C           56.73200599999999       -1.37997400000000       -0.58209000000000
C           56.13597299999999       -0.25005400000000       -0.16488700000000
C           56.89296199999999        0.91072400000000        0.36104800000000
C           56.34007900000000        1.92621500000000        1.01308600000000
C           57.38652600000000        2.89351900000000        1.27601400000000
C           58.51310299999999        2.40642200000000        0.76817100000000
N           58.29135500000000        1.12905200000000        0.16588500000000
C           59.81056900000000        3.12826300000000        0.76877500000000
C           59.81726599999999        4.53613300000000        1.10375400000000
C           59.82240300000000        5.70887300000000        1.38306300000000
C           59.82870100000000        7.10812400000000        1.71635200000000
C           58.63562400000000        7.75523500000000        2.05664900000000
C           58.66349000000000        9.11537300000000        2.37636800000000
N           59.84041100000000        9.79707000000000        2.35534200000000
C           61.01176000000000        9.18808100000000        2.02778900000000
C           61.02789500000000        7.82925100000000        1.70147500000000
C           60.97363200000000        2.52094900000000        0.47652600000000
C           62.29332500000000        3.15038600000000        0.46879600000000
C           63.15547200000000        2.19055300000000        0.19496100000000
C           62.39601400000000        0.95294300000000        0.02260600000000
N           61.12304500000000        1.13319400000000        0.18580600000000
H           64.11287600000000       -0.37358300000000       -0.27027800000000
H           64.07589000000000       -2.95307100000000       -0.79044500000000
H           62.24942500000000       -4.69527500000000       -1.21748200000000
H           57.32946000000000       -7.55323100000000       -2.49891200000000
H           57.29379200000000       -9.96537200000000       -3.07517700000000
H           61.43156699999999      -10.29756600000000       -2.25541800000000
H           61.55085500000000       -7.89207900000000       -1.66316100000000
H           56.80824700000000       -4.44437400000000       -1.73584500000000
H           54.98736200000000       -2.69827000000000       -1.27346500000000
H           55.29826400000000        2.03432700000000        1.28297200000000
H           57.26084099999999        3.84645800000000        1.77364500000000
H           57.69649900000000        7.21518800000000        2.07453000000000
H           57.74894700000000        9.62908500000000        2.64136700000000
H           61.93093499999999        9.75861500000000        2.02058600000000
H           61.96275099999999        7.34738400000000        1.44104100000000
H           62.54064400000000        4.18730100000000        0.65687400000000
H           64.22817300000000        2.31083200000000        0.11902500000000
C           38.56984900000000       -0.23761800000000       -0.16244500000000
C           37.31757799999999       -0.25679900000000       -0.16679400000000
C           39.88351700000000       -0.23838300000000       -0.16051300000000
C           41.38665000000000       -0.25679900000000       -0.16679400000000
C           51.50113099999999       -0.23761800000000       -0.16244500000000
C           50.24885999999999       -0.25679900000000       -0.16679400000000
C           52.81479899999999       -0.23838300000000       -0.16051300000000
C           54.31793299999999       -0.25679900000000       -0.16679400000000
Cu          45.83980900000000        0.41784900000000        0.35783500000000
C           42.35819700000000        0.54492400000000        0.35896900000000
C           43.01334199999999        1.09510800000000       -0.67699800000000
C           42.36024499999999        1.65545300000000       -1.85724200000000
C           43.28794199999999        1.92579300000000       -2.74945900000000
C           44.59519800000000        1.61059000000000       -2.16859700000000
N           44.43006600000000        1.06996400000000       -0.86070500000000
C           45.77490700000000        1.79720200000000       -2.78956100000000
C           45.78179600000000        2.19457900000000       -4.17876100000000
C           45.77660899999999        2.48061100000000       -5.35189900000000
C           45.75809900000000        2.78349500000000       -6.75581100000000
C           46.70263299999999        2.20738700000000       -7.61028600000000
C           46.65459200000000        2.49768500000000       -8.97659800000000
N           45.69218800000000        3.32654500000000       -9.46364700000000
C           44.75625500000000        3.88689300000000       -8.65063300000000
C           44.77324100000000        3.62951200000000       -7.27795800000000
C           47.08677200000000        1.59102900000000       -2.13046000000000
C           48.35836000000000        2.07581900000000       -2.67490900000000
C           49.30959799999999        1.75162300000000       -1.82240800000000
N           47.25293000000000        0.99103700000000       -0.99732500000000
C           48.65256700000000        1.04862000000000       -0.73047400000000
C           49.25799200000000        0.54492400000000        0.35896900000000
C           48.53141000000000       -0.22389600000000        1.39584700000000
C           49.12165900000000       -0.86220500000000        2.40305800000000
C           48.09597300000000       -1.59575400000000        3.11996100000000
C           46.94329800000000       -1.35580900000000        2.50674900000000
N           47.12705900000000       -0.47589800000000        1.39470800000000
C           45.64455600000000       -1.94964200000000        2.91282400000000
C           45.66536300000000       -3.14753500000000        3.72089600000000
C           45.69903300000000       -4.18532100000000        4.33370800000000
C           45.76294899999999       -5.46200700000000        4.98849700000000
C           44.59334000000000       -6.09568700000000        5.41541800000000
C           44.65960499999999       -7.41932100000000        5.85286700000000
N           45.85203899999999       -8.07115700000000        5.87894800000000
C           47.00600700000000       -7.46368700000000        5.50649800000000
C           46.98342000000000       -6.14592200000000        5.05686700000000
C           44.46428100000000       -1.46022100000000        2.49751600000000
C           43.14981800000000       -1.94475300000000        2.90846500000000
C           42.26885300000000       -1.22300000000000        2.24487200000000
C           43.00920199999999       -0.28961600000000        1.39005800000000
N           44.29396600000000       -0.42242800000000        1.53274300000000
H           41.30661000000000        1.81930000000000       -2.00243600000000
H           43.10079300000000        2.35941900000000       -3.71441700000000
H           47.46463400000000        1.54080100000000       -7.22862700000000
H           47.38676700000000        2.06991200000000       -9.64536400000000
H           44.00082600000000        4.53442500000000       -9.07085900000000
H           44.02026799999999        4.07053800000000       -6.63876400000000
H           48.50754400000000        2.61514900000000       -3.59887000000000
H           50.35849200000000        1.97272500000000       -1.94459400000000
H           50.17857700000000       -0.88292400000000        2.63361300000000
H           48.25256300000000       -2.23607000000000        3.98512500000000
H           43.63383799999999       -5.58921700000000        5.34887800000000
H           43.75679999999999       -7.93952300000000        6.14005500000000
H           47.93497599999999       -8.01211200000000        5.52493000000000
H           47.89751500000000       -5.68188500000000        4.71094800000000
H           42.91521200000000       -2.73204300000000        3.61385200000000
H           41.19341599999999       -1.32945500000000        2.32290200000000
181
 energy: -329.457704700211 gnorm: 0.435524217366 xtb: 6.5.1 (b24c23e)
Cu          31.90455617664074       -0.25723864178596       -0.17809362472624
C           28.51700583195378       -0.13190869654760       -0.14519598435784
C           29.18712599491003        0.67073712663021        0.71649354711924
C           28.53349433566476        1.55083894049174        1.67100873473212
C           29.48854399050791        2.20522418837959        2.33425183780584
C           30.77965381410531        1.76079251640195        1.81434051271193
N           30.58154120934382        0.80196499984977        0.80958418878204
C           31.99446711429701        2.24089622917404        2.22513380546879
C           32.02429539698337        3.24738774074575        3.24644943158834
C           32.05587854981972        4.09801012012662        4.11395837111379
C           32.09926986129102        5.10120456451485        5.13269602920406
C           33.30104120984750        5.75121867986380        5.43853080715066
C           33.30980672528151        6.72123923170480        6.43491907954395
N           32.18608303587592        7.04193108445127        7.10613340670909
C           31.02056183064663        6.42641822119244        6.82543928202009
C           30.94230255801078        5.44783190252832        5.84054233406156
C           33.26869037130756        1.79476978416292        1.66942001786303
C           34.55007212168226        2.41099539617218        1.98734790018459
C           35.49973998818670        1.73647482990598        1.32818263785945
N           33.43344583967357        0.78057954774165        0.84058468996153
C           34.83364125502484        0.68448811996903        0.58742021838262
C           35.45071379397765       -0.26496862054280       -0.17022091803423
C           34.66200910985873       -1.27956952164230       -0.88876427588918
C           35.21181862414754       -2.39794110238322       -1.44262123708247
C           34.18369930995719       -3.10366142212767       -2.12253238312042
C           33.02690332450180       -2.39916110545726       -1.96235004157284
N           33.26982960676231       -1.24700295113685       -1.17667704468542
C           31.75298434399036       -2.78188575406486       -2.58163080111109
C           31.73701261996607       -3.78890904545175       -3.60997834354131
C           31.72531651265661       -4.63643703823502       -4.48293894559163
C           31.71668046854274       -5.63662006561951       -5.50836042303173
C           32.90554706222186       -6.26627547491931       -5.89546865366262
C           32.86478539829624       -7.23271183060273       -6.89494515027197
N           31.70507192721449       -7.56959804966499       -7.49216402968741
C           30.55097197815100       -6.97469982816796       -7.13274818485239
C           30.52176868527104       -6.00043401626175       -6.14037443670457
C           30.56950993789159       -2.22089836261945       -2.21324308182671
C           29.25976989606115       -2.53904465554169       -2.75550636672560
C           28.37912703387257       -1.80289660186937       -2.06581122823183
C           29.12891021037053       -1.02290183117297       -1.09469892789209
N           30.42024859228211       -1.26879882168781       -1.18252840069751
H           27.43351612616727       -0.10054954862462       -0.11874316561552
H           27.46981525937055        1.66763668211661        1.82658447350385
H           29.30835669625980        2.93602869068399        3.11008899296470
H           34.21361573498325        5.50276323648515        4.90572781650110
H           34.23872622970861        7.23424452864100        6.68168741000232
H           30.12699985155791        6.70463669176383        7.38319603813185
H           29.99699867560394        4.96008755620008        5.62471168955565
H           34.72688507379535        3.25533689007355        2.63286638392205
H           36.55784548980326        1.95042180800667        1.36078516892171
H           36.25028390309463       -2.67377252876809       -1.38612345793868
H           34.29159276813969       -4.01849369872942       -2.68369146592265
H           33.84675362511208       -6.00484761697768       -5.42286881987221
H           33.78351225386901       -7.72936091741551       -7.20457179645085
H           29.62755870458793       -7.26602910253770       -7.63174795685114
H           29.58488685502577       -5.52951942495729       -5.86103899140502
H           29.01656127088865       -3.23264161828223       -3.54943272716241
H           27.31186284377807       -1.80223070870893       -2.21088088921522
Cu          59.64073597523558       -0.23505388554484       -0.16547882838351
C           63.02851023511390       -0.32756717275430       -0.25615695998270
C           62.35834158498565       -1.47912890367075       -0.50260286522961
C           63.01197739460889       -2.75005721059243       -0.76787826924366
C           62.05689539840285       -3.65518264041913       -0.98895923880543
C           60.76578675145774       -2.98086369600716       -0.87447496901922
N           60.96394370555467       -1.62626638241928       -0.56746636453752
C           59.55088254558704       -3.57965727845421       -1.07556038077507
C           59.52116474818131       -4.97293981163139       -1.41502536698709
C           59.48962778656687       -6.15411907073071       -1.69965917906011
C           59.44623257193268       -7.54341527679156       -2.03760865468085
C           58.24446392726833       -8.13956658161905       -2.43842677572067
C           58.23569526373251       -9.49262021435325       -2.75936449847383
N           59.35942524165637      -10.23325700569507       -2.68999900883432
C           60.52494161506687       -9.67640262532074       -2.30587803693700
C           60.60320137745543       -8.32881431621136       -1.97169165083225
C           58.27646445934323       -2.87351223221119       -0.97788885944630
C           56.99565651534356       -3.46307707405507       -1.34357157694065
C           56.04564797305511       -2.55112063323389       -1.10317685109124
N           58.11036678215964       -1.64087429424478       -0.53304109130626
C           56.70962987509785       -1.37514249103091       -0.58036424440881
C           56.08300909405733       -0.23700765167137       -0.15330051828511
C           56.88172003054576        0.89988615447007        0.34688339131330
C           56.33350109722099        1.94924016917384        1.02255576432364
C           57.36194759344599        2.89488375976648        1.27897056965205
C           58.51843162872892        2.39553453396489        0.75655523535613
N           58.27458103318596        1.12952778034316        0.17117071430218
C           59.79250726883865        3.12360067760099        0.76716872935779
C           59.80848557827078        4.52309920699443        1.10347006893595
C           59.82018674427351        5.70736048122535        1.38265330569778
C           59.82882724893480        7.10080519827365        1.71457225885954
C           58.63996019307868        7.75627208624367        2.05620174748207
C           58.68072240677157        9.11012109783548        2.37247892202032
N           59.84043084435530        9.79559706537488        2.35499254233500
C           60.99453266671503        9.18174574534142        2.02898054498118
C           61.02373358117360        7.82996951016506        1.70233961474745
C           60.97595816974048        2.51952488555887        0.47489463609767
C           62.28572640870293        3.14821522430004        0.46952441548924
C           63.16635958238692        2.17843269393713        0.19186265771027
C           62.41657838346254        0.94459661844874        0.02101116552421
N           61.12519723314144        1.14617486992835        0.18693636176065
H           64.11199278360374       -0.36639171958243       -0.26950090840387
H           64.07566829780197       -2.94353816693952       -0.78824746746082
H           62.23712607384425       -4.69614988382702       -1.21784159944014
H           57.33189102642910       -7.55479171871710       -2.49873068473442
H           57.30678067320570       -9.96774690766426       -3.07292907077230
H           61.41850513547756      -10.29788083686301       -2.25830706008573
H           61.54850894913495       -7.89321293015120       -1.66392195656445
H           56.81875890852201       -4.45048514840187       -1.73683437990618
H           54.98753987739987       -2.68895409914027       -1.27007125867795
H           55.29504531189011        2.04229462737851        1.28823960972695
H           57.25401182952490        3.84608419795567        1.77600860813575
H           57.69874985413549        7.21649195838171        2.07446854235770
H           57.76199218408929        9.63079941062627        2.63973911645158
H           61.91794485007286        9.75953263400076        2.02282336389266
H           61.96061568949103        7.34850440068299        1.44161511901618
H           62.52894083674432        4.18561072078436        0.65718683427199
H           64.23363086582907        2.30258920917233        0.11681291083070
C           38.54716870814008       -0.24418522440706       -0.17254180717501
C           37.27747044381216       -0.26571535436989       -0.17205312439400
C           39.90210416602888       -0.22647632307031       -0.14884489148422
C           41.25122763862476       -0.23305218531180       -0.14953599963873
C           51.58283751969829       -0.23225238128996       -0.15513668198752
C           50.31842263821490       -0.24631314533151       -0.14388587788160
C           52.92723475752143       -0.24377277133644       -0.16787165477743
C           54.29337375318033       -0.25354149234238       -0.16745376140262
Cu          45.82725506677454        0.41025243876887        0.34804036598446
C           42.35100161422417        0.49230776557779        0.35098970183101
C           43.02643666500440        1.09997145496241       -0.68892028113232
C           42.36061303991578        1.65203931384207       -1.84856071613154
C           43.30175697332989        1.93242225940617       -2.75222412870930
C           44.59181177984642        1.60901714886680       -2.16804953466878
N           44.41214049996852        1.09361333827361       -0.87649119003922
C           45.79285632770812        1.79509833313121       -2.79880585952569
C           45.78650476589605        2.19407271180539       -4.17302182862896
C           45.77730681478763        2.48109465252848       -5.35284645315047
C           45.75697982988436        2.78124449910595       -6.75004025971800
C           46.69987236166283        2.21098854096145       -7.61118609079748
C           46.64130609355563        2.50771656989408       -8.96847935780865
N           45.69219890960065        3.32608828431821       -9.46265693244323
C           44.77059766362184        3.87600506278339       -8.64790512578932
C           44.77586169290191        3.62615639390931       -7.28056840064844
C           47.07835472462069        1.60473334491298       -2.15573544348405
C           48.34176754419848        2.08253059575859       -2.68948194906809
C           49.30426381931520        1.74522196040558       -1.81866112720734
N           47.25658355501219        1.01411394148210       -0.99233029924591
C           48.63392147622110        1.06231822579527       -0.74009805053604
C           49.23608012261596        0.49283544420703        0.35315152166070
C           48.51018229812877       -0.22574187084004        1.39779418369822
C           49.12273092587330       -0.87745158467252        2.42375673047688
C           48.11828412183986       -1.59924995324383        3.12429229516910
C           46.93357206444379       -1.35476735745555        2.49902055339434
N           47.12882445356720       -0.47588330075648        1.41246589492887
C           45.66111883207694       -1.95118354527649        2.90711824286836
C           45.67525906520927       -3.13619395645098        3.71697268342374
C           45.70173770255875       -4.18298415329567        4.33517839032442
C           45.76204042767623       -5.45765657688993        4.98007724657724
C           44.59613210090474       -6.09749349370988        5.41196659239564
C           44.67552761873933       -7.41457848297556        5.84926529891239
N           45.85080570010184       -8.07108097896329        5.88027314189250
C           46.98877957533215       -7.45831864311031        5.50750488632786
C           46.97927230525167       -6.14618469042431        5.05506213957529
C           44.46208816295896       -1.46273697835497        2.49542759518070
C           43.15774168348658       -1.94414602951234        2.90891073719149
C           42.25877682747165       -1.21405023054504        2.23915071192686
C           42.99754828166947       -0.29255028045997        1.39159699845879
N           44.29450576224118       -0.42676502337711        1.55129302880468
H           41.30401551783244        1.81346909014590       -1.99108592749508
H           43.11241716097503        2.36053982966654       -3.72057842596552
H           47.46347524868369        1.54243199924948       -7.22922075178740
H           47.37623166401109        2.07717270490458       -9.64582894762700
H           44.01070215723458        4.52774862218329       -9.07452296262475
H           44.02226129436387        4.07023904507346       -6.63973741988738
H           48.49817614934754        2.61826023953135       -3.60764548918614
H           50.35643692659366        1.96597181531719       -1.93326330176516
H           50.17940807587206       -0.88491962830918        2.63882498424845
H           48.25951007050905       -2.23476665995259        3.98589633592813
H           43.63671261721728       -5.59095803091784        5.35024020299543
H           43.76891460623735       -7.94119409840749        6.14062048645157
H           47.92347725648128       -8.01387057984077        5.52891528348020
H           47.89647519551103       -5.68137193270543        4.71211198022366
H           42.92692235500709       -2.73095910922482        3.61369386658842
H           41.18884815787607       -1.32180234309044        2.31632674525499
181
 energy: -329.608702719023 gnorm: 0.331305472405 xtb: 6.5.1 (b24c23e)
Cu          31.91139687676331       -0.25247312528106       -0.17758072773868
C           28.52238983222435       -0.14562212107692       -0.15989206163777
C           29.19533110109820        0.67379376821127        0.72053097333880
C           28.53397540266054        1.54586155043409        1.66553361264879
C           29.49960208952837        2.20620903503448        2.33491353689387
C           30.77335835420362        1.75479719085422        1.80992290108480
N           30.55865143656179        0.82000886802811        0.82976543883604
C           32.01584858008648        2.24252179058218        2.22485246476837
C           32.03064041793926        3.24312013323107        3.23946782681540
C           32.05635792698152        4.09508551502616        4.11052873896301
C           32.09864473090874        5.09284966902003        5.12458080981336
C           33.29748616532136        5.75069389351229        5.43934282319942
C           33.29316604733969        6.71511695496137        6.43365055158685
N           32.18608990771246        7.04201883430346        7.10623227648742
C           31.03679830160107        6.42466157588852        6.81860779559715
C           30.94562541274668        5.44859069715455        5.83998670647885
C           33.26622334367783        1.80608220278507        1.68044090963278
C           34.53811655278852        2.41436568898158        1.99368623198560
C           35.49822203023264        1.73140083617525        1.32609051424932