169
 energy: -301.823027562097 gnorm: 0.000514110713 xtb: 6.5.1 (b24c23e)
Co          24.80355336094283       -0.01994816450323       -0.01642872954146
C           21.43658556294294       -0.05268557731285       -0.04539265462496
C           22.10532666313254       -1.25103914019352       -0.17830941657454
C           21.45605090195320       -2.51765595597218       -0.33173609541154
C           22.41586650653012       -3.46414723626956       -0.20794897777363
C           23.65291033775732       -2.77480466908425        0.01768327062240
N           23.45813980889952       -1.41753110058177       -0.01955865864089
C           24.83081351488358       -3.39374261060948        0.41472877473404
C           24.84513247587645       -4.86405393969264        0.59689479056756
C           25.02648492098344       -5.43664241932952        1.85454884107584
C           25.03662052560900       -6.81785590845545        1.97145526621230
N           24.88483665016548       -7.63372946435568        0.93339605717059
C           24.71229527530633       -7.09479427981768       -0.26914535303176
C           24.68259682285441       -5.72610843273834       -0.48625302066069
C           25.99549475396362       -2.67752762856824        0.64501501519128
C           27.23832580424526       -3.26504878865021        1.04737912130716
C           28.18317652619484       -2.30122004640858        0.93145653412117
N           26.17436997968176       -1.34870990490831        0.33337422927546
C           27.51787928301647       -1.13076332605215        0.45262959044910
C           28.18780330529903        0.00675660961561       -0.00498020283868
C           27.50021915863369        1.13521803313570       -0.45798758466579
C           28.14326167043365        2.30933861998499       -0.95738514381411
C           27.18404817707971        3.26020883803720       -1.06760119175740
C           25.95860689197012        2.66398244525664       -0.62737497128465
N           26.15522715465106        1.33668472915969       -0.32366672746421
C           24.77606713707467        3.36008651386553       -0.42287804610535
C           24.77066382055309        4.82941634866519       -0.59060471244457
C           23.92332222314983        5.45459213872544       -1.50481278675762
C           23.96080377507368        6.83470691274422       -1.62646771463875
N           24.76848614971330        7.60424650777559       -0.90406635956753
C           25.57763426739160        7.01676894824812       -0.02826193921892
C           25.61719244341712        5.64457903873984        0.16069017738019
C           23.59920722533065        2.71200180745844       -0.06936470079569
C           22.35411346755171        3.37443554837428        0.18892240335489
C           21.40926386025846        2.40908193912889        0.28345753259290
C           22.07999056093570        1.15800728966804        0.09980929108550
N           23.43043835277210        1.35125850662664       -0.04911701218670
H           20.35306681868617       -0.06377382524702       -0.04955887789692
H           20.39737802625170       -2.64559692426213       -0.49211747553291
H           22.30655829014578       -4.53601424268802       -0.24052697147385
H           25.14360544152978       -4.81003181230941        2.73059824559826
H           25.17299799328037       -7.28835585544274        2.94077988810725
H           24.59340616680292       -7.78737210529574       -1.09726876330931
H           24.55095623846944       -5.33098249185918       -1.48644007819098
H           27.36474961951484       -4.29033674351231        1.35454816431283
H           29.24139634034034       -2.36694835839609        1.12687447936569
H           29.19577627889808        2.38327365945262       -1.17897571747949
H           27.28578740202500        4.27600152853132       -1.41329827396915
H           23.25729470947595        4.86703553937883       -2.12537619769176
H           23.31365597663692        7.34356840966887       -2.33485370870842
H           26.22424569853843        7.67197334921555        0.54809115508763
H           26.28523795087825        5.21051097031699        0.89505166100760
H           22.23204770024489        4.44162279206648        0.27927209394321
H           20.34994041671997        2.51487245300495        0.45527256668931
Co          51.55424856187882        0.04219812480198       -0.00929735125309
C           54.93072828876244        0.06042496493724       -0.02550819726444
C           54.26887428520707        1.17029882551937       -0.50419239686896
C           54.93376636182106        2.33480229694307       -1.00499240946408
C           53.97799212923020        3.27221000882742       -1.20244104550001
C           52.72893378914230        2.67655365383342       -0.82697072796810
N           52.91313906062516        1.37324440969165       -0.44107501970228
C           51.53838244791523        3.38097635734913       -0.71260236290106
C           51.53220992592901        4.83372336056689       -1.00580459835672
C           51.29829634256460        5.77038679717979       -0.00040802240698
C           51.30138781289138        7.11890085601834       -0.32083195404784
N           51.51382126188884        7.56977686425404       -1.55287530382188
C           51.73573866456146        6.68241263270295       -2.51697958408406
C           51.75732997178557        5.31430572732793       -2.29444968509536
C           50.35532279908143        2.77173292488254       -0.32640939125718
C           49.10288380883799        3.45810392942050       -0.21766786982315
C           48.15475358711862        2.51198642885318       -0.01914459696321
N           50.17734026301619        1.41676671858488       -0.15771823885967
C           48.82909230845137        1.25227003499021       -0.01254753198504
C           48.15904111577537        0.02700091080465        0.01188421467606
C           48.84141212869439       -1.19150896639278        0.02956182795131
C           48.18401970039437       -2.45974993075994        0.00514990597252
C           49.14408598847982       -3.39747207309804        0.18821238047816
C           50.38335314592248       -2.69522189913304        0.33642773129393
N           50.19122216751643       -1.34148382416894        0.17673396170816
C           51.57895820589128       -3.29910098308867        0.69308370467146
C           51.58991969167760       -4.74954030275869        0.98720111660757
C           52.36816890532156       -5.63329079913351        0.24058720782924
C           52.33804126352454       -6.98457249313789        0.54745236109848
N           51.60210646104097       -7.48732842755678        1.53333233771383
C           50.86089215661904       -6.65098521448419        2.25296003325158
C           50.81910049798583       -5.28579731091745        2.01814278173581
C           52.76619846242866       -2.58404819682844        0.77804147569916
C           54.01744354490057       -3.15108017253137        1.18820449472984
C           54.96209325536783       -2.20401076654114        0.98108978385570
C           54.28493313163784       -1.05752952247742        0.45600718057699
N           52.93230335706868       -1.27979940006732        0.38892234128282
H           56.01432832318093        0.06867216315025       -0.02490835860980
H           55.99822511819331        2.41070156805290       -1.15993529990633
H           54.09591992013207        4.28565707570166       -1.55000555583142
H           51.12997022253856        5.44808323992256        1.02019426805285
H           51.12534343225777        7.86837182207158        0.44522844302872
H           51.90327177504131        7.08194092738618       -3.51290613560717
H           51.93157933303407        4.62696635919337       -3.11358341541919
H           48.97474768111488        4.52451406990037       -0.30584019841375
H           47.09024141645419        2.63683293680452        0.09689381814776
H           47.12340349749868       -2.59683431420035       -0.13096755651578
H           49.03495785401731       -4.46913157162770        0.22246581246357
H           52.97486832223873       -5.26998565320375       -0.58029758192432
H           52.93017570691995       -7.69321053750568       -0.02415503049801
H           50.27334809605892       -7.09143572114347        3.05316547563868
H           50.20759395263008       -4.64025161942335        2.63720965606478
H           54.14180696546653       -4.14748383707473        1.58014288105600
H           56.02491316199482       -2.25899543375827        1.15494300218084
C           30.81314484595205        0.02214843641741       -0.01151934811496
C           29.59090498292935        0.01546598522386       -0.01038583680953
C           32.16162747455247        0.02446259100502       -0.01390209981096
C           33.38409134550133        0.02373162777064       -0.01753139108432
C           44.18586653312158        0.00646253592253        0.00817425740877
C           42.96312701422457        0.00427419417360        0.00460578783017
C           45.53377775470792        0.01174715210328        0.01352525178576
C           46.75626025315458        0.02008952840016        0.01304731129575
Co          38.17427225188330        0.02621208300651        0.00551584218362
C           34.78605367952819        0.01726688319934       -0.02009848466730
C           35.46462970359308       -0.66617207815331        0.99371469309363
C           34.81561419330681       -1.32685397720517        2.08074382454205
C           35.76936733978670       -2.04527632016201        2.72337278135259
C           36.99470281085837       -1.82803667788695        2.01636354245751
N           36.80529587117451       -0.92635217840306        0.99592620762073
C           38.16801969535858       -2.53764932162691        2.23653376206693
C           38.16747623678341       -3.63381112243431        3.22882003935682
C           37.29815421752203       -4.71795087235470        3.11154440726090
C           37.33454648357573       -5.71932929253708        4.06891856128092
N           38.16102111894661       -5.69672033685066        5.10955822651020
C           38.99117637161389       -4.66584659619273        5.23022487852075
C           39.03408671421497       -3.62043972567703        4.32144308598759
C           39.34202125499308       -2.24279340783138        1.55686849786235
C           40.56650961867046       -2.97054137178545        1.69884469961088
C           41.52373773806715       -2.25079599271987        1.06345877356981
N           39.53388940751267       -1.13244911738950        0.76801476209037
C           40.87789719789804       -1.09493075779349        0.52767579461682
C           41.56196234038146        0.00188575051210       -0.00611264462644
C           40.88266008806848        1.09503730547970       -0.55351458954512
C           41.53106284685121        2.24932839423268       -1.08918787926302
C           40.58110256212525        2.95624036794544       -1.75010001626333
C           39.35777233693862        2.22509692942127       -1.61878753237360
N           39.54408988895617        1.11876864298365       -0.82469619526482
C           38.18878146736223        2.51321878494336       -2.31104034500445
C           38.20232157918640        3.59574670355640       -3.31826243341401
C           39.07495067167687        3.55677770625744       -4.40553582727482
C           39.05006908355558        4.58975122525803       -5.32895063623937
N           38.23254123030648        5.63271483252029       -5.22667279345120
C           37.40119734449440        5.68013439068871       -4.19087011156339
C           37.34650129925881        4.69229796777584       -3.22021515091820
C           37.01023835935474        1.81629233332038       -2.08225364005686
C           35.78367120957787        2.04543014166953       -2.78410363496708
C           34.82266759466174        1.35159538083607       -2.12628050916926
C           35.46884599622202        0.68936495292917       -1.03811163317283
N           36.81508256375069        0.91978820811229       -1.05720550876640
H           33.76418414037440       -1.24810181388472        2.30551544621822
H           35.66225771172942       -2.66929241408570        3.59556462601873
H           36.61556847981745       -4.78420853248626        2.27275436794773
H           36.67047700297969       -6.57566049003589        3.99695432941667
H           39.65187224210256       -4.67488886408939        6.09211804796665
H           39.71864684140841       -2.79341906276616        4.46744935350752
H           40.67069390973874       -3.90615185509519        2.22357755239481
H           42.57627971127206       -2.46362765970231        0.96786834225255
H           42.58045322402852        2.46963877301574       -0.97747664845228
H           40.68878206086826        3.88764731102217       -2.28168712576571
H           39.75062809236369        2.71978381326289       -4.53516045722907
H           39.71566274998779        4.57887400761125       -6.18704413670179
H           36.74839606345275        6.54618784857275       -4.13374979333648
H           36.66072380312373        4.77939200134006       -2.38595495872727
H           35.68063936155211        2.66358008514160       -3.66092921660136
H           33.76807801867265        1.28973442045997       -2.34133433799393
