205
 energy: -316.188181649079 gnorm: 35.729961983773 xtb: 6.5.1 (b24c23e)
Fe          34.86595100000000        1.97339500000000        1.62074500000000
C           31.11486000000000        0.07991100000000       -0.03889500000000
C           31.76449200000000        0.93311200000000        0.75821300000000
C           31.09978600000000        1.85175100000000        1.67455300000000
C           32.02999100000000        2.56491000000000        2.28181800000000
C           33.34222200000000        2.14392000000000        1.77170300000000
N           33.18042400000000        1.09974400000000        0.81081200000000
C           34.52763500000000        2.67420900000000        2.13828300000000
C           34.56149800000000        3.78769200000000        3.11417400000000
C           34.07369599999999        5.05479800000000        2.76350400000000
C           34.12189500000000        6.10665100000000        3.68221300000000
C           34.66295200000000        5.91220100000000        4.96299400000000
N           34.69940700000000        7.01552200000000        5.88698800000000
C           35.24081899999999        6.91797700000000        7.23851000000000
C           35.15837300000000        4.63992100000000        5.30848200000000
C           35.10877100000000        3.58815300000000        4.38909700000000
C           35.82677400000000        2.19569000000000        1.59667000000000
C           37.10357600000000        2.88977300000000        1.80448700000000
C           38.04803000000000        2.18003700000000        1.22121600000000
N           35.98293200000000        1.10605200000000        0.90916300000000
C           37.38103900000000        1.02551800000000        0.63196800000000
C           37.98782100000000        0.01414600000000       -0.01025900000000
C           37.23720100000000       -1.11933000000000       -0.59475200000000
C           37.77893400000000       -2.28675600000000       -0.91814100000000
C           36.74686800000000       -3.07804900000000       -1.55956000000000
C           35.64390800000000       -2.33897500000000       -1.58985500000000
N           35.86357599999999       -1.06597100000000       -0.98017400000000
C           34.37335399999999       -2.75465200000000       -2.23747600000000
C           34.41190700000000       -3.85567900000000       -3.23068800000000
C           35.15762299999999       -3.71230200000000       -4.40935100000000
C           35.21465600000000       -4.75310300000000       -5.34070000000000
C           34.52876799999999       -5.95986500000000       -5.10348000000000
N           34.56750899999999       -7.05021300000000       -6.04266400000000
C           35.30423400000000       -7.00456700000000       -7.30138200000000
C           33.79119800000000       -6.10097000000000       -3.91750900000000
C           33.73549400000000       -5.06024400000000       -2.98666300000000
C           33.20459000000000       -2.15238100000000       -1.94509800000000
C           31.90421400000000       -2.44915200000000       -2.54364900000000
C           31.03191600000000       -1.67289600000000       -1.93008400000000
C           31.76666900000000       -0.87219300000000       -0.95216800000000
N           33.03355000000000       -1.14321000000000       -0.95206000000000
H           30.03126100000000        0.08288900000000       -0.02042500000000
H           30.03434500000000        1.94119600000000        1.84363700000000
H           31.83062600000000        3.32391600000000        3.02690100000000
H           33.65796700000000        5.22684600000000        1.77818700000000
H           33.73811200000000        7.07721200000000        3.39392400000000
H           34.31982800000000        7.94126500000000        5.58377400000000
H           36.31313299999999        6.63317600000000        7.19673400000000
H           34.67081800000000        6.16380700000000        7.82076900000000
H           35.15484699999999        7.89961200000000        7.75058100000000
H           35.58488500000000        4.45202600000000        6.28424100000000
H           35.49586900000000        2.61637900000000        4.67060400000000
H           37.26343300000000        3.81867500000000        2.33598600000000
H           39.10020400000000        2.43098600000000        1.20191000000000
H           38.80566200000000       -2.58951300000000       -0.76190600000000
H           36.86618699999999       -4.07561500000000       -1.96207100000000
H           35.69268500000000       -2.79157500000000       -4.60795000000000
H           35.79600900000000       -4.60808100000000       -6.24088100000000
H           34.04249200000000       -7.92673800000000       -5.82116700000000
H           34.91586200000000       -6.18146200000000       -7.93728800000000
H           35.17769800000000       -7.96347400000000       -7.84701100000000
H           36.38550099999999       -6.85107000000000       -7.10137900000000
H           33.25993700000000       -7.02182200000000       -3.71208000000000
H           33.16841500000000       -5.19366300000000       -2.07347900000000
H           31.67389900000000       -3.15477800000000       -3.33092500000000
H           29.96868900000000       -1.64116300000000       -2.12877300000000
Fe          64.13958400000000       -2.00506500000000       -1.56641400000000
C           67.89067500000000        0.02774200000000       -0.08068800000000
C           67.24104199999999       -0.93632700000000       -0.73940200000000
C           67.90574900000000       -2.03103500000000       -1.43596100000000
C           66.97554400000000       -2.77927800000000       -1.99943100000000
C           65.66331300000000       -2.18959400000000       -1.69989200000000
N           65.82511100000001       -1.02401800000000       -0.89054200000000
C           64.47790000000001       -2.66305000000000       -2.13741600000000
C           64.44403699999999       -3.85838800000000       -3.01113000000000
C           64.93183900000000       -3.79264900000000       -4.32422000000000
C           64.88364000000000       -4.91873400000000       -5.15026600000000
C           64.34258300000000       -6.12622500000000       -4.68103500000000
N           64.30612800000000       -7.26869900000000       -5.55615600000000
C           63.76471600000000       -8.56637000000000       -5.16606000000000
C           63.84716199999999       -6.18577700000000       -3.36402700000000
C           63.89676399999999       -5.05905100000000       -2.53821100000000
C           63.17876100000000       -2.03007500000000       -1.78860700000000
C           61.90195900000000       -2.38433300000000       -2.42061900000000
C           60.95750500000000       -1.66025200000000       -1.85525400000000
N           63.02260299999999       -1.12137600000000       -0.87523700000000
C           61.62449500000000       -0.83328700000000       -0.85712800000000
C           61.01771300000000        0.01414600000000       -0.01025900000000
C           61.76833299999999        0.83187800000000        0.96836900000000
C           61.22659999999999        1.40220700000000        2.03710100000000
C           62.25866599999999        2.20083000000000        2.66937000000000
C           63.36162700000000        2.06912900000000        1.94149400000000
N           63.14195900000000        1.19637100000000        0.83219600000000
C           64.63218000000001        2.79184600000000        2.20584500000000
C           64.59362800000000        4.00136900000000        3.06362300000000
C           63.84791100000000        5.12034600000000        2.66651800000000
C           63.79087900000000        6.25635600000000        3.47901900000000
C           64.47676700000000        6.28816700000000        4.70846500000000
N           64.43802599999999        7.44263400000000        5.56761100000000
C           63.70130099999999        8.66106200000000        5.24841300000000
C           65.21433700000000        5.16156200000000        5.10494800000000
C           65.27004100000001        4.02605900000000        4.29240900000000
C           65.80094400000000        2.37509800000000        1.68188300000000
C           67.10132100000000        3.02398200000000        1.84089900000000
C           67.97361900000000        2.25582200000000        1.21722700000000
C           67.23886600000000        1.12675700000000        0.64919800000000
N           65.97198500000000        1.18578800000000        0.91370900000000
H           68.97427399999999        0.00906700000000       -0.07956400000000
H           68.97119000000001       -2.21556100000000       -1.48635700000000
H           67.17490800000000       -3.67202100000000       -2.57757100000000
H           65.34756700000000       -2.86861500000000       -4.70711700000000
H           65.26742299999999       -4.84916800000000       -6.16034500000000
H           64.68570699999999       -7.17478800000000       -6.52575300000000
H           62.69240200000000       -8.46345800000000       -4.89723700000000
H           64.33471700000000       -8.97004000000000       -4.30301400000000
H           63.85068800000000       -9.28029600000000       -6.01230900000000
H           63.42065000000000       -7.09702600000000       -2.96774900000000
H           63.50966600000000       -5.12173400000000       -1.52842800000000
H           61.74210200000000       -3.10571100000000       -3.21116600000000
H           59.90533100000000       -1.69616800000000       -2.10437000000000
H           60.19987300000000        1.31579800000000        2.36665300000000
H           62.13934800000000        2.81131000000000        3.55507100000000
H           63.31284900000000        5.11325800000000        1.72464200000000
H           63.20952599999999        7.10320300000000        3.14107300000000
H           64.96304300000000        7.41773100000000        6.47134600000000
H           64.08967300000000        9.10204400000000        4.30638800000000
H           63.82783700000000        9.40277700000000        6.06515900000000
H           62.62003300000000        8.43238500000000        5.14225500000000
H           65.74559800000000        5.16201200000000        6.04843600000000
H           65.83712000000000        3.16399100000000        4.62186900000000
H           67.33163600000000        3.94625500000000        2.35774000000000
H           69.03684599999998        2.44280000000000        1.14290500000000
C           41.77365399999999        0.02658200000000       -0.00781700000000
C           40.52138400000000        0.00740100000000       -0.01216600000000
C           43.08732199999999        0.02581600000000       -0.00588500000000
C           44.59045600000000        0.00740100000000       -0.01216600000000
C           55.75735499999999        0.02658200000000       -0.00781700000000
C           54.50508499999999        0.00740100000000       -0.01216600000000
C           57.07102299999999        0.02581600000000       -0.00588500000000
C           58.57415700000000        0.00740100000000       -0.01216600000000
Fe          49.82995999999999       -2.03353400000000       -1.58538600000000
C           46.06630800000000       -0.02963700000000        0.02233100000000
C           46.72327000000000       -0.98821700000000       -0.65607900000000
C           46.08158299999999       -2.09413800000000       -1.37073500000000
C           47.02055200000000       -2.80458900000000       -1.96316000000000
C           48.31974999999999       -2.19723500000000       -1.65981200000000
N           48.14140600000000       -1.04874700000000       -0.82782700000000
C           49.50342799999999       -2.63927200000000       -2.13137000000000
C           49.52983499999999       -3.81134400000000       -3.03104700000000
C           49.61433400000000       -5.10482800000000       -2.50003800000000
C           49.64423799999999       -6.21262900000000       -3.35149900000000
C           49.59279500000000       -6.04452200000000       -4.74485200000000
N           49.62463900000000       -7.20533600000000       -5.59590300000000
C           49.57482200000000       -7.13791800000000       -7.05264800000000
C           49.51123900000000       -4.74062700000000       -5.27271100000000
C           49.47989999999999       -3.63347000000000       -4.41990100000000
C           50.80385400000000       -2.00872700000000       -1.79478400000000
C           52.07828199999999       -2.38139700000000       -2.42146900000000
C           53.03134699999999       -1.67564200000000       -1.84779600000000
N           50.96996000000000       -1.11290800000000       -0.87221500000000
C           52.37236500000000       -0.84768500000000       -0.84573500000000
C           52.98749400000000       -0.02963700000000        0.02233100000000
C           52.23875400000000        0.77272700000000        1.01321900000000
C           52.77597300000000        1.31456100000000        2.09893700000000
C           51.74294399999999        2.10330200000000        2.74132400000000
C           50.64501300000000        1.99204600000000        2.00239200000000
N           50.86763499999999        1.14511600000000        0.87574900000000
C           49.38554800000000        2.73176600000000        2.25682100000000
C           49.44374000000000        3.95806000000000        3.08887800000000
C           48.78394600000000        4.01192300000000        4.32545300000000
C           48.85425100000000        5.16430900000000        5.11376600000000
C           49.59221300000000        6.28178500000000        4.67791600000000
N           49.68189100000000        7.48436400000000        5.46445600000000
C           49.03756300000000        7.64826400000000        6.76339800000000
C           50.25813700000000        6.21746400000000        3.44398300000000
C           50.18867400000000        5.06439800000000        2.65759600000000
C           48.21092600000000        2.32534600000000        1.73785600000000
C           46.93091800000000        3.01254100000000        1.87424800000000
C           46.04217800000000        2.25597700000000        1.26412600000000
C           46.74295700000000        1.08355500000000        0.72870300000000
N           48.01118200000000        1.11966400000000        0.99947700000000
H           45.02389200000000       -2.31445600000000       -1.42804700000000
H           46.83582100000000       -3.68233700000000       -2.56901600000000
H           49.65603200000000       -5.25423600000000       -1.42778100000000
H           49.70767299999999       -7.20538600000000       -2.92339800000000
H           49.68680100000000       -8.15202100000000       -5.15759400000000
H           48.63169599999999       -6.64969200000000       -7.37708100000000
H           50.44744200000000       -6.56735100000000       -7.43487600000000
H           49.60791900000000       -8.16322900000000       -7.47847400000000
H           49.47175399999999       -4.57033700000000       -6.33996100000000
H           49.41857600000000       -2.63708200000000       -4.84094800000000
H           52.23179000000000       -3.10747000000000       -3.20872100000000
H           54.08476599999999       -1.73116600000000       -2.08744600000000
H           53.79972699999999        1.21514100000000        2.43381900000000
H           51.85975899999999        2.70020600000000        3.63646300000000
H           48.21787100000000        3.15900200000000        4.67973000000000
H           48.33274700000000        5.17380700000000        6.06088600000000
H           50.23443000000000        8.29024400000000        5.09325400000000
H           49.42640399999999        6.89135400000000        7.47646900000000
H           49.25388000000000        8.66004900000000        7.16705100000000
H           47.93817700000000        7.53817500000000        6.65641700000000
H           50.83428599999999        7.06329300000000        3.08994600000000
H           50.71126000000000        5.03538400000000        1.70916400000000
H           46.72486600000000        3.95572300000000        2.36279700000000
H           44.98908500000000        2.48683300000000        1.17873300000000
205
 energy: -332.817671446401 gnorm: 7.789185017702 xtb: 6.5.1 (b24c23e)
Fe          34.81092058714857        1.82998362645975        1.53703874995162
C           31.11494665311113        0.07930772924686       -0.03947327950404
C           31.76495541166948        0.93335414045875        0.75846325596327
C           31.09956967902281        1.85136673059186        1.67420551085458
C           32.03043040029421        2.56519429044937        2.28206199162450
C           33.33380244001167        2.14305792016636        1.77135486384833
N           33.17965044770107        1.10041498942479        0.81144605669297
C           34.47151126530923        2.79275061642361        2.22637686890837
C           34.56079123113295        3.78883412763338        3.11490815919103
C           34.07373650598059        5.05499668129190        2.76378473609793
C           34.12191667622194        6.10654469016330        3.68214615445135
C           34.66298594550344        5.91262001459769        4.96339770910182
N           34.69926627756080        7.01537891774975        5.88651857136382
C           35.24082561568487        6.91796179558816        7.23851477307750
C           35.15834946119675        4.63988856151088        5.30835967366832
C           35.10872262669479        3.58840162726741        4.38917615184003
C           35.94313367748089        2.22340748262530        1.59442820504699
C           37.10451083060148        2.89010175972281        1.80456998755061
C           38.04834083782430        2.17975264962356        1.22094957752516
N           35.98574173267286        1.10254904352962        0.90643201588459
C           37.38144222350491        1.02564135316329        0.63203098779960
C           37.98744953513553        0.01341206637689       -0.01057583012833
C           37.23702313498439       -1.11795699396849       -0.59435996215059
C           37.77898571983702       -2.28812534421813       -0.91868699316452
C           36.74825397519439       -3.07834056877609       -1.55932450778092
C           35.64291212269767       -2.33798060868652       -1.58981165456935
N           35.86381883821285       -1.06643079437689       -0.98045296624085
C           34.37397124410699       -2.75455326786282       -2.23727759665461
C           34.41198219178618       -3.85566791772633       -3.23061902502439
C           35.15758336005915       -3.71253036994017       -4.40938439404152
C           35.21458829331662       -4.75307753663408       -5.34057946298015
C           34.52880922727038       -5.96022150600154       -5.10383780626433
N           34.56732313730143       -7.05011086931280       -6.04225655682411
C           35.30423534558867       -7.00455501906412       -7.30137229432625
C           33.79122748280805       -6.10084778729140       -3.91746498390600
C           33.73554137570424       -5.06029317164178       -2.98687699692182
C           33.20425077638296       -2.15211767579221       -1.94489058240292
C           31.90458407406770       -2.44936222667143       -2.54379142345738
C           31.03148660236057       -1.67257306944846       -1.92983807273951
C           31.76605082324619       -0.87187901090937       -0.95192088986077
N           33.03381520488899       -1.14360885176678       -0.95240046030728
H           30.03125677921117        0.08288062852535       -0.02044829870921
H           30.03436525687599        1.94113560576523        1.84358457012964
H           31.83074539835691        3.32392952729513        3.02689673055898
H           33.65795969601685        5.22683235638014        1.77818776491976
H           33.73811387124645        7.07723003590914        3.39393523830865
H           34.31998959484609        7.94083195476398        5.58387192476806
H           36.31298237820200        6.63320098901331        7.19676859806050
H           34.67092278552223        6.16390486967597        7.82070707138510
H           35.15484393565037        7.89944671943938        7.75044854891518
H           35.58488690819681        4.45204295223583        6.28425439300743
H           35.49586204745157        2.61636003979909        4.67060327186494
H           37.26331896710532        3.81870199609123        2.33602618290690
H           39.10020921553733        2.43088259045685        1.20184574136971
H           38.80564592898030       -2.58952309663827       -0.76191213630202
H           36.86621246626901       -4.07560733005284       -1.96204038894251
H           35.69267820367946       -2.79157598737791       -4.60794017911611
H           35.79600814856951       -4.60809704381404       -6.24090102950316
H           34.04271686299685       -7.92632560640082       -5.82123147193769
H           34.91594542805131       -6.18156972345378       -7.93721741528726
H           35.17769648356089       -7.96331311402264       -7.84687958473815
H           36.38535836951596       -6.85107545617147       -7.10143710702958
H           33.25993854833747       -7.02184268497149       -3.71208936075501
H           33.16842197881585       -5.19365309424094       -2.07347695542356
H           31.67399934193020       -3.15477875790738       -3.33090774268935
H           29.96868097863079       -1.64110598779208       -2.12871870179778
Fe          64.19460669283723       -1.89208793377144       -1.44472754769054
C           67.89058890301995        0.02844410350228       -0.08022139376234
C           67.24057879815531       -0.93662995022684       -0.73958788263023
C           67.90596696053714       -2.03060591910382       -1.43565729432800
C           66.97509571808756       -2.77957942193749       -1.99965695541979
C           65.67174634457041       -2.18907241739337       -1.69912988715371
N           65.82588123473167       -1.02478290860643       -0.89105821892631
C           64.53402220792545       -2.77488364669713       -2.23387669571183
C           64.44474384474391       -3.85935415489996       -3.01208469312079
C           64.93179810498781       -3.79296603650237       -4.32435189020241
C           64.88361793443244       -4.91864634439484       -5.15017692683081
C           64.34254943734089       -6.12670814899493       -4.68135382278130
N           64.30626791612251       -7.26821133017967       -5.55612053882648
C           63.76471030903878       -8.56637088502158       -5.16604424549251
C           63.84718561312084       -6.18565092727442       -3.36402312330975
C           63.89681265952165       -5.05918120531008       -2.53843627811470
C           63.06240828439002       -2.03393847278041       -1.81614860017029
C           61.90102563074476       -2.38448596496289       -2.42092153830419
C           60.95719424239506       -1.65993002661590       -1.85503383388145
N           63.01977811524235       -1.11792827445720       -0.87240362242748
C           61.62408569348600       -0.83339217779022       -0.85725010548985
C           61.01797944086010        0.01462394459184       -0.00960271618543
C           61.76848649563842        0.83120211550683        0.96712486225838
C           61.22654705465379        1.40304126120904        2.03831930765686
C           62.25728103125600        2.20066131794260        2.66970466884206
C           63.36261602208887        2.06886606928597        1.94053215734203
N           63.14171922643865        1.19673977044035        0.83257710651431
C           64.63156610925803        2.79163376388941        2.20579310178964
C           64.59355251565984        4.00129785599917        3.06362577460098
C           63.84794896071817        5.12043030968098        2.66673403069929
C           63.79094626554271        6.25623196442749        3.47901857337776
C           64.47672539373978        6.28859754187240        4.70873781676922
N           64.43821255874300        7.44221134269766        5.56759733900387
C           63.70129826512224        8.66105067080156        5.24840331111426
C           65.21430822470143        5.16149086356628        5.10483800529820
C           65.26999505032947        4.02627917295028        4.29241120994371
C           65.80128269324184        2.37483696310498        1.68167172330360
C           67.10095142583691        3.02416645116897        1.84107292669764
C           67.97404814829018        2.25551183867812        1.21696592231846
C           67.23948778619190        1.12644548363558        0.64894379809041
N           65.97171739194533        1.18620757674182        0.91402423221096
H           68.97427808667025        0.00909138804290       -0.07956094637266
H           68.97116960259048       -2.21549660587030       -1.48630950196528
H           67.17478856546090       -3.67201983674602       -2.57758522462188
H           65.34757435350133       -2.86861292788799       -4.70710342294801
H           65.26742119859036       -4.84918299722987       -6.16036016895550
H           64.68554578295893       -7.17478922436598       -6.52530884448982
H           62.69255228161799       -8.46349735934342       -4.89725368995304
H           64.33461214857090       -8.97000097011920       -4.30312297697519
H           63.85069105347918       -9.28013081947322       -6.01217662239012
H           63.42064813497107       -7.09704296926986       -2.96776255178358
H           63.50967306285435       -5.12172920916906       -1.52840969508420
H           61.74221584644004       -3.10575606537998       -3.21118358657706
H           59.90532345597624       -1.69608074258386       -2.10428083079560
H           60.19988933933421        1.31580603966461        2.36666019676372
H           62.13932240001466        2.81127781490618        3.55506900738489
H           63.31285581908778        5.11324867648082        1.72464523595297
H           63.20952708441295        7.10322566761038        3.14108431225202
H           64.96281789586527        7.41770370309748        6.47092979131185
H           64.08958969012843        9.10199842209323        4.30650867870710
H           63.82783858353093        9.40261340261365        6.06503059605190
H           62.62017627985361        8.43244270159197        5.14224778116758
H           65.74559629306236        5.16202541670994        6.04845410528462
H           65.83711299497580        3.16398669879411        4.62185986947825
H           67.33153557196992        3.94623819840453        2.35774442597519
H           69.03685398378529        2.44273455609722        1.14286117124452
C           41.77307033100216        0.02657763777506       -0.00782842410668
C           40.52127365792073        0.00741423661339       -0.01216217332085
C           43.09084352356967        0.02576575830389       -0.00588482129810
C           44.58804626800143        0.00740522403232       -0.01211253518847
C           55.75678669331730        0.02655862964064       -0.00781353243636
C           54.50456497563031        0.00742690728156       -0.01207609339118
C           57.07466007111960        0.02580238395534       -0.00590223927860
C           58.57135369642988        0.00742608122374       -0.01215926701172
Fe          49.80344992114520       -1.88967554978013       -1.43028054942359
C           46.06518048068260       -0.02884608307391        0.02272580391556
C           46.72389200109582       -0.98878271568957       -0.65645436188312
C           46.08133695050964       -2.09360635470685       -1.37034597304475
C           47.02106079774102       -2.80489478451313       -1.96340321859712
C           48.31056687704750       -2.19700502575870       -1.65893230020546
N           48.14064123655846       -1.04938660175090       -0.82825208328045
C           49.42543302736137       -2.78695256337456       -2.26404057838599
C           49.52896133464062       -3.81260626623021       -3.03223932684402
C           49.61432698740599       -5.10499813160762       -2.50029532730717
C           49.64425280906185       -6.21251966272779       -3.35146418283349
C           49.59280285527173       -6.04492610869605       -4.74520670176667
N           49.62464520262914       -7.20519807095206       -5.59543591354735
C           49.57482092276402       -7.13790328715327       -7.05264957774424
C           49.51126173144022       -4.74060877292093       -5.27260541390172
C           49.47991017846389       -3.63379722737813       -4.42002266884770
C           50.91448955466566       -2.00692666873778       -1.81925534111908
C           52.07919176662564       -2.38148286648712       -2.42175760731854
C           53.03167205543222       -1.67532589551756       -1.84751535566774
N           50.97272617134907       -1.10958225648878       -0.86961305730643
C           52.37223212035985       -0.84810326711860       -0.84610388471607
C           52.98829536106612       -0.02908935962499        0.02291175626189
C           52.23821354214519        0.77235971519966        1.01222628121770
C           52.77610079871956        1.31525209358530        2.09996499102462
C           51.74410720168105        2.10319047691699        2.74168173152795
C           50.64410104059342        1.99189839308576        2.00153011057734
N           50.86801303436829        1.14528109917096        0.87617863934877
C           49.38610530120331        2.73154871897292        2.25673502986225
C           49.44380217002713        3.95800194424521        3.08889874908441
C           48.78400945720747        4.01214562673115        4.32543422820474
C           48.85430746796947        5.16428220369554        5.11364441595688
C           49.59221236947908        6.28216600533692        4.67821369708559
N           49.68204026693910        7.48421341708127        5.46406452953414
C           49.03756381790349        7.64825088388752        6.76338490831292
C           50.25809047085420        6.21734385489147        3.44395577207227
C           50.18863650614291        5.06448775959865        2.65779711789294
C           48.21063985384703        2.32514194604352        1.73768860873557