      -----------------------------------------------------------      
     |                   =====================                   |     
     |                           x T B                           |     
     |                   =====================                   |     
     |                         S. Grimme                         |     
     |          Mulliken Center for Theoretical Chemistry        |     
     |                    University of Bonn                     |     
      -----------------------------------------------------------      

   * xtb version 6.5.1 (b24c23e) compiled by 'conda@728c89f4b128' on 2022-07-12

   xtb is free software: you can redistribute it and/or modify it under
   the terms of the GNU Lesser General Public License as published by
   the Free Software Foundation, either version 3 of the License, or
   (at your option) any later version.
   
   xtb is distributed in the hope that it will be useful,
   but WITHOUT ANY WARRANTY; without even the implied warranty of
   MERCHANTABILITY or FITNESS FOR A PARTICULAR PURPOSE.  See the
   GNU Lesser General Public License for more details.
   
   Cite this work as:
   * C. Bannwarth, E. Caldeweyher, S. Ehlert, A. Hansen, P. Pracht,
     J. Seibert, S. Spicher, S. Grimme, WIREs Comput. Mol. Sci., 2020, 11,
     e01493. DOI: 10.1002/wcms.1493
   
   for GFN2-xTB:
   * C. Bannwarth, S. Ehlert and S. Grimme., J. Chem. Theory Comput., 2019,
     15, 1652-1671. DOI: 10.1021/acs.jctc.8b01176
   for GFN1-xTB:
   * S. Grimme, C. Bannwarth, P. Shushkov, J. Chem. Theory Comput., 2017,
     13, 1989-2009. DOI: 10.1021/acs.jctc.7b00118
   for GFN0-xTB:
   * P. Pracht, E. Caldeweyher, S. Ehlert, S. Grimme, ChemRxiv, 2019, preprint.
     DOI: 10.26434/chemrxiv.8326202.v1
   for GFN-FF:
   * S. Spicher and S. Grimme, Angew. Chem. Int. Ed., 2020, 59, 15665-15673.
     DOI: 10.1002/anie.202004239
   
   for ALPB and GBSA implicit solvation:
   * S. Ehlert, M. Stahn, S. Spicher, S. Grimme, J. Chem. Theory Comput.,
     2021, 17, 4250-4261. DOI: 10.1021/acs.jctc.1c00471
   
   for DFT-D4:
   * E. Caldeweyher, C. Bannwarth and S. Grimme, J. Chem. Phys., 2017,
     147, 034112. DOI: 10.1063/1.4993215
   * E. Caldeweyher, S. Ehlert, A. Hansen, H. Neugebauer, S. Spicher,
     C. Bannwarth and S. Grimme, J. Chem. Phys., 2019, 150, 154122.
     DOI: 10.1063/1.5090222
   * E. Caldeweyher, J.-M. Mewes, S. Ehlert and S. Grimme, Phys. Chem. Chem. Phys.
     2020, 22, 8499-8512. DOI: 10.1039/D0CP00502A
   
   for sTDA-xTB:
   * S. Grimme and C. Bannwarth, J. Chem. Phys., 2016, 145, 054103.
     DOI: 10.1063/1.4959605
   
   in the mass-spec context:
   * V. Asgeirsson, C. Bauer and S. Grimme, Chem. Sci., 2017, 8, 4879.
     DOI: 10.1039/c7sc00601b
   * J. Koopman and S. Grimme, ACS Omega 2019, 4, 12, 15120-15133.
     DOI: 10.1021/acsomega.9b02011
   
   for metadynamics refer to:
   * S. Grimme, J. Chem. Theory Comput., 2019, 155, 2847-2862
     DOI: 10.1021/acs.jctc.9b00143
   
   for SPH calculations refer to:
   * S. Spicher and S. Grimme, J. Chem. Theory Comput., 2021, 17, 1701-1714
     DOI: 10.1021/acs.jctc.0c01306
   
   with help from (in alphabetical order)
   P. Atkinson, C. Bannwarth, F. Bohle, G. Brandenburg, E. Caldeweyher
   M. Checinski, S. Dohm, S. Ehlert, S. Ehrlich, I. Gerasimov, C. Hölzer
   A. Katbashev, J. Koopman, C. Lavigne, S. Lehtola, F. März, M. Müller,
   F. Musil, H. Neugebauer, J. Pisarek, C. Plett, P. Pracht, F. Pultar,
   J. Seibert, P. Shushkov, S. Spicher, M. Stahn, M. Steiner, T. Strunk,
   J. Stückrath, T. Rose, and J. Unsleber
   
 * started run on 2022/07/30 at 08:17:18.575     

           -------------------------------------------------
          |                Calculation Setup                |
           -------------------------------------------------

          program call               : xtb xtbopt.xyz --gfn 1 --vipea
          hostname                   : cx3-15-15.cx3.hpc.ic.ac.uk
          coordinate file            : xtbopt.xyz
          omp threads                :                     1

   ID    Z sym.   atoms
    1   29 Cu     1, 75, 157
    2    6 C      2-6, 8-20, 22-27, 29-42, 76-80, 82-94, 96-101, 103-116,
                  149-156, 158-162, 164-176, 178-183, 185-198
    3    7 N      7, 21, 28, 43, 81, 95, 102, 117, 163, 177, 184, 199
    4    1 H      44-74, 118-148, 200-229

           -------------------------------------------------
          |                 I P E A - x T B                 |
           -------------------------------------------------

        Reference                      10.1039/c7sc00601b
      * Hamiltonian:
        H0-scaling (s, p, d)           2.150000    2.300000    2.000000
        zeta-weighting                 0.000000
      * Dispersion:
        s8                             2.400000
        a1                             0.630000
        a2                             5.000000
        s9                             0.000000
      * Repulsion:
        kExp                           1.500000
        rExp                           1.000000
      * Coulomb:
        alpha                          1.000000
        third order                    atomic
        anisotropic                    false
      * Halogen bond correction:
        rad-scale                      1.300000
        damping                        0.440000


          ...................................................
          :                      SETUP                      :
          :.................................................:
          :  # basis functions                 884          :
          :  # atomic orbitals                 881          :
          :  # shells                          595          :
          :  # electrons                       673          :
          :  # halogen bonds                     0          :
          :  max. iterations                   250          :
          :  Hamiltonian                  GFN1-xTB          :
          :  restarted?                      false          :
          :  GBSA solvation                  false          :
          :  PC potential                    false          :
          :  electronic temp.          300.0000000     K    :
          :  accuracy                    1.0000000          :
          :  -> integral cutoff          0.2500000E+02      :
          :  -> integral neglect         0.1000000E-07      :
          :  -> SCF convergence          0.1000000E-05 Eh   :
          :  -> wf. convergence          0.2000000E-04 e    :
          :  Broyden damping             0.4000000          :
          ...................................................

 iter      E             dE          RMSdq      gap      omega  full diag
   1   -411.7897606 -0.411790E+03  0.976E+00    0.02       0.0  T
   2   -412.3857325 -0.595972E+00  0.623E+00    0.04       1.0  T
   3   -387.8220094  0.245637E+02  0.613E+00    0.04       1.0  T
   4   -408.3149920 -0.204930E+02  0.265E+00    0.39       1.0  T
   5   -410.2953308 -0.198034E+01  0.162E+00    0.08       1.0  T
   6   -413.4156921 -0.312036E+01  0.974E-01    0.21       1.0  T
   7   -413.7902218 -0.374530E+00  0.600E-01    0.05       1.0  T
   8   -413.6831311  0.107091E+00  0.724E-01    0.21       1.0  T
   9   -413.8449390 -0.161808E+00  0.479E-01    0.02       1.0  T
  10   -413.7302954  0.114644E+00  0.494E-01    0.20       1.0  T
  11   -413.7731010 -0.428056E-01  0.379E-01    0.10       1.0  T
  12   -413.7373740  0.357271E-01  0.591E-01    0.03       1.0  T
  13   -413.8473581 -0.109984E+00  0.180E-01    0.02       1.0  T
  14   -413.8647688 -0.174106E-01  0.968E-02    0.00       1.0  T
  15   -413.8691058 -0.433700E-02  0.365E-02    0.00       1.0  T
  16   -413.8634962  0.560961E-02  0.118E-01    0.02       1.0  T
  17   -413.8673999 -0.390374E-02  0.751E-02    0.01       1.0  T
  18   -413.8689115 -0.151161E-02  0.365E-02    0.00       1.0  T
  19   -413.8693376 -0.426140E-03  0.161E-02    0.00       1.0  T
  20   -413.8694716 -0.133969E-03  0.419E-03    0.00       1.6  T
  21   -413.8694575  0.141296E-04  0.599E-03    0.00       1.1  T
  22   -413.8694724 -0.149053E-04  0.329E-03    0.00       2.0  T
  23   -413.8694770 -0.460639E-05  0.155E-03    0.00       4.3  T
  24   -413.8694773 -0.258659E-06  0.146E-03    0.00       4.5  T
  25   -413.8694780 -0.787530E-06  0.557E-04    0.00      11.9  T
  26   -413.8694782 -0.121182E-06  0.298E-04    0.00      22.2  T
  27   -413.8694782 -0.420958E-07  0.991E-05    0.00      66.7  T
  28   -413.8694782 -0.299997E-08  0.722E-05    0.00      91.5  T

   *** convergence criteria satisfied after 28 iterations ***

         #    Occupation            Energy/Eh            Energy/eV
      -------------------------------------------------------------
         1        2.0000           -1.0155764             -27.6352
       ...           ...                  ...                  ...
       331        2.0000           -0.3874212             -10.5423
       332        2.0000           -0.3848153             -10.4714
       333        2.0000           -0.3811133             -10.3706
       334        2.0000           -0.3776185             -10.2755
       335        2.0000           -0.3686812             -10.0323
       336        0.8770           -0.3131598              -8.5215
       337        0.8693           -0.3131437              -8.5211 (HOMO)
       338        0.8379           -0.3130777              -8.5193 (LUMO)
       339        0.4151           -0.3120500              -8.4913
       340        0.0006           -0.3056280              -8.3166
       341        0.0000           -0.3008875              -8.1876
       342        0.0000           -0.3008320              -8.1861
       ...           ...                  ...                  ...
       881                        564.1900362           15352.3923
      -------------------------------------------------------------
                  HL-Gap            0.0000660 Eh            0.0018 eV
             Fermi-level           -0.3134144 Eh           -8.5284 eV

 SCC (total)                   0 d,  0 h,  0 min,  9.596 sec
 SCC setup                      ...        0 min,  0.006 sec (  0.063%)
 Dispersion                     ...        0 min,  0.010 sec (  0.108%)
 classical contributions        ...        0 min,  0.004 sec (  0.039%)
 integral evaluation            ...        0 min,  0.678 sec (  7.064%)
 iterations                     ...        0 min,  7.288 sec ( 75.947%)
 molecular gradient             ...        0 min,  1.555 sec ( 16.202%)
 printout                       ...        0 min,  0.055 sec (  0.576%)

         :::::::::::::::::::::::::::::::::::::::::::::::::::::
         ::                     SUMMARY                     ::
         :::::::::::::::::::::::::::::::::::::::::::::::::::::
         :: total energy            -405.815918672949 Eh    ::
         :: gradient norm              0.076925083533 Eh/a0 ::
         :: HOMO-LUMO gap              0.001797133975 eV    ::
         ::.................................................::
         :: SCC energy              -413.869478204935 Eh    ::
         :: -> electrostatic           0.167596260715 Eh    ::
         :: repulsion energy           8.262104949382 Eh    ::
         :: dispersion energy         -0.208545417396 Eh    ::
         :: halogen bond corr.         0.000000000000 Eh    ::
         :: add. restraining           0.000000000000 Eh    ::
         :: total charge               0.000000000001 e     ::
         :::::::::::::::::::::::::::::::::::::::::::::::::::::

           ------------------------------------------------- 
          |        vertical delta SCC IP calculation        |
           ------------------------------------------------- 
   1   -413.5189308 -0.413519E+03  0.185E-01    0.00       0.0  T
   2   -413.4406215  0.783093E-01  0.444E-01    0.09       1.0  T
   3   -413.4617059 -0.210844E-01  0.345E-01    0.00       1.0  T
   4   -413.4957652 -0.340594E-01  0.260E-01    0.05       1.0  T
   5   -413.4578987  0.378666E-01  0.353E-01    0.05       1.0  T
   6   -413.5196993 -0.618007E-01  0.121E-01    0.02       1.0  T
   7   -413.5234263 -0.372697E-02  0.937E-02    0.02       1.0  T
   8   -413.5260244 -0.259811E-02  0.580E-02    0.01       1.0  T
   9   -413.5274809 -0.145646E-02  0.226E-02    0.00       1.0  T
  10   -413.5275016 -0.207119E-04  0.208E-02    0.00       1.0  T
  11   -413.5277143 -0.212769E-03  0.238E-03    0.01       2.8  T
  12   -413.5276908  0.235092E-04  0.725E-03    0.01       1.0  T
  13   -413.5277162 -0.253839E-04  0.132E-03    0.00       5.0  T
  14   -413.5277160  0.201570E-06  0.145E-03    0.00       4.6  T
  15   -413.5277170 -0.979308E-06  0.321E-04    0.00      20.6  T
  16   -413.5277170 -0.459675E-07  0.898E-05    0.00      73.5  T
  17   -413.5277170 -0.354095E-08  0.165E-05    0.00     400.3  T
     SCC iter.                  ...        0 min,  4.429 sec
     gradient                   ...        0 min,  1.555 sec
------------------------------------------------------------------------
empirical IP shift (eV):    4.8455
delta SCC IP (eV):    4.4543
------------------------------------------------------------------------
           ------------------------------------------------- 
          |        vertical delta SCC EA calculation        |
           ------------------------------------------------- 
   1   -414.1140058 -0.414114E+03  0.426E-01    0.00       0.0  T
   2   -413.9292663  0.184740E+00  0.720E-01    0.10       1.0  T
   3   -414.0969509 -0.167685E+00  0.441E-01    0.01       1.0  T
   4   -413.9440883  0.152863E+00  0.733E-01    0.17       1.0  T
   5   -414.0641236 -0.120035E+00  0.466E-01    0.03       1.0  T
   6   -414.0883414 -0.242178E-01  0.438E-01    0.02       1.0  T
   7   -414.0512434  0.370980E-01  0.500E-01    0.07       1.0  T
   8   -414.1136821 -0.624387E-01  0.275E-01    0.02       1.0  T
   9   -414.1210510 -0.736889E-02  0.261E-01    0.01       1.0  T
  10   -414.1171672  0.388378E-02  0.243E-01    0.01       1.0  T
  11   -414.1484839 -0.313168E-01  0.947E-02    0.01       1.0  T
  12   -414.1547862 -0.630229E-02  0.229E-02    0.00       1.0  T
  13   -414.1542307  0.555471E-03  0.370E-02    0.00       1.0  T
  14   -414.1548200 -0.589214E-03  0.169E-02    0.00       1.0  T
  15   -414.1549638 -0.143834E-03  0.597E-03    0.00       1.1  T
  16   -414.1549793 -0.155375E-04  0.205E-03    0.00       3.2  T
  17   -414.1549790  0.381912E-06  0.211E-03    0.00       3.1  T
  18   -414.1549809 -0.199476E-05  0.115E-03    0.00       5.8  T
  19   -414.1549815 -0.561789E-06  0.314E-04    0.00      21.0  T
  20   -414.1549815 -0.222320E-07  0.187E-04    0.00      35.3  T
  21   -414.1549815 -0.269836E-08  0.188E-04    0.00      35.2  T
     SCC iter.                  ...        0 min,  5.476 sec
     gradient                   ...        0 min,  1.558 sec
------------------------------------------------------------------------
empirical EA shift (eV):    4.8455
delta SCC EA (eV):    2.9234
------------------------------------------------------------------------
           -------------------------------------------------
          |                Property Printout                |
           -------------------------------------------------

    * Orbital Energies and Occupations

         #    Occupation            Energy/Eh            Energy/eV
      -------------------------------------------------------------
         1        2.0000           -0.9617609             -26.1708
       ...           ...                  ...                  ...
       325        2.0000           -0.3600971              -9.7987
       326        2.0000           -0.3599458              -9.7946
       327        2.0000           -0.3596705              -9.7871
       328        2.0000           -0.3587980              -9.7634
       329        2.0000           -0.3524991              -9.5920
       330        2.0000           -0.3347357              -9.1086
       331        2.0000           -0.3346683              -9.1068
       332        2.0000           -0.3296561              -8.9704
       333        2.0000           -0.3271215              -8.9014
       334        2.0000           -0.3239721              -8.8157
       335        2.0000           -0.3135973              -8.5334
       336        1.0768           -0.2573931              -7.0040
       337        1.0388           -0.2573206              -7.0020 (HOMO)
       338        0.9956           -0.2572384              -6.9998 (LUMO)
       339        0.8814           -0.2570204              -6.9939
       340        0.0068           -0.2518548              -6.8533
       341        0.0003           -0.2488520              -6.7716
       342        0.0003           -0.2487897              -6.7699
       343        0.0000           -0.2452625              -6.6739
       344        0.0000           -0.2440150              -6.6400
       345                         -0.2082320              -5.6663
       346                         -0.2032191              -5.5299
       347                         -0.2005050              -5.4560
       348                         -0.1929122              -5.2494
       ...                                ...                  ...
       881                        564.2401476           15353.7559
      -------------------------------------------------------------
                  HL-Gap            0.0000821 Eh            0.0022 eV
             Fermi-level           -0.2572468 Eh           -7.0000 eV

  Mulliken/CM5 charges         n(s)   n(p)   n(d)
     1Cu    0.25970  0.61679   0.532  0.884  9.324
     2C    -0.02800 -0.06919   1.084  2.944  0.000
     3C     0.05773  0.11929   1.119  2.824  0.000
     4C    -0.04078 -0.08689   1.089  2.952  0.000
     5C    -0.03592 -0.08178   1.081  2.955  0.000
     6C     0.05959  0.12402   1.104  2.837  0.000
     7N    -0.21330 -0.46444   1.320  3.894  0.000
     8C     0.01547  0.01986   1.075  2.910  0.000
     9C     0.00316 -0.00176   1.058  2.939  0.000
    10C     0.00187 -0.01294   1.088  2.910  0.000
    11C    -0.05651 -0.20047   1.067  2.990  0.000
    12C    -0.03265 -0.08441   1.062  2.971  0.000
    13C    -0.00503 -0.02270   1.097  2.908  0.000
    14C    -0.06229 -0.20698   1.076  2.987  0.000
    15C    -0.03261 -0.08439   1.062  2.970  0.000
    16C     0.00186 -0.01295   1.088  2.910  0.000
    17C    -0.05648 -0.20044   1.067  2.990  0.000
    18C     0.05925  0.12294   1.102  2.839  0.000
    19C    -0.03566 -0.08154   1.079  2.957  0.000
    20C    -0.03711 -0.08236   1.088  2.949  0.000
    21N    -0.20983 -0.46067   1.322  3.888  0.000
    22C     0.06304  0.12915   1.124  2.813  0.000
    23C     0.01388  0.02078   1.083  2.903  0.000
    24C     0.06297  0.12910   1.124  2.813  0.000
    25C    -0.03719 -0.08243   1.088  2.949  0.000
    26C    -0.03572 -0.08159   1.079  2.957  0.000
    27C     0.05923  0.12292   1.102  2.839  0.000
    28N    -0.21005 -0.46054   1.322  3.888  0.000
    29C     0.01543  0.01982   1.075  2.910  0.000
    30C     0.00318 -0.00175   1.058  2.939  0.000
    31C     0.00192 -0.01290   1.088  2.910  0.000
    32C    -0.05649 -0.20045   1.067  2.990  0.000
    33C    -0.03268 -0.08442   1.062  2.971  0.000
    34C    -0.00505 -0.02272   1.097  2.908  0.000
    35C    -0.06231 -0.20701   1.076  2.987  0.000
    36C    -0.03258 -0.08438   1.062  2.970  0.000
    37C     0.00180 -0.01300   1.089  2.910  0.000
    38C    -0.05651 -0.20047   1.067  2.990  0.000
    39C     0.05957  0.12397   1.104  2.837  0.000
    40C    -0.03594 -0.08180   1.081  2.955  0.000
    41C    -0.04078 -0.08690   1.089  2.952  0.000
    42C     0.05770  0.11924   1.119  2.824  0.000
    43N    -0.21314 -0.46461   1.320  3.893  0.000
    44H     0.01978  0.07865   0.980  0.000  0.000
    45H     0.02469  0.08119   0.975  0.000  0.000
    46H     0.01688  0.07530   0.983  0.000  0.000
    47H     0.01341  0.06713   0.987  0.000  0.000
    48H     0.01539  0.06925   0.985  0.000  0.000
    49H     0.01379  0.06647   0.986  0.000  0.000
    50H     0.02884  0.08634   0.971  0.000  0.000
    51H     0.01819  0.07062   0.982  0.000  0.000
    52H     0.02382  0.07570   0.976  0.000  0.000
    53H     0.01857  0.07093   0.981  0.000  0.000
    54H     0.02877  0.08627   0.971  0.000  0.000
    55H     0.01543  0.06929   0.985  0.000  0.000
    56H     0.01380  0.06647   0.986  0.000  0.000
    57H     0.01338  0.06710   0.987  0.000  0.000
    58H     0.01861  0.07716   0.981  0.000  0.000
    59H     0.02331  0.08133   0.977  0.000  0.000
    60H     0.02325  0.08122   0.977  0.000  0.000
    61H     0.01844  0.07695   0.982  0.000  0.000
    62H     0.01339  0.06707   0.987  0.000  0.000
    63H     0.01382  0.06650   0.986  0.000  0.000
    64H     0.01543  0.06931   0.985  0.000  0.000
    65H     0.02903  0.08655   0.971  0.000  0.000
    66H     0.02161  0.07376   0.978  0.000  0.000
    67H     0.01775  0.07028   0.982  0.000  0.000
    68H     0.02103  0.07303   0.979  0.000  0.000
    69H     0.02855  0.08603   0.971  0.000  0.000
    70H     0.01354  0.06730   0.986  0.000  0.000
    71H     0.01529  0.06913   0.985  0.000  0.000
    72H     0.01373  0.06641   0.986  0.000  0.000
    73H     0.01698  0.07544   0.983  0.000  0.000
    74H     0.02469  0.08120   0.975  0.000  0.000
    75Cu    0.25914  0.61630   0.532  0.884  9.325
    76C    -0.02796 -0.06915   1.084  2.944  0.000
    77C     0.05774  0.11929   1.119  2.824  0.000
    78C    -0.04076 -0.08688   1.089  2.952  0.000
    79C    -0.03592 -0.08177   1.081  2.954  0.000
    80C     0.05960  0.12403   1.104  2.837  0.000
    81N    -0.21333 -0.46452   1.320  3.894  0.000
    82C     0.01548  0.01988   1.075  2.910  0.000
    83C     0.00316 -0.00177   1.058  2.939  0.000
    84C     0.00186 -0.01297   1.088  2.910  0.000
    85C    -0.05649 -0.20046   1.066  2.990  0.000
    86C    -0.03265 -0.08442   1.062  2.971  0.000
    87C    -0.00502 -0.02270   1.097  2.908  0.000
    88C    -0.06229 -0.20698   1.076  2.987  0.000
    89C    -0.03261 -0.08439   1.062  2.970  0.000
    90C     0.00187 -0.01293   1.089  2.910  0.000
    91C    -0.05650 -0.20045   1.067  2.990  0.000
    92C     0.05927  0.12296   1.102  2.839  0.000
    93C    -0.03564 -0.08152   1.079  2.957  0.000
    94C    -0.03710 -0.08234   1.088  2.949  0.000
    95N    -0.20990 -0.46073   1.322  3.888  0.000
    96C     0.06306  0.12916   1.124  2.813  0.000
    97C     0.01392  0.02082   1.083  2.903  0.000
    98C     0.06300  0.12913   1.124  2.813  0.000
    99C    -0.03718 -0.08242   1.088  2.949  0.000
   100C    -0.03569 -0.08156   1.079  2.957  0.000
   101C     0.05926  0.12296   1.102  2.839  0.000
   102N    -0.21007 -0.46063   1.322  3.888  0.000
   103C     0.01545  0.01984   1.075  2.910  0.000
   104C     0.00317 -0.00175   1.058  2.939  0.000
   105C     0.00191 -0.01289   1.088  2.910  0.000
   106C    -0.05651 -0.20045   1.067  2.990  0.000
   107C    -0.03268 -0.08442   1.062  2.971  0.000
   108C    -0.00504 -0.02272   1.097  2.908  0.000
   109C    -0.06231 -0.20701   1.076  2.987  0.000
   110C    -0.03257 -0.08438   1.062  2.970  0.000
   111C     0.00180 -0.01302   1.088  2.910  0.000
   112C    -0.05650 -0.20047   1.067  2.990  0.000
   113C     0.05958  0.12398   1.104  2.837  0.000
   114C    -0.03594 -0.08180   1.081  2.955  0.000
   115C    -0.04077 -0.08689   1.089  2.952  0.000
   116C     0.05771  0.11925   1.119  2.823  0.000
   117N    -0.21321 -0.46467   1.320  3.893  0.000
   118H     0.01981  0.07868   0.980  0.000  0.000
   119H     0.02471  0.08122   0.975  0.000  0.000
   120H     0.01689  0.07531   0.983  0.000  0.000
   121H     0.01354  0.06726   0.986  0.000  0.000
   122H     0.01521  0.06907   0.985  0.000  0.000
   123H     0.01382  0.06650   0.986  0.000  0.000
   124H     0.02880  0.08630   0.971  0.000  0.000
   125H     0.01830  0.07071   0.982  0.000  0.000
   126H     0.02383  0.07572   0.976  0.000  0.000
   127H     0.01846  0.07084   0.982  0.000  0.000
   128H     0.02883  0.08633   0.971  0.000  0.000
   129H     0.01559  0.06946   0.984  0.000  0.000
   130H     0.01379  0.06646   0.986  0.000  0.000
   131H     0.01328  0.06700   0.987  0.000  0.000
   132H     0.01862  0.07717   0.981  0.000  0.000
   133H     0.02334  0.08136   0.977  0.000  0.000
   134H     0.02325  0.08122   0.977  0.000  0.000
   135H     0.01846  0.07698   0.982  0.000  0.000
   136H     0.01335  0.06706   0.987  0.000  0.000
   137H     0.01378  0.06646   0.986  0.000  0.000
   138H     0.01550  0.06939   0.984  0.000  0.000
   139H     0.02904  0.08655   0.971  0.000  0.000
   140H     0.02158  0.07374   0.978  0.000  0.000
   141H     0.01777  0.07030   0.982  0.000  0.000
   142H     0.02106  0.07306   0.979  0.000  0.000
   143H     0.02856  0.08604   0.971  0.000  0.000
   144H     0.01357  0.06729   0.986  0.000  0.000
   145H     0.01525  0.06909   0.985  0.000  0.000
   146H     0.01380  0.06647   0.986  0.000  0.000
   147H     0.01699  0.07544   0.983  0.000  0.000
   148H     0.02472  0.08123   0.975  0.000  0.000
   149C    -0.02562 -0.02643   1.063  2.963  0.000
   150C    -0.02640 -0.02800   1.090  2.937  0.000
   151C    -0.02919 -0.03000   1.060  2.969  0.000
   152C    -0.02352 -0.02511   1.094  2.930  0.000
   153C    -0.02919 -0.03000   1.060  2.969  0.000
   154C    -0.02347 -0.02506   1.094  2.930  0.000
   155C    -0.02557 -0.02638   1.063  2.962  0.000
   156C    -0.02637 -0.02797   1.090  2.937  0.000
   157Cu    0.28821  0.64228   0.538  0.894  9.279
   158C     0.00810  0.01503   1.078  2.914  0.000
   159C     0.06233  0.12858   1.124  2.814  0.000
   160C    -0.03942 -0.08465   1.087  2.953  0.000
   161C    -0.03607 -0.08194   1.080  2.956  0.000
   162C     0.05687  0.12062   1.099  2.845  0.000
   163N    -0.20905 -0.45919   1.320  3.889  0.000
   164C     0.01670  0.02102   1.075  2.908  0.000
   165C     0.00368 -0.00127   1.058  2.939  0.000
   166C     0.00216 -0.01268   1.088  2.910  0.000
   167C    -0.05623 -0.20020   1.066  2.990  0.000
   168C    -0.03248 -0.08427   1.062  2.970  0.000
   169C    -0.00503 -0.02271   1.097  2.908  0.000
   170C    -0.06219 -0.20688   1.076  2.986  0.000
   171C    -0.03255 -0.08431   1.062  2.970  0.000
   172C     0.00216 -0.01265   1.088  2.909  0.000
   173C    -0.05629 -0.20025   1.066  2.990  0.000
   174C     0.05687  0.12062   1.099  2.844  0.000
   175C    -0.03608 -0.08195   1.080  2.956  0.000
   176C    -0.03946 -0.08469   1.087  2.953  0.000
   177N    -0.20900 -0.45931   1.320  3.889  0.000
   178C     0.06228  0.12850   1.124  2.814  0.000
   179C     0.00809  0.01502   1.078  2.914  0.000
   180C     0.06234  0.12860   1.124  2.814  0.000
   181C    -0.03944 -0.08467   1.087  2.953  0.000
   182C    -0.03608 -0.08195   1.080  2.956  0.000
   183C     0.05686  0.12062   1.099  2.845  0.000
   184N    -0.20906 -0.45917   1.321  3.889  0.000
   185C     0.01672  0.02105   1.075  2.908  0.000
   186C     0.00369 -0.00126   1.058  2.939  0.000
   187C     0.00218 -0.01263   1.088  2.909  0.000
   188C    -0.05627 -0.20023   1.066  2.990  0.000
   189C    -0.03253 -0.08430   1.062  2.970  0.000
   190C    -0.00502 -0.02270   1.097  2.908  0.000
   191C    -0.06218 -0.20687   1.076  2.986  0.000
   192C    -0.03248 -0.08427   1.062  2.970  0.000
   193C     0.00215 -0.01268   1.088  2.910  0.000
   194C    -0.05624 -0.20021   1.066  2.990  0.000
   195C     0.05686  0.12059   1.099  2.845  0.000
   196C    -0.03605 -0.08193   1.080  2.956  0.000
   197C    -0.03943 -0.08467   1.087  2.953  0.000
   198C     0.06233  0.12856   1.124  2.814  0.000
   199N    -0.20897 -0.45931   1.320  3.888  0.000
   200H     0.02104  0.07902   0.979  0.000  0.000
   201H     0.01704  0.07556   0.983  0.000  0.000
   202H     0.01449  0.06830   0.986  0.000  0.000
   203H     0.01356  0.06624   0.986  0.000  0.000
   204H     0.01432  0.06809   0.986  0.000  0.000
   205H     0.02836  0.08585   0.972  0.000  0.000
   206H     0.02238  0.07427   0.978  0.000  0.000
   207H     0.01905  0.07138   0.981  0.000  0.000
   208H     0.01799  0.07045   0.982  0.000  0.000
   209H     0.02851  0.08601   0.971  0.000  0.000
   210H     0.01448  0.06831   0.986  0.000  0.000
   211H     0.01432  0.06811   0.986  0.000  0.000
   212H     0.01349  0.06617   0.987  0.000  0.000
   213H     0.01716  0.07570   0.983  0.000  0.000
   214H     0.02103  0.07900   0.979  0.000  0.000
   215H     0.02105  0.07904   0.979  0.000  0.000
   216H     0.01716  0.07569   0.983  0.000  0.000
   217H     0.01461  0.06842   0.985  0.000  0.000
   218H     0.01349  0.06617   0.987  0.000  0.000
   219H     0.01423  0.06803   0.986  0.000  0.000
   220H     0.02851  0.08601   0.971  0.000  0.000
   221H     0.01808  0.07053   0.982  0.000  0.000
   222H     0.02241  0.07430   0.978  0.000  0.000
   223H     0.01894  0.07128   0.981  0.000  0.000
   224H     0.02837  0.08586   0.972  0.000  0.000
   225H     0.01357  0.06625   0.986  0.000  0.000
   226H     0.01423  0.06800   0.986  0.000  0.000
   227H     0.01456  0.06836   0.985  0.000  0.000
   228H     0.01704  0.07557   0.983  0.000  0.000
   229H     0.02106  0.07904   0.979  0.000  0.000

Wiberg/Mayer (AO) data.
largest (>0.10) Wiberg bond orders for each atom

 ---------------------------------------------------------------------------
     #   Z sym  total        # sym  WBO       # sym  WBO       # sym  WBO
 ---------------------------------------------------------------------------
     1  29 Cu   2.596 --    43 N    0.592     7 N    0.590    21 N    0.589
                            28 N    0.588
     2   6 C    3.791 --    42 C    1.385     3 C    1.385    44 H    0.999
     3   6 C    3.945 --     2 C    1.385     7 N    1.277     4 C    1.196
     4   6 C    3.838 --     5 C    1.644     3 C    1.196    45 H    0.995
     5   6 C    3.824 --     4 C    1.644     6 C    1.205    46 H    1.002
     6   6 C    3.902 --     8 C    1.377     7 N    1.266     5 C    1.205
     7   7 N    2.922 --     3 C    1.277     6 C    1.266     1 Cu   0.590
     8   6 C    3.788 --     6 C    1.377    18 C    1.373     9 C    1.028
     9   6 C    3.817 --    16 C    1.422    10 C    1.421     8 C    1.028
    10   6 C    3.891 --    12 C    1.436     9 C    1.421    11 C    1.019
    11   6 C    3.896 --    10 C    1.019    49 H    0.997    48 H    0.994
                            47 H    0.994
    12   6 C    3.835 --    10 C    1.436    13 C    1.431    50 H    0.994
    13   6 C    3.927 --    15 C    1.433    12 C    1.431    14 C    1.009
    14   6 C    3.921 --    13 C    1.009    51 H    0.999    53 H    0.998
                            52 H    0.988
    15   6 C    3.835 --    16 C    1.435    13 C    1.433    54 H    0.994
    16   6 C    3.891 --    15 C    1.435     9 C    1.422    17 C    1.019
    17   6 C    3.895 --    16 C    1.019    56 H    0.997    55 H    0.994
                            57 H    0.994
    18   6 C    3.890 --     8 C    1.373    21 N    1.258    19 C    1.215
    19   6 C    3.814 --    20 C    1.626    18 C    1.215    58 H    1.001
    20   6 C    3.828 --    19 C    1.626    22 C    1.222    59 H    1.000
    21   7 N    2.937 --    22 C    1.300    18 C    1.258     1 Cu   0.589
    22   6 C    3.922 --    21 N    1.300    23 C    1.296    20 C    1.222
    23   6 C    3.812 --    24 C    1.297    22 C    1.296   150 C    1.212
    24   6 C    3.922 --    28 N    1.300    23 C    1.297    25 C    1.221
    25   6 C    3.828 --    26 C    1.626    24 C    1.221    60 H    1.000
    26   6 C    3.814 --    25 C    1.626    27 C    1.215    61 H    1.001
    27   6 C    3.891 --    29 C    1.373    28 N    1.258    26 C    1.215
    28   7 N    2.936 --    24 C    1.300    27 C    1.258     1 Cu   0.588
    29   6 C    3.788 --    39 C    1.377    27 C    1.373    30 C    1.028
    30   6 C    3.818 --    37 C    1.425    31 C    1.417    29 C    1.028
    31   6 C    3.891 --    33 C    1.440    30 C    1.417    32 C    1.019
    32   6 C    3.896 --    31 C    1.019    63 H    0.997    64 H    0.994
                            62 H    0.994
    33   6 C    3.834 --    31 C    1.440    34 C    1.428    65 H    0.995
    34   6 C    3.927 --    36 C    1.437    33 C    1.428    35 C    1.009
    35   6 C    3.921 --    34 C    1.009    67 H    1.001    66 H    0.993
                            68 H    0.991
    36   6 C    3.835 --    34 C    1.437    37 C    1.431    69 H    0.994
    37   6 C    3.891 --    36 C    1.431    30 C    1.425    38 C    1.019
    38   6 C    3.896 --    37 C    1.019    72 H    0.997    71 H    0.994
                            70 H    0.994
    39   6 C    3.902 --    29 C    1.377    43 N    1.265    40 C    1.206
    40   6 C    3.823 --    41 C    1.644    39 C    1.206    73 H    1.002
    41   6 C    3.839 --    40 C    1.644    42 C    1.196    74 H    0.995
    42   6 C    3.945 --     2 C    1.385    43 N    1.277    41 C    1.196
    43   7 N    2.923 --    42 C    1.277    39 C    1.265     1 Cu   0.592
    44   1 H    1.034 --     2 C    0.999
    45   1 H    1.024 --     4 C    0.995
    46   1 H    1.045 --     5 C    1.002
    47   1 H    1.055 --    11 C    0.994
    48   1 H    1.055 --    11 C    0.994
    49   1 H    1.044 --    11 C    0.997
    50   1 H    1.017 --    12 C    0.994
    51   1 H    1.035 --    14 C    0.999
    52   1 H    1.033 --    14 C    0.988
    53   1 H    1.035 --    14 C    0.998
    54   1 H    1.018 --    15 C    0.994
    55   1 H    1.055 --    17 C    0.994
    56   1 H    1.044 --    17 C    0.997
    57   1 H    1.056 --    17 C    0.994
    58   1 H    1.045 --    19 C    1.001
    59   1 H    1.032 --    20 C    1.000
    60   1 H    1.033 --    25 C    1.000
    61   1 H    1.044 --    26 C    1.001
    62   1 H    1.055 --    32 C    0.994
    63   1 H    1.045 --    32 C    0.997
    64   1 H    1.055 --    32 C    0.994
    65   1 H    1.017 --    33 C    0.995
    66   1 H    1.035 --    35 C    0.993
    67   1 H    1.035 --    35 C    1.001
    68   1 H    1.035 --    35 C    0.991
    69   1 H    1.018 --    36 C    0.994
    70   1 H    1.055 --    38 C    0.994
    71   1 H    1.056 --    38 C    0.994
    72   1 H    1.044 --    38 C    0.997
    73   1 H    1.045 --    40 C    1.002
    74   1 H    1.023 --    41 C    0.995
    75  29 Cu   2.595 --   117 N    0.591    81 N    0.590    95 N    0.589
                           102 N    0.588
    76   6 C    3.792 --   116 C    1.385    77 C    1.385   118 H    0.999
    77   6 C    3.945 --    76 C    1.385    81 N    1.277    78 C    1.196
    78   6 C    3.839 --    79 C    1.644    77 C    1.196   119 H    0.995
    79   6 C    3.824 --    78 C    1.644    80 C    1.205   120 H    1.002
    80   6 C    3.902 --    82 C    1.377    81 N    1.266    79 C    1.205
    81   7 N    2.922 --    77 C    1.277    80 C    1.266    75 Cu   0.590
    82   6 C    3.788 --    80 C    1.377    92 C    1.373    83 C    1.028
    83   6 C    3.817 --    90 C    1.421    84 C    1.421    82 C    1.028
    84   6 C    3.891 --    86 C    1.436    83 C    1.421    85 C    1.019
    85   6 C    3.895 --    84 C    1.019   123 H    0.997   122 H    0.994
                           121 H    0.994
    86   6 C    3.834 --    84 C    1.436    87 C    1.432   124 H    0.994
    87   6 C    3.927 --    89 C    1.433    86 C    1.432    88 C    1.009
    88   6 C    3.921 --    87 C    1.009   125 H    0.999   127 H    0.998
                           126 H    0.988
    89   6 C    3.835 --    90 C    1.435    87 C    1.433   128 H    0.994
    90   6 C    3.891 --    89 C    1.435    83 C    1.421    91 C    1.019
    91   6 C    3.896 --    90 C    1.019   130 H    0.997   131 H    0.994
                           129 H    0.994
    92   6 C    3.891 --    82 C    1.373    95 N    1.258    93 C    1.214
    93   6 C    3.814 --    94 C    1.627    92 C    1.214   132 H    1.001
    94   6 C    3.828 --    93 C    1.627    96 C    1.221   133 H    1.000
    95   7 N    2.937 --    96 C    1.300    92 C    1.258    75 Cu   0.589
    96   6 C    3.922 --    95 N    1.300    97 C    1.297    94 C    1.221
    97   6 C    3.812 --    98 C    1.297    96 C    1.297   156 C    1.212
    98   6 C    3.922 --   102 N    1.300    97 C    1.297    99 C    1.221
    99   6 C    3.828 --   100 C    1.626    98 C    1.221   134 H    1.000
   100   6 C    3.814 --    99 C    1.626   101 C    1.214   135 H    1.001
   101   6 C    3.891 --   103 C    1.373   102 N    1.258   100 C    1.214
   102   7 N    2.936 --    98 C    1.300   101 C    1.258    75 Cu   0.588
   103   6 C    3.788 --   113 C    1.377   101 C    1.373   104 C    1.028
   104   6 C    3.818 --   111 C    1.425   105 C    1.417   103 C    1.028
   105   6 C    3.891 --   107 C    1.440   104 C    1.417   106 C    1.019
   106   6 C    3.896 --   105 C    1.019   137 H    0.997   138 H    0.994
                           136 H    0.994
   107   6 C    3.834 --   105 C    1.440   108 C    1.428   139 H    0.995
   108   6 C    3.927 --   110 C    1.437   107 C    1.428   109 C    1.009
   109   6 C    3.921 --   108 C    1.009   141 H    1.001   140 H    0.993
                           142 H    0.991
   110   6 C    3.835 --   108 C    1.437   111 C    1.431   143 H    0.994
   111   6 C    3.891 --   110 C    1.431   104 C    1.425   112 C    1.019
   112   6 C    3.896 --   111 C    1.019   146 H    0.997   145 H    0.994
                           144 H    0.994
   113   6 C    3.902 --   103 C    1.377   117 N    1.265   114 C    1.206
   114   6 C    3.823 --   115 C    1.644   113 C    1.206   147 H    1.002
   115   6 C    3.839 --   114 C    1.644   116 C    1.196   148 H    0.995
   116   6 C    3.945 --    76 C    1.385   117 N    1.277   115 C    1.196
   117   7 N    2.923 --   116 C    1.277   113 C    1.265    75 Cu   0.591
   118   1 H    1.034 --    76 C    0.999
   119   1 H    1.023 --    78 C    0.995
   120   1 H    1.045 --    79 C    1.002
   121   1 H    1.055 --    85 C    0.994
   122   1 H    1.056 --    85 C    0.994
   123   1 H    1.044 --    85 C    0.997
   124   1 H    1.017 --    86 C    0.994
   125   1 H    1.035 --    88 C    0.999
   126   1 H    1.033 --    88 C    0.988
   127   1 H    1.035 --    88 C    0.998
   128   1 H    1.017 --    89 C    0.994
   129   1 H    1.055 --    91 C    0.994
   130   1 H    1.044 --    91 C    0.997
   131   1 H    1.055 --    91 C    0.994
   132   1 H    1.045 --    93 C    1.001
   133   1 H    1.032 --    94 C    1.000
   134   1 H    1.033 --    99 C    1.000
   135   1 H    1.044 --   100 C    1.001
   136   1 H    1.055 --   106 C    0.994
   137   1 H    1.045 --   106 C    0.997
   138   1 H    1.055 --   106 C    0.994
   139   1 H    1.016 --   107 C    0.995
   140   1 H    1.035 --   109 C    0.993
   141   1 H    1.034 --   109 C    1.001
   142   1 H    1.035 --   109 C    0.991
   143   1 H    1.018 --   110 C    0.994
   144   1 H    1.055 --   112 C    0.994
   145   1 H    1.056 --   112 C    0.994
   146   1 H    1.044 --   112 C    0.997
   147   1 H    1.045 --   114 C    1.002
   148   1 H    1.023 --   115 C    0.995
   149   6 C    3.803 --   150 C    2.507   151 C    1.319
   150   6 C    3.792 --   149 C    2.507    23 C    1.212   152 C    0.176
   151   6 C    3.799 --   152 C    2.504   149 C    1.319
   152   6 C    3.794 --   151 C    2.504   158 C    1.215   150 C    0.176
   153   6 C    3.799 --   154 C    2.505   155 C    1.318
   154   6 C    3.794 --   153 C    2.505   179 C    1.214   156 C    0.176
   155   6 C    3.803 --   156 C    2.507   153 C    1.318
   156   6 C    3.792 --   155 C    2.507    97 C    1.212   154 C    0.176
   157  29 Cu   2.656 --   199 N    0.604   177 N    0.604   163 N    0.604
                           184 N    0.604
   158   6 C    3.793 --   198 C    1.291   159 C    1.291   152 C    1.215
   159   6 C    3.921 --   163 N    1.299   158 C    1.291   160 C    1.224
   160   6 C    3.822 --   161 C    1.621   159 C    1.224   200 H    1.000
   161   6 C    3.815 --   160 C    1.621   162 C    1.218   201 H    1.002
   162   6 C    3.885 --   164 C    1.375   163 N    1.249   161 C    1.218
   163   7 N    2.933 --   159 C    1.299   162 C    1.249   157 Cu   0.604
   164   6 C    3.783 --   162 C    1.375   174 C    1.375   165 C    1.029
   165   6 C    3.817 --   166 C    1.423   172 C    1.420   164 C    1.029
   166   6 C    3.891 --   168 C    1.434   165 C    1.423   167 C    1.019
   167   6 C    3.895 --   166 C    1.019   203 H    0.997   204 H    0.994
                           202 H    0.994
   168   6 C    3.834 --   169 C    1.434   166 C    1.434   205 H    0.994
   169   6 C    3.927 --   168 C    1.434   171 C    1.430   170 C    1.009
   170   6 C    3.921 --   169 C    1.009   208 H    1.000   207 H    0.997
                           206 H    0.989
   171   6 C    3.834 --   172 C    1.437   169 C    1.430   209 H    0.995
   172   6 C    3.891 --   171 C    1.437   165 C    1.420   173 C    1.019
   173   6 C    3.895 --   172 C    1.019   212 H    0.997   210 H    0.994
                           211 H    0.994
   174   6 C    3.886 --   164 C    1.375   177 N    1.249   175 C    1.218
   175   6 C    3.815 --   176 C    1.622   174 C    1.218   213 H    1.002
   176   6 C    3.823 --   175 C    1.622   178 C    1.224   214 H    1.000
   177   7 N    2.934 --   178 C    1.299   174 C    1.249   157 Cu   0.604
   178   6 C    3.921 --   177 N    1.299   179 C    1.292   176 C    1.224
   179   6 C    3.793 --   178 C    1.292   180 C    1.291   154 C    1.214
   180   6 C    3.921 --   184 N    1.299   179 C    1.291   181 C    1.224
   181   6 C    3.823 --   182 C    1.621   180 C    1.224   215 H    1.000
   182   6 C    3.815 --   181 C    1.621   183 C    1.218   216 H    1.002
   183   6 C    3.886 --   185 C    1.375   184 N    1.249   182 C    1.218
   184   7 N    2.933 --   180 C    1.299   183 C    1.249   157 Cu   0.604
   185   6 C    3.783 --   195 C    1.375   183 C    1.375   186 C    1.029
   186   6 C    3.817 --   193 C    1.423   187 C    1.420   185 C    1.029
   187   6 C    3.891 --   189 C    1.437   186 C    1.420   188 C    1.019
   188   6 C    3.895 --   187 C    1.019   218 H    0.997   219 H    0.994
                           217 H    0.994
   189   6 C    3.834 --   187 C    1.437   190 C    1.431   220 H    0.995
   190   6 C    3.927 --   192 C    1.434   189 C    1.431   191 C    1.009
   191   6 C    3.921 --   190 C    1.009   221 H    1.000   223 H    0.998
                           222 H    0.988
   192   6 C    3.834 --   190 C    1.434   193 C    1.434   224 H    0.994
   193   6 C    3.891 --   192 C    1.434   186 C    1.423   194 C    1.019
   194   6 C    3.895 --   193 C    1.019   225 H    0.997   226 H    0.994
                           227 H    0.994
   195   6 C    3.886 --   185 C    1.375   199 N    1.248   196 C    1.218
   196   6 C    3.815 --   197 C    1.621   195 C    1.218   228 H    1.002
   197   6 C    3.823 --   196 C    1.621   198 C    1.224   229 H    1.000
   198   6 C    3.921 --   199 N    1.299   158 C    1.291   197 C    1.224
   199   7 N    2.934 --   198 C    1.299   195 C    1.248   157 Cu   0.604
   200   1 H    1.033 --   160 C    1.000
   201   1 H    1.045 --   161 C    1.002
   202   1 H    1.055 --   167 C    0.994
   203   1 H    1.044 --   167 C    0.997
   204   1 H    1.055 --   167 C    0.994
   205   1 H    1.018 --   168 C    0.994
   206   1 H    1.035 --   170 C    0.989
   207   1 H    1.035 --   170 C    0.997
   208   1 H    1.035 --   170 C    1.000
   209   1 H    1.017 --   171 C    0.995
   210   1 H    1.055 --   173 C    0.994
   211   1 H    1.055 --   173 C    0.994
   212   1 H    1.045 --   173 C    0.997
   213   1 H    1.046 --   175 C    1.002
   214   1 H    1.033 --   176 C    1.000
   215   1 H    1.033 --   181 C    1.000
   216   1 H    1.046 --   182 C    1.002
   217   1 H    1.055 --   188 C    0.994
   218   1 H    1.045 --   188 C    0.997
   219   1 H    1.056 --   188 C    0.994
   220   1 H    1.017 --   189 C    0.995
   221   1 H    1.035 --   191 C    1.000
   222   1 H    1.035 --   191 C    0.988
   223   1 H    1.035 --   191 C    0.998
   224   1 H    1.018 --   192 C    0.994
   225   1 H    1.044 --   194 C    0.997
   226   1 H    1.056 --   194 C    0.994
   227   1 H    1.055 --   194 C    0.994
   228   1 H    1.045 --   196 C    1.002
   229   1 H    1.033 --   197 C    1.000
 ---------------------------------------------------------------------------

Topologies differ in total number of bonds
Writing topology from bond orders to xtbtopo.mol

 dipole moment from electron density (au)
     X       Y       Z   
 -87.7277   0.0515  -0.0069  total (Debye):  222.982


           -------------------------------------------------
          | TOTAL ENERGY             -406.101422002665 Eh   |
          | GRADIENT NORM               0.092167400834 Eh/α |
          | HOMO-LUMO GAP               0.002235367273 eV   |
           -------------------------------------------------
########################################################################
[WARNING] Runtime exception occurred
-1- restart_readRestart: Dimension missmatch in restart file.
########################################################################

------------------------------------------------------------------------
 * finished run on 2022/07/30 at 08:17:43.365     
------------------------------------------------------------------------
 total:
 * wall-time:     0 d,  0 h,  0 min, 24.790 sec
 *  cpu-time:     0 d,  0 h,  0 min, 24.678 sec
 * ratio c/w:     0.995 speedup
 SCF:
 * wall-time:     0 d,  0 h,  0 min, 24.119 sec
 *  cpu-time:     0 d,  0 h,  0 min, 24.016 sec
 * ratio c/w:     0.996 speedup

