229
 energy: -358.426719711108 gnorm: 1.728390050685 xtb: 6.5.1 (b24c23e)
Cu          32.36915800000000       -0.01955800000000       -0.01726800000000
C           28.99529000000000        0.11296000000000        0.02201500000000
C           29.66400600000000        1.16560000000000        0.50062700000000
C           29.02068900000000        2.34712900000000        1.06341100000000
C           29.96770300000000        3.19959200000000        1.40853600000000
C           31.26814700000000        2.60229700000000        1.07815100000000
N           31.08358000000000        1.30810400000000        0.50572500000000
C           32.46190600000000        3.19983000000000        1.26046700000000
C           32.50746100000000        4.56772400000000        1.84002800000000
C           32.42372700000000        5.70096100000000        0.99682800000000
C           32.28593200000000        5.55051100000000       -0.49620500000000
C           32.46666800000000        6.98623800000000        1.55836700000000
C           32.58626400000000        7.15889700000000        2.94223600000000
C           32.67216300000000        8.53883800000000        3.52570900000000
C           32.69501800000000        6.03728700000000        3.77238100000000
C           32.64821000000000        4.74118300000000        3.23687900000000
C           32.75957400000000        3.55496500000000        4.15937600000000
C           33.75498900000000        2.56038200000000        0.90713900000000
C           35.04712600000000        3.25108100000000        0.97933000000000
C           35.98232400000000        2.39209500000000        0.63130600000000
N           33.89238000000000        1.32508700000000        0.53173700000000
C           35.29457500000000        1.14032300000000        0.33543400000000
C           35.88957500000000       -0.01340800000000       -0.01308200000000
C           35.13232800000000       -1.25537000000000       -0.30071400000000
C           35.68861500000000       -2.45423400000000       -0.42358800000000
C           34.63963300000000       -3.38330000000000       -0.79019900000000
C           33.50825200000000       -2.69295000000000       -0.86668100000000
N           33.72855400000000       -1.31453000000000       -0.56057100000000
C           32.20656800000000       -3.27257200000000       -1.28674000000000
C           32.19609000000000       -4.63467700000000       -1.88505800000000
C           32.43475900000000       -4.80237100000000       -3.26924400000000
C           32.70248600000000       -3.61730400000000       -4.16069500000000
C           32.43146400000000       -6.09229400000000       -3.82130900000000
C           32.19271300000000       -7.21339500000000       -3.01913300000000
C           32.16714000000000       -8.57941800000000       -3.63994400000000
C           31.94359300000000       -7.04579000000000       -1.65147600000000
C           31.95429200000000       -5.76774100000000       -1.07217200000000
C           31.69321400000000       -5.62406400000000        0.40518300000000
C           31.04489400000000       -2.60983200000000       -1.14324000000000
C           29.72489500000000       -3.10540800000000       -1.52604200000000
C           28.86375500000000       -2.17829300000000       -1.15493300000000
C           29.62591400000000       -1.08980500000000       -0.54443700000000
N           30.89919300000000       -1.33083600000000       -0.53136800000000
H           27.91211500000000        0.13831700000000        0.04434300000000
H           27.95760200000000        2.51311000000000        1.18132300000000
H           29.78986000000000        4.17090300000000        1.85181200000000
H           31.33430900000000        5.03112000000000       -0.73436000000000
H           33.13596300000000        4.95855300000000       -0.89576400000000
H           32.28140500000000        6.53484400000000       -1.01062700000000
H           32.40745600000000        7.85822200000000        0.91750200000000
H           32.24830300000000        8.55754400000000        4.55246900000000
H           33.73498400000000        8.85675900000000        3.56640200000000
H           32.10026100000000        9.26341200000000        2.90755800000000
H           32.81438100000000        6.17681100000000        4.84049200000000
H           33.67456900000000        2.97559400000000        3.91518000000000
H           32.81843300000000        3.86530900000000        5.22394100000000
H           31.87027700000000        2.90085300000000        4.04142700000000
H           35.22277700000000        4.27969200000000        1.26584900000000
H           37.04250500000000        2.60386500000000        0.58867000000000
H           36.73422400000000       -2.70138900000000       -0.29976300000000
H           34.76697500000000       -4.43945500000000       -0.98943000000000
H           31.86738700000000       -2.88935700000000       -4.08282700000000
H           32.79831100000000       -3.91677700000000       -5.22585500000000
H           33.64804900000000       -3.12398100000000       -3.85249800000000
H           32.61322300000000       -6.22873800000000       -4.88121000000000
H           33.06808900000000       -8.72345600000000       -4.27433600000000
H           32.15802000000000       -9.37758000000000       -2.86660200000000
H           31.25854400000000       -8.68236000000000       -4.27060600000000
H           31.74473500000000       -7.91466800000000       -1.03522900000000
H           30.73871100000000       -5.08108200000000        0.56562400000000
H           32.52077900000000       -5.05844900000000        0.88239800000000
H           31.62046900000000       -6.61143200000000        0.90863300000000
H           29.47705500000000       -4.04319800000000       -2.00619300000000
H           27.79053400000000       -2.22911600000000       -1.28313900000000
Cu          60.52761300000000       -0.00607200000000       -0.01184500000000
C           63.90148000000000       -0.12889200000000       -0.07524500000000
C           63.23276400000000       -1.21981500000000       -0.45865800000000
C           63.87608200000000       -2.46201900000000       -0.87056700000000
C           62.92906800000000       -3.31608100000000       -1.21171400000000
C           61.62862400000000       -2.65634700000000       -1.03659100000000
N           61.81319000000000       -1.32617300000000       -0.55363900000000
C           60.43486500000000       -3.21374000000000       -1.31872200000000
C           60.38930999999999       -4.60203600000000       -1.84755200000000
C           60.47304400000000       -4.83599100000000       -3.24056200000000
C           60.61083900000000       -3.69376100000000       -4.21374900000000
C           60.43010200000000       -6.15219400000000       -3.72519700000000
C           60.31050600000000       -7.23487300000000       -2.84615700000000
C           60.22460800000000       -8.63456900000000       -3.38050300000000
C           60.20175200000000       -7.00026900000000       -1.47061700000000
C           60.24856100000000       -5.69428000000000       -0.95969800000000
C           60.13719600000000       -5.47699400000000        0.52721200000000
C           59.14178200000000       -2.50770600000000       -1.13097100000000
C           57.84964500000000       -3.05608300000000       -1.55706900000000
C           56.91444700000000       -2.19530700000000       -1.21349800000000
N           59.00439100000000       -1.35643700000000       -0.54662600000000
C           57.60219500000000       -1.08720900000000       -0.56035800000000
C           57.00719600000000       -0.01340800000000       -0.01308200000000
C           57.76444299999999        1.08190600000000        0.63921200000000
C           57.20815600000000        2.03205600000000        1.38055400000000
C           58.25713799999999        2.95627000000000        1.75923300000000
C           59.38851900000000        2.51107500000000        1.22609600000000
N           59.16821599999999        1.30450200000000        0.49266100000000
C           60.69020200000000        3.22013900000000        1.32427700000000
C           60.70068100000000        4.61724400000000        1.83556300000000
C           60.46201099999999        5.69655900000000        0.95285500000000
C           60.19428400000000        5.45861000000000       -0.51085500000000
C           60.46530700000000        7.00955600000000        1.44754400000000
C           60.70405699999999        7.26315600000000        2.80255000000000
C           60.72963099999999        8.67866000000000        3.30031800000000
C           60.95317800000000        6.19534800000000        3.67339100000000
C           60.94247900000000        4.87206100000000        3.20657900000000
C           61.20355700000000        3.74557300000000        4.17314200000000
C           61.85187700000000        2.64256800000000        0.96899000000000
C           63.17187500000000        3.26519200000000        1.03586800000000
C           64.03301500000001        2.33927200000000        0.66178600000000
C           63.27085600000000        1.13117400000000        0.34872000000000
N           61.99757800000000        1.29605000000000        0.52502300000000
H           64.98465500000000       -0.16264700000000       -0.07668800000000
H           64.93916900000001       -2.66342100000000       -0.90039600000000
H           63.10691099999999       -4.32385500000000       -1.56431800000000
H           61.56246100000000       -3.15409500000000       -4.02601000000000
H           59.76080800000000       -2.98998800000000       -4.09223500000000
H           60.61536500000000       -4.04789100000000       -5.26642900000000
H           60.48931499999999       -6.33771500000000       -4.79133300000000
H           60.64846800000000       -9.35892200000000       -2.65256100000000
H           59.16178600000000       -8.89214900000000       -3.57124500000000
H           60.79650999999999       -8.72944700000000       -4.32819400000000
H           60.08239000000000       -7.84043000000000       -0.79648100000000
H           59.22220100000000       -4.88986500000000        0.75211900000000
H           60.07833800000000       -6.43796100000000        1.08052500000000
H           61.02649300000000       -4.92333800000000        0.89496200000000
H           57.67399400000000       -3.99667700000000       -2.06245700000000
H           55.85426600000000       -2.31859800000000       -1.39087800000000
H           56.16254700000000        2.12467200000000        1.64101700000000
H           58.12979500000000        3.85630700000000        2.34667500000000
H           61.02938300000000        4.87942500000000       -0.95864400000000
H           60.09846000000000        6.41214400000000       -1.07212400000000
H           59.24872199999999        4.88926300000000       -0.63000600000000
H           60.28354800000000        7.84181000000000        0.77720100000000
H           59.82868199999999        9.22180200000000        2.94227300000000
H           60.73875100000000        8.71919400000000        4.41093900000000
H           61.63822699999999        9.18956500000000        2.91651200000000
H           61.15203600000000        6.39567100000000        4.71961200000000
H           62.15805900000000        3.24268800000000        3.91299300000000
H           60.37599199999999        3.00704500000000        4.12590200000000
H           61.27630200000000        4.10948800000000        5.22000500000000
H           63.41971600000000        4.27430700000000        1.33865700000000
H           65.10623699999999        2.46470500000000        0.60446200000000
C           39.15093499999999       -0.00097200000000       -0.01064000000000
C           37.89866399999999       -0.02015300000000       -0.01498900000000
C           40.46460299999999       -0.00173700000000       -0.00870800000000
C           41.96773600000000       -0.02015300000000       -0.01498900000000
C           52.27131099999999       -0.00097200000000       -0.01064000000000
C           51.01904000000000       -0.02015300000000       -0.01498900000000
C           53.58497899999999       -0.00173700000000       -0.00870800000000
C           55.08811300000000       -0.02015300000000       -0.01498900000000
Cu          46.44289899999999       -0.02753200000000        0.00307400000000
C           42.99704000000000        0.02939200000000        0.02816500000000
C           43.65556100000000        0.19120100000000        1.19091400000000
C           43.01378699999999        0.42548200000000        2.48684600000000
C           43.95385300000000        0.50088600000000        3.40633800000000
C           45.25340100000000        0.32041200000000        2.75352100000000
N           45.07503300000000        0.12745100000000        1.34876700000000
C           46.43841300000000        0.31358100000000        3.39641500000000
C           46.46266300000000        0.48551900000000        4.87307900000000
C           46.61922999999999        1.77479400000000        5.43434000000000
C           46.78016900000000        2.99015900000000        4.55783300000000
C           46.64856399999999        1.92352600000000        6.82935000000000
C           46.50062299999999        0.81431500000000        7.67061600000000
C           46.56391600000000        0.98185000000000        9.16068400000000
C           46.36255899999999       -0.46246100000000        7.11403100000000
C           46.34364099999999       -0.64026900000000        5.72223000000000
C           46.17889500000000       -2.02717300000000        5.15667200000000
C           47.74285500000000        0.14478100000000        2.70968900000000
C           49.01965200000000        0.00169800000000        3.41875500000000
C           49.97473500000000       -0.07798700000000        2.51605300000000
N           47.90799699999999        0.15418100000000        1.42306000000000
C           49.31465799999999        0.01535700000000        1.21982300000000
C           49.93385900000000        0.02939200000000        0.02816500000000
C           49.19548199999999        0.12106300000000       -1.25213800000000
C           49.76344400000000        0.37474300000000       -2.42426600000000
C           48.72976200000000        0.27763200000000       -3.43459800000000
C           47.59694000000000       -0.02719600000000       -2.81333400000000
N           47.79950500000000       -0.13995900000000       -1.40464600000000
C           46.31829599999999       -0.31473100000000       -3.50731200000000
C           46.35048599999999       -0.56159500000000       -4.97408200000000
C           46.10325100000000        0.49712500000000       -5.88029100000000
C           45.80007200000000        1.88861500000000       -5.38731200000000
C           46.14155999999999        0.24961500000000       -7.26099200000000
C           46.41864800000000       -1.03194300000000       -7.75082600000000
C           46.50304200000000       -1.27229500000000       -9.22957100000000
C           46.68818699999999       -2.07212300000000       -6.85389800000000
C           46.64456100000000       -1.85426800000000       -5.46844800000000
C           46.93955099999999       -2.99730900000000       -4.53157100000000
C           45.14233200000000       -0.37486800000000       -2.85573800000000
C           43.85079000000000       -0.66786100000000       -3.46649000000000
C           42.95945400000000       -0.56759400000000       -2.50268700000000
C           43.67110399999999       -0.21419100000000       -1.26896100000000
N           44.94852300000000       -0.10090700000000       -1.46856000000000
H           41.95544999999999        0.52026700000000        2.68972400000000
H           43.77015900000000        0.66535300000000        4.46030000000000
H           47.73564600000000        2.92110800000000        3.99757300000000
H           46.79121499999999        3.92735600000000        5.15339800000000
H           45.93758500000000        3.05358800000000        3.83803800000000
H           46.78427800000000        2.90687700000000        7.26452500000000
H           47.60905600000000        0.83476000000000        9.50433800000000
H           45.90834600000000        0.23969900000000        9.66420400000000
H           46.22401700000000        1.99639100000000        9.45968800000000
H           46.27188199999999       -1.32050000000000        7.76986400000000
H           45.20309099999999       -2.10286900000000        4.63317300000000
H           46.99750400000000       -2.24443300000000        4.43908400000000
H           46.20892299999999       -2.80171300000000        5.95232400000000
H           49.17221800000000       -0.03108300000000        4.48964500000000
H           51.03043400000000       -0.18532600000000        2.72726200000000
H           50.80837600000000        0.58520400000000       -2.60810000000000
H           48.86999700000000        0.39539300000000       -4.50125800000000
H           44.84987400000000        1.88432800000000       -4.81348200000000
H           45.69482800000000        2.60921600000000       -6.22622000000000
H           46.62217900000000        2.24421400000000       -4.73109200000000
H           45.95944000000000        1.05751200000000       -7.96012500000000
H           46.19325200000000       -2.31052600000000       -9.47536100000000
H           47.54790299999999       -1.11585200000000       -9.57016500000000
H           45.83443300000000       -0.57638800000000       -9.78023000000000
H           46.93172100000000       -3.05570300000000       -7.23869700000000
H           47.02187499999999       -3.96278400000000       -5.07475200000000
H           46.12438499999999       -3.09758600000000       -3.78459900000000
H           47.89866099999999       -2.80931200000000       -4.00553700000000
H           43.63966700000000       -0.91225000000000       -4.49952400000000
H           41.89645300000000       -0.72397700000000       -2.62676200000000
229
 energy: -358.929889683498 gnorm: 0.556685394436 xtb: 6.5.1 (b24c23e)
Cu          32.37187137039839       -0.01825625224769       -0.01687576474457
C           28.99605487144404        0.10112326202503        0.01638420713497
C           29.66979357465504        1.16745430440385        0.50139623204771
C           29.01960540804614        2.34277247050537        1.06145858749174
C           29.97439579944809        3.20164639514202        1.40902296421712
C           31.26626249660697        2.59747011099219        1.07640636167285
N           31.06947377368865        1.32065824850445        0.51181621233691
C           32.47379026017720        3.19845109571807        1.25908706015418
C           32.50985680774097        4.57152102217229        1.84116218512046
C           32.42394236495443        5.70182771435347        0.99977076344202
C           32.28607663038539        5.54995549196462       -0.49688552657019
C           32.46648193915888        6.98297758413080        1.56045281541227
C           32.58765621236957        7.15698079594893        2.94124552484955
C           32.67093290798451        8.54062594079809        3.52658559649775
C           32.69408498307450        6.03648216043420        3.76866488496086
C           32.64836086608330        4.74384880031201        3.23533538627739
C           32.75943958658742        3.55407678433226        4.15937427652719
C           33.74934434339167        2.57197128271430        0.91212994892646
C           35.03775643292710        3.25787334874996        0.98253371270705
C           35.98315253891187        2.38695030671149        0.62989953491914
N           33.90349472949876        1.32243536372693        0.52860257332981
C           35.30353982368813        1.13862004458502        0.33461566002086
C           35.91085827790931       -0.02406648816873       -0.01390035381995
C           35.13322000575494       -1.24061778130751       -0.30149224545475
C           35.69041260712329       -2.47155658434153       -0.42764544735586
C           34.65670860679197       -3.38556191537809       -0.78871531925301
C           33.49798722824703       -2.68219342496880       -0.86834364875716
N           33.73645626716643       -1.31914557256292       -0.55971867195311
C           32.21737621368879       -3.26815659557734       -1.28428082386195
C           32.19949396733004       -4.63709527162030       -1.88515739922806
C           32.43485367374101       -4.80464452390764       -3.26757100151066
C           32.70233474687585       -3.61633460086922       -4.16072019074524
C           32.43072091506228       -6.09126215168629       -3.81738109844936
C           32.19177824573306       -7.21168404187137       -3.01781706696522
C           32.16781427018400       -8.58138893326011       -3.64035641919513
C           31.94449633413958       -7.04235633891262       -1.65349668257957
C           31.95455762654073       -5.76792779290616       -1.07501263951653
C           31.69351904571636       -5.62348503540301        0.40595446945755
C           31.04383084452735       -2.60862843665236       -1.14313665223689
C           29.73095241199158       -3.10636550524221       -1.52551348848126
C           28.85726412265026       -2.17038367844898       -1.15150331358726
C           29.61155219769029       -1.08313635511873       -0.54138049508622
N           30.89953984881955       -1.33844508970764       -0.53590866595620
H           27.91250738338936        0.13603447208826        0.04294274582696
H           27.95759012517360        2.50931635113553        1.17966657034924
H           29.79476675125268        4.17129963220544        1.85186642689664
H           31.33902071975314        5.03243007719635       -0.73425998496911
H           33.13148818613585        4.96009226865920       -0.89476000736011
H           32.28137420486117        6.53029599728807       -1.00738811367697
H           32.40725451002624        7.85693216695876        0.91784476831237
H           32.25109533389585        8.55784251742552        4.54837952495892
H           33.72984844122797        8.85652406488185        3.56677487499712
H           32.10363778731254        9.26082547749537        2.91010661856045
H           32.81393569673256        6.17613162108793        4.83937245287159
H           33.66995813288293        2.97682214377343        3.91625714131165
H           32.81824701789888        3.86447926329839        5.21844139416682
H           31.87486860691529        2.90243475615203        4.04167210967820
H           35.21865629537519        4.28165167968620        1.26689826710018
H           37.04220037174903        2.59919138856629        0.58725446829146
H           36.73475580624629       -2.70412639042091       -0.29997407447410
H           34.76949828563064       -4.43976266584367       -0.98863118172291
H           31.87186719351286       -2.89136177502637       -4.08280238284459
H           32.79786096944550       -3.91602190319714       -5.22031949500207
H           33.64339255844168       -3.12481286210958       -3.85382527372450
H           32.61313163047004       -6.22792940322218       -4.87990750606449
H           33.06340394116869       -8.72348979053205       -4.27248411915282
H           32.15758995352831       -9.37394240066712       -2.87026777763969
H           31.26319321349838       -8.68301491153497       -4.26837898136177
H           31.74517852148980       -7.91336654668588       -1.03555533472811
H           30.74333962104972       -5.08258072834736        0.56595279013714
H           32.51642219513578       -5.05979008629440        0.88093176670137
H           31.62070323307625       -6.60687818034318        0.90536360380213
H           29.48180546402796       -4.04295796191452       -2.00587083503942
H           27.78875891789820       -2.22578416789213       -1.28173661847017
Cu          60.52496617202240       -0.00725732585643       -0.01249603797063
C           63.90069308144574       -0.11647958222550       -0.07111963783593
C           63.22699154215362       -1.22171849437723       -0.45941499354271
C           63.87719471710305       -2.45755628310359       -0.86897654733330
C           62.92240944305031       -3.31792029553761       -1.21279332804608
C           61.63058121094301       -2.65159328149934       -1.03450689929667
N           61.82739929246282       -1.33965469584867       -0.55792149966872
C           60.42287266652442       -3.21174630199096       -1.31875187254427
C           60.38690240377429       -4.60555158081418       -1.84936251423446
C           60.47283035951652       -4.83864972551464       -3.23904184519805
C           60.61069418506775       -3.69288842933481       -4.21385647116622
C           60.43028858821725       -6.15128481173253       -3.72143319647337
C           60.30911306143362       -7.23280685102788       -2.84554622856785
C           60.22583873007163       -8.63646567826200       -3.38110803764023
C           60.20268636556886       -6.99711412486862       -1.47274157813185
C           60.24841026180913       -5.69513256809357       -0.96265561020772
C           60.13733139453244       -5.47635199226024        0.52782703426533
C           59.14742678991440       -2.51955160901180       -1.13536843988518
C           57.85904522365132       -3.06327790783633       -1.55949899111281
C           56.91363528931726       -2.19075554751451       -1.21101699664876
N           58.99270294461640       -1.35215217154145       -0.54698770237411
C           57.59295063982337       -1.08573254812369       -0.56008968367731
C           56.98082301629746       -0.00527921204516       -0.00636916122017
C           57.76294781591940        1.07191312115312        0.62859627590791
C           57.20626781462516        2.04746814925587        1.38970897400781
C           58.24005196278439        2.95688587547117        1.76187884605736
C           59.39867872882173        2.50439356350951        1.21737570926546
N           59.15983620757829        1.30715420746192        0.49645740785879
C           60.67940384452691        3.21522552125405        1.32297570073151
C           60.69726964600974        4.61904975086365        1.83716395809603
C           60.46191350383866        5.69704058211826        0.95562996768172
C           60.19443582712443        5.45792844854852       -0.51154560024684
C           60.46605128086750        7.00608972572738        1.44966436506321
C           60.70499231841237        7.26101396170412        2.80231480665761
C           60.72895589274691        8.68036650129936        3.30138538595204
C           60.95227465002320        6.19426866055401        3.66955425535315
C           60.94221350405996        4.87416098274675        3.20465903207577
C           61.20325237610194        3.74461969323206        4.17329854877108
C           61.85296968540221        2.64163466767974        0.96823979397618
C           63.16586447197436        3.26554302011958        1.03692633310161
C           64.03953050454285        2.33124518078503        0.65878713441199
C           63.28519442601170        1.12430709594316        0.34633265968852
N           61.99738135712833        1.30479610086078        0.52706491014875
H           64.98425802058749       -0.16003434086382       -0.07611578481870
H           64.93919192743711       -2.65954570330121       -0.89896900084203
H           63.10200961633144       -4.32418712548511       -1.56455762408643
H           61.55774899052129       -3.15510991515769       -4.02684502637556
H           59.76528320747607       -2.99179352354853       -4.09257710238654
H           60.61539564742511       -4.04685160280548       -5.26094161422507
H           60.48951639617179       -6.33702025987597       -4.79019085827204
H           60.64567523063192       -9.35630510576355       -2.65571864952839
H           59.16692257556848       -8.89223621401694       -3.57081262792098
H           60.79313270565642       -8.72934429538167       -4.32456353586474
H           60.08283560398947       -7.83916224594660       -0.79681893663014
H           59.22681178438778       -4.89149734228097        0.75204717201357
H           60.07852394294945       -6.43355391917857        1.07713009917043
H           61.02190154514066       -4.92464962303330        0.89404455460713
H           57.67810399717926       -3.99883216359424       -2.06306698678700
H           55.85451154382099       -2.31419210534291       -1.38864048687780
H           56.16194310979314        2.12681079366073        1.64278766725416
H           58.12726781726816        3.85596946255691        2.34747227525345
H           61.02490268051657        4.88085515986800       -0.95723840126874
H           60.09891001670630        6.40776528045232       -1.06865046772701
H           59.25337866992989        4.89078387612250       -0.63038868769357
H           60.28363965971135        7.84032130917043        0.77758221177172
H           59.83336807307882        9.22054258722964        2.94363231458599
H           60.73918116250632        8.71910664785636        4.40577500756240
H           61.63357675621399        9.18849403039813        2.91857198975370
H           61.15159232130637        6.39495626991741        4.71847461034306
H           62.15343093811170        3.24354140488413        3.91426852444868
H           60.38034890252015        3.00902651084301        4.12577427814065
H           61.27606772872221        4.10846551825241        5.21449270620693
H           63.41497522890621        4.27392251144833        1.33872497773595
H           65.10802263606834        2.46133983820596        0.60317050091745
C           39.13598060033259       -0.00185449253363       -0.01137850838165
C           37.87216104772232       -0.02127435132140       -0.01549307452157
C           40.47008328067895       -0.00218717758745       -0.00848086923671
C           41.79332102794449       -0.02399830204189       -0.02447065592862
C           52.33387402538155       -0.00270811010085       -0.01186063706037