282
 energy: -454.994654444036 gnorm: 0.765638092602 xtb: 6.5.1 (b24c23e)
Cu          44.63646599999999       -0.02519300000000       -0.02677100000000
C           41.27777699999999        0.17806800000000       -0.26208100000000
C           41.94209700000000        1.27890400000000        0.09939400000000
C           41.29244800000000        2.52239300000000        0.49684000000000
C           42.23516200000000        3.39823200000000        0.78699200000000
C           43.54088399999999        2.75746500000000        0.57968100000000
N           43.36171800000000        1.40890800000000        0.14660800000000
C           44.73605600000000        3.35297300000000        0.76595400000000
C           46.03137300000000        2.66151100000000        0.53813200000000
C           47.32814300000000        3.34815400000000        0.53902900000000
C           48.26132600000000        2.44518600000000        0.32196200000000
N           46.16424300000000        1.38726300000000        0.32618700000000
C           47.56770000000000        1.17018300000000        0.17867000000000
C           48.15928900000000       -0.01992900000000       -0.02031800000000
C           47.40072100000000       -1.28640300000000       -0.16142700000000
C           47.95790899999999       -2.49092800000000       -0.14511200000000
C           46.91067300000000       -3.45651100000000       -0.40508700000000
C           45.77650500000000       -2.78218000000000       -0.55989000000000
C           44.47455200000000       -3.40672900000000       -0.91852300000000
C           44.44948600000000       -4.84852300000000       -1.25308800000000
C           44.38300900000000       -5.26157500000000       -2.59134800000000
C           44.37836700000000       -6.62748500000000       -2.91085200000000
C           44.27258499999999       -7.06735500000000       -4.34117900000000
C           44.40617300000000       -7.57952200000000       -1.87989800000000
C           44.46323599999999       -7.17443000000000       -0.53805700000000
C           44.52998100000000       -8.20501700000000        0.55047400000000
C           44.49477399999999       -5.80603400000000       -0.22958600000000
C           43.32140700000000       -2.71233000000000       -0.93238100000000
C           42.00073699999999       -3.25277100000000       -1.25090300000000
C           41.14548300000000       -2.26826600000000       -1.06146600000000
C           41.90916600000000       -1.10032700000000       -0.62586000000000
N           43.17938500000000       -1.34731900000000       -0.54669200000000
N           45.99672400000000       -1.37696500000000       -0.41290700000000
C           44.78558799999999        4.76323800000000        1.21065400000000
C           44.47010499999999        5.79872900000000        0.31887400000000
C           44.51309100000000        7.13500400000000        0.74216200000000
C           44.19294600000000        8.24402000000000       -0.21638000000000
C           44.91372700000000        7.43311500000000        2.05318900000000
C           45.25475500000000        6.40455800000000        2.94423500000000
C           45.63708599999999        6.72532800000000        4.35889600000000
C           45.17363900000000        5.06967100000000        2.52221700000000
H           40.19482699999999        0.21504700000000       -0.28036000000000
H           40.22783299999999        2.70894600000000        0.55621700000000
H           42.04922899999999        4.41091700000000        1.11962200000000
H           47.50806699999999        4.40506300000000        0.68549200000000
H           49.32356400000000        2.64270000000000        0.26722000000000
H           49.00354800000000       -2.72239100000000        0.00507200000000
H           47.04623500000000       -4.52619700000000       -0.49153100000000
H           44.33892400000000       -4.52016700000000       -3.38115400000000
H           44.77508400000000       -8.04711800000000       -4.48873600000000
H           43.20226400000000       -7.16381000000000       -4.61870400000000
H           44.75710900000000       -6.32870000000000       -5.01531000000000
H           44.38503699999999       -8.63598700000000       -2.12139300000000
H           44.36141800000000       -7.74979700000000        1.55079000000000
H           43.75121200000000       -8.97995300000000        0.38699700000000
H           45.52916000000000       -8.68905700000000        0.54129800000000
H           44.55154100000000       -5.48231800000000        0.80383500000000
H           41.74688700000000       -4.25612500000000       -1.56600100000000
H           40.07388300000000       -2.32977800000000       -1.19863400000000
H           44.18607900000000        5.56322500000000       -0.70016000000000
H           43.70404300000000        9.08787300000000        0.31565200000000
H           43.50175500000000        7.89213200000000       -1.01132400000000
H           45.13022700000000        8.60768600000000       -0.68631600000000
H           44.95954300000000        8.46593100000000        2.37926700000000
H           44.72762500000000        6.73255900000000        4.99390800000000
H           46.12721500000000        7.72021600000000        4.41744600000000
H           46.34840900000000        5.96812200000000        4.75370800000000
H           45.41570200000000        4.26872700000000        3.21113000000000
Cu          88.57815700000000       -0.01226500000000       -0.01705800000000
C           91.93684500000001        0.15716400000000       -0.27778600000000
C           91.27252600000000       -0.49645700000000       -1.23449200000000
C           91.92217499999998       -1.22433500000000       -2.31819900000000
C           90.97945999999999       -1.74682100000000       -3.07865300000000
C           89.67373900000000       -1.36933700000000       -2.52092000000000
N           89.85290499999999       -0.57799200000000       -1.34621500000000
C           88.47856700000000       -1.71401500000000       -3.04103900000000
C           87.18325000000000       -1.30272100000000       -2.44032500000000
C           85.88648000000001       -1.49471800000000       -3.09957800000000
C           84.95329599999999       -1.03487700000000       -2.29272300000000
N           87.05038000000000       -0.74444800000000       -1.27543700000000
C           85.64692300000000       -0.54233500000000       -1.10800000000000
C           85.05533399999999       -0.01992900000000       -0.02031800000000
C           85.81390200000000        0.46814300000000        1.15682100000000
C           85.25671300000000        0.78776800000000        2.31827900000000
C           86.30394900000000        1.30625100000000        3.17333100000000
C           87.43811800000000        1.26722600000000        2.48256100000000
C           88.74007099999999        1.78553600000000        2.98259500000000
C           88.76513700000000        2.50822000000000        4.27427300000000
C           88.83161399999999        3.90856500000000        4.29847700000000
C           88.83625499999999        4.59566000000000        5.52146200000000
C           88.94203700000000        6.09189800000000        5.54579700000000
C           88.80844899999998        3.87046500000000        6.72285100000000
C           88.75138599999998        2.46889700000000        6.70728900000000
C           88.68464099999998        1.71026600000000        8.00015000000000
C           88.71984800000000        1.79170700000000        5.47884400000000
C           89.89321500000000        1.60555100000000        2.31178400000000
C           91.21388600000000        2.06192300000000        2.74219900000000
C           92.06913900000001        1.60592300000000        1.84933900000000
C           91.30545699999999        0.86242300000000        0.84881800000000
N           90.03523800000001        0.85513800000000        1.10808500000000
N           87.21789900000000        0.73489300000000        1.17380100000000
C           88.42903400000000       -2.53370500000000       -4.27177600000000
C           88.74451699999999       -1.96541400000000       -5.51457900000000
C           88.70153200000000       -2.74394100000000       -6.68021200000000
C           89.02167599999999       -2.13199400000000       -8.01221800000000
C           88.30089599999999       -4.08613500000000       -6.60159900000000
C           87.95986800000000       -4.65565000000000       -5.36566000000000
C           87.57753599999998       -6.10368900000000       -5.27996300000000
C           88.04098299999998       -3.87872900000000       -4.20100800000000
H           93.01979599999999        0.16442700000000       -0.31839200000000
H           92.98678900000000       -1.33329400000000       -2.48085000000000
H           91.16539400000001       -2.34819800000000       -3.95872100000000
H           85.70655499999999       -1.92959700000000       -4.07394400000000
H           83.89105800000000       -1.03728000000000       -2.49766800000000
H           84.21107400000000        0.70795100000000        2.58240000000000
H           86.16838700000000        1.68703900000000        4.17667600000000
H           88.87569800000000        4.46077400000000        3.36652000000000
H           88.43953800000000        6.50635300000000        6.44576100000000
H           90.01235800000001        6.38530400000000        5.56118700000000
H           88.45751300000001        6.53377000000000        4.64868300000000
H           88.82958600000001        4.39649600000000        7.67033600000000
H           88.85320399999999        0.62277000000000        7.84137300000000
H           89.46341099999999        2.08299600000000        8.69895100000000
H           87.68546299999998        1.85381800000000        8.46250400000000
H           88.66308099999999        0.70902000000000        5.45559000000000
H           91.46773600000000        2.64386400000000        3.61818500000000
H           93.14073900000000        1.75479300000000        1.87023700000000
H           89.02854300000000       -0.92110100000000       -5.57204500000000
H           89.51057900000001       -2.87789600000000       -8.67462100000000
H           89.71286800000000       -1.27051800000000       -7.89552100000000
H           88.08439600000000       -1.78186400000000       -8.49232300000000
H           88.25507899999998       -4.68682200000000       -7.50282500000000
H           88.48699800000000       -6.71561600000000       -5.11014400000000
H           87.08740800000000       -6.43686500000000       -6.21923000000000
H           86.86621399999999       -6.27211800000000       -4.44278300000000
H           87.79892100000001       -4.31746100000000       -3.23995200000000
C           51.93479700000000       -0.00719700000000       -0.01779300000000
C           50.68252600000000       -0.02637800000000       -0.02214100000000
C           53.24846500000000       -0.00796300000000       -0.01586000000000
C           54.75159800000000       -0.02637800000000       -0.02214100000000
C           65.86808000000001       -0.00719700000000       -0.01779300000000
C           64.61581000000000       -0.02637800000000       -0.02214100000000
C           67.18174900000000       -0.00796300000000       -0.01586000000000
C           68.68488199999999       -0.02637800000000       -0.02214100000000
C           79.80136399999999       -0.00719700000000       -0.01779300000000
C           78.54909399999998       -0.02637800000000       -0.02214100000000
C           81.11503199999999       -0.00796300000000       -0.01586000000000
C           82.61816600000000       -0.02637800000000       -0.02214100000000
Cu          59.53582500000000       -0.07131800000000       -0.03258500000000
C           56.16646300000000        0.02258800000000        0.02260400000000
C           56.82273200000000        1.19350900000000       -0.07606100000000
C           56.18276699999999        2.51055200000000       -0.09096200000000
C           57.11893000000000        3.42414000000000       -0.25254100000000
C           58.41537000000000        2.74571000000000       -0.35261400000000
N           58.23719000000000        1.33246500000000       -0.23150700000000
C           59.59942000000000        3.36562700000000       -0.54299900000000
C           60.89674200000000        2.64300500000000       -0.57818600000000
C           62.16571700000000        3.26019500000000       -0.98538000000000
C           63.11845500000000        2.36370200000000       -0.83058400000000
N           61.06470800000000        1.41539800000000       -0.19639600000000
C           62.46334200000000        1.16225800000000       -0.32965100000000
C           63.07827399999999        0.02258800000000        0.02260400000000
C           62.32709400000000       -1.16136500000000        0.49042600000000
C           62.86159300000000       -2.17377900000000        1.16125400000000
C           61.82917900000000       -3.18154500000000        1.31120500000000
C           60.73555000000000       -2.71693700000000        0.71760600000000
C           59.48257400000000       -3.48953300000000        0.54115600000000
C           59.54590800000000       -4.96910000000000        0.62715700000000
C           58.84823399999999       -5.65374600000000        1.63429300000000
C           58.92391200000000       -7.05084900000000        1.72669300000000
C           58.21383399999999       -7.77025100000000        2.83472200000000
C           59.72929400000000       -7.76132100000000        0.82393900000000
C           60.42450300000000       -7.08731700000000       -0.19096000000000
C           61.30905099999999       -7.85177200000000       -1.13079700000000
C           60.34163100000000       -5.68979500000000       -0.27549600000000
C           58.31066800000000       -2.87714700000000        0.28479800000000
C           57.03585799999999       -3.53701100000000        0.02251600000000
C           56.14759500000000       -2.57449800000000       -0.12038500000000
C           56.84416299999999       -1.29406300000000        0.04335800000000
N           58.10845500000000       -1.46404800000000        0.27721100000000
N           60.95958100000000       -1.41774300000000        0.17348300000000
C           59.63381700000000        4.83654600000000       -0.71599700000000
C           60.22119099999999        5.64532900000000        0.26766000000000
C           60.26964400000000        7.03754600000000        0.10586900000000
C           60.94140200000000        7.89266000000000        1.13943400000000
C           59.75090100000000        7.61661000000000       -1.06230700000000
C           59.15036599999999        6.81698700000000       -2.04643200000000
C           58.62851500000000        7.43964100000000       -3.30679900000000
C           59.10829999999999        5.42551200000000       -1.87600800000000
H           55.12876799999999        2.73018100000000        0.01377400000000
H           56.93363500000000        4.48987100000000       -0.29170000000000
H           62.31502900000000        4.26881300000000       -1.34794500000000
H           64.16805800000000        2.51888600000000       -1.04224300000000
H           63.88548299999999       -2.25693100000000        1.50081400000000
H           61.94566000000000       -4.14951500000000        1.78081200000000
H           58.25434100000000       -5.09717700000000        2.35001100000000
H           57.97497500000000       -8.81431200000000        2.53795500000000
H           58.86184000000000       -7.78938300000000        3.73570600000000
H           57.26094199999999       -7.25756600000000        3.08508800000000
H           59.81666800000000       -8.83817500000000        0.91147800000000
H           61.45789599999999       -7.29219200000000       -2.07949100000000
H           60.85209500000000       -8.83355800000000       -1.37970800000000
H           62.29707200000000       -8.02075700000000       -0.65256800000000
H           60.89481499999999       -5.16092900000000       -1.04281700000000
H           56.83322800000000       -4.59705600000000       -0.05436600000000
H           55.09817300000000       -2.72797300000000       -0.33243500000000
H           60.64201499999999        5.18899500000000        1.15632500000000
H           60.50800600000000        8.91546900000000        1.14570900000000
H           62.02611000000000        7.96064300000000        0.91373500000000
H           60.80806500000000        7.45803500000000        2.15285000000000
H           59.81429100000000        8.68884700000000       -1.20599600000000
H           58.20227200000000        8.44351000000000       -3.09640400000000
H           57.82733400000000        6.81315700000000       -3.75477200000000
H           59.45746499999999        7.54322400000000       -4.03806500000000
H           58.67261599999999        4.79849900000000       -2.64554600000000
Cu          73.46910899999999       -0.07131800000000       -0.03258500000000
C           70.09974699999999        0.02258800000000        0.02260400000000
C           70.75601600000000        1.19350900000000       -0.07606100000000
C           70.11605100000000        2.51055200000000       -0.09096200000000
C           71.05221299999999        3.42414000000000       -0.25254100000000
C           72.34865400000000        2.74571000000000       -0.35261400000000
N           72.17047300000000        1.33246500000000       -0.23150700000000
C           73.53270400000000        3.36562700000000       -0.54299900000000
C           74.83002600000000        2.64300500000000       -0.57818600000000
C           76.09900099999999        3.26019500000000       -0.98538000000000
C           77.05173799999999        2.36370200000000       -0.83058400000000
N           74.99799100000000        1.41539800000000       -0.19639600000000
C           76.39662599999998        1.16225800000000       -0.32965100000000
C           77.01155700000000        0.02258800000000        0.02260400000000
C           76.26037799999999       -1.16136500000000        0.49042600000000
C           76.79487700000000       -2.17377900000000        1.16125400000000
C           75.76246300000000       -3.18154500000000        1.31120500000000
C           74.66883399999999       -2.71693700000000        0.71760600000000
C           73.41585700000000       -3.48953300000000        0.54115600000000
C           73.47919200000000       -4.96910000000000        0.62715700000000
C           72.78151800000001       -5.65374600000000        1.63429300000000
C           72.85719599999999       -7.05084900000000        1.72669300000000
C           72.14711800000001       -7.77025100000000        2.83472200000000
C           73.66257800000000       -7.76132100000000        0.82393900000000
C           74.35778699999999       -7.08731700000000       -0.19096000000000
C           75.24233500000000       -7.85177200000000       -1.13079700000000
C           74.27491400000000       -5.68979500000000       -0.27549600000000
C           72.24395199999998       -2.87714700000000        0.28479800000000
C           70.96914099999999       -3.53701100000000        0.02251600000000
C           70.08087900000000       -2.57449800000000       -0.12038500000000
C           70.77744700000000       -1.29406300000000        0.04335800000000
N           72.04173899999999       -1.46404800000000        0.27721100000000
N           74.89286499999999       -1.41774300000000        0.17348300000000
C           73.56710099999999        4.83654600000000       -0.71599700000000
C           74.15447499999999        5.64532900000000        0.26766000000000
C           74.20292699999999        7.03754600000000        0.10586900000000
C           74.87468600000000        7.89266000000000        1.13943400000000
C           73.68418400000000        7.61661000000000       -1.06230700000000
C           73.08365000000001        6.81698700000000       -2.04643200000000
C           72.56179899999999        7.43964100000000       -3.30679900000000
C           73.04158400000000        5.42551200000000       -1.87600800000000
H           69.06205199999999        2.73018100000000        0.01377400000000
H           70.86691899999998        4.48987100000000       -0.29170000000000
H           76.24831200000000        4.26881300000000       -1.34794500000000
H           78.10134100000001        2.51888600000000       -1.04224300000000
H           77.81876699999999       -2.25693100000000        1.50081400000000
H           75.87894400000000       -4.14951500000000        1.78081200000000
H           72.18762500000000       -5.09717700000000        2.35001100000000
H           71.90825800000000       -8.81431200000000        2.53795500000000
H           72.79512400000000       -7.78938300000000        3.73570600000000
H           71.19422600000000       -7.25756600000000        3.08508800000000
H           73.74995099999998       -8.83817500000000        0.91147800000000
H           75.39118000000001       -7.29219200000000       -2.07949100000000
H           74.78537799999999       -8.83355800000000       -1.37970800000000
H           76.23035600000000       -8.02075700000000       -0.65256800000000
H           74.82809800000000       -5.16092900000000       -1.04281700000000
H           70.76651199999999       -4.59705600000000       -0.05436600000000
H           69.03145700000000       -2.72797300000000       -0.33243500000000
H           74.57529900000000        5.18899500000000        1.15632500000000
H           74.44129000000000        8.91546900000000        1.14570900000000
H           75.95939300000001        7.96064300000000        0.91373500000000
H           74.74134900000000        7.45803500000000        2.15285000000000
H           73.74757500000000        8.68884700000000       -1.20599600000000
H           72.13555599999999        8.44351000000000       -3.09640400000000
H           71.76061799999999        6.81315700000000       -3.75477200000000
H           73.39074900000000        7.54322400000000       -4.03806500000000
H           72.60590000000001        4.79849900000000       -2.64554600000000
282
 energy: -455.280952701940 gnorm: 0.485067316889 xtb: 6.5.1 (b24c23e)
Cu          44.64162525043265       -0.01818186060387       -0.03515923568261
C           41.27801285616582        0.16124345311540       -0.26759610655708
C           41.94766660693413        1.27933043160418        0.10040643442307
C           41.29232827232116        2.51564745533529        0.49445382786693
C           42.24584306115489        3.40037359368298        0.78769563563801
C           43.54043361359120        2.75222455411380        0.57927743614689
N           43.34242581228109        1.42583470186019        0.15412898221518
C           44.75172814609846        3.35005846018748        0.76404754142911
C           46.02546614795003        2.67753113411356        0.54328192136074
C           47.31500128134584        3.35791216309717        0.54300312074764
C           48.26059565320427        2.43731147307696        0.32011895286027
N           46.17740104530326        1.38620020103330        0.32573061905365
C           47.57867000462216        1.16420882484623        0.17695619980508
C           48.15584006242143       -0.03771681881799       -0.02026015033272
C           47.39879718248496       -1.27116641692752       -0.16464026601801
C           47.96138820183371       -2.51376601107265       -0.14848136860507
C           46.93331627836191       -3.45942056376530       -0.40349485740961
C           45.76667059877115       -2.76865441625598       -0.56236601259251
C           44.49094174054821       -3.39682419446058       -0.91424313891845
C           44.45760481821647       -4.84838503546645       -1.25247542981994
C           44.38371252404017       -5.26402965945384       -2.58683294418227
C           44.37515445809262       -6.62579605654625       -2.90618066286986
C           44.27459340874428       -7.06731996227288       -4.34181083181780
C           44.40661679849654       -7.57312779447715       -1.87847943657157
C           44.46453455866166       -7.17050888708189       -0.54047686893162
C           44.52857866235577       -8.20504452413869        0.55133967799756
C           44.49628854350151       -5.80700718997211       -0.23392841576372
C           43.32172957857554       -2.70989605141667       -0.93187982234215
C           42.00941557732079       -3.25149228662782       -1.24937652238065
C           41.13571444703194       -2.25598170084920       -1.05888565120893
C           41.88908098014374       -1.09154336222885       -0.62308303162244
N           43.17729966263405       -1.35728061690441       -0.54879266618111
N           46.00496248253530       -1.38207314541442       -0.41192660899091
C           44.79197595838411        4.76675741576637        1.20990937906391
C           44.46981075555125        5.80022177807037        0.32388359275850
C           44.51584108024260        7.13216359420258        0.74401963169964
C           44.19094222084122        8.24451300196213       -0.21636677636517
C           44.91335508102225        7.42746080902164        2.05145701410507
C           45.25070912226563        6.40372409090041        2.94145429444740
C           45.63933461834608        6.72558441246276        4.35916405297781
C           45.17477010410186        5.07384370719066        2.51893155556977
H           40.19523257518037        0.20898889554720       -0.28311424047030
H           40.22819885036073        2.70022923201068        0.55314935816303
H           42.06071696051002        4.41199646355285        1.11988666524073
H           47.49860555423159        4.41002833228742        0.68740530849044
H           49.32256836234247        2.63155319963479        0.26533214547079
H           49.00537019517765       -2.72882540006006        0.00506048635763
H           47.05225767186287       -4.52749918522883       -0.48956028557158
H           44.34004506204987       -4.52191145462999       -3.37871018177354
H           44.76957246623608       -8.04054797914479       -4.48823100341813
H           43.21158722116463       -7.16378607141176       -4.61915541472117
H           44.75168059697000       -6.33395662844393       -5.01131668348890
H           44.38546824406178       -8.63251192479146       -2.12069413207491
H           44.36374560661528       -7.75346177521375        1.54292474405570
H           43.75845531592773       -8.97616602177418        0.38898334842272
H           45.52031081607817       -8.68711674375834        0.54298332069035
H           44.55119515745567       -5.48332017640933        0.80123691420418
H           41.75800914793390       -4.25518677655593       -1.56501146411852
H           40.06928997427433       -2.32194346854992       -1.19717825198882
H           44.18643377376872        5.56350345129712       -0.69735909043332
H           43.70905581536771        9.08315296109792        0.31086117125720
H           43.50814529026980        7.89520191480893       -1.00677719765458
H           45.12143047665074        8.60676193906310       -0.68407811329072
H           44.95955263929796        8.46282774001582        2.37832409964411
H           44.73623378518780        6.73306303350025        4.99131461510002
H           46.12231218191214        7.71358898610015        4.41832964434147
H           46.34186577738615        5.97341773406978        4.75234222255628
H           45.41570867799850        4.27074030810112        3.20912050515516
Cu          88.57305496798854       -0.00628405293422       -0.02600807636789
C           91.93658087829782        0.16713659484750       -0.26318770312119
C           91.26698930607313       -0.49754941353961       -1.23469385640663
C           91.92233898969155       -1.22020483706888       -2.31244375656807
C           90.96882484411836       -1.74809620919745       -3.08056319789347
C           89.67423244263136       -1.36743823543883       -2.51595679999525
N           89.87234670786299       -0.59013613922722       -1.36051373553575
C           88.46268566409049       -1.71126194393992       -3.03861552527125
C           87.18889507063859       -1.31197367560533       -2.45403064893564
C           85.89942945264235       -1.50123543052561       -3.10787263486080
C           84.95363600756156       -1.03106574296328       -2.28601875600795
N           87.03608584556488       -0.74347917728465       -1.27409751890134
C           85.63433480081429       -0.53905612170494       -1.10271548090401
C           85.05473207671845       -0.01481833967077       -0.00337109798649
C           85.81427685663894        0.46713887747914        1.14127029210678
C           85.25281300691520        0.79743261934858        2.33958086136701
C           86.28115267909270        1.30549566750925        3.17654360596426
C           87.44763854939796        1.26574861997775        2.46861169635383
C           88.72362739219230        1.77860152055505        2.97417142935386
C           88.75697279750348        2.50757134868294        4.27427612454716
C           88.83091023355605        3.90490260813248        4.30207645628795
C           88.83947037064696        4.59069722326052        5.52113836379118
C           88.94002793156368        6.09249158585462        5.54558484114211
C           88.80800735887962        3.86731802368084        6.71709837879976
C           88.75008972373848        2.47012319263627        6.70285285553263
C           88.68604383390885        1.70944049391312        8.00041149148998
C           88.71832521936901        1.79614018517661        5.47855678190409
C           89.89292375518652        1.60440033967044        2.30961270400163
C           91.20527997562859        2.06013023439098        2.74144880708847
C           92.07896087760942        1.60007654011241        1.83834064477290
C           91.32555892549739        0.85735855924984        0.84122778478462
N           90.03750752842393        0.86013197319542        1.11713651041147