150
 energy: -264.360052398072 gnorm: 2.847390360606 xtb: 6.5.1 (b24c23e)
Ni          13.43189900000000       -0.02019600000000       -0.02231700000000
C           10.08784800000000        0.10942000000000        0.07005500000000
C           10.75572200000000        0.89391000000000        0.92053800000000
C           10.11083200000000        1.77323400000000        1.88880200000000
C           11.05672600000000        2.42368300000000        2.54028000000000
C           12.35865300000000        1.99250200000000        2.01466400000000
N           12.17539500000000        1.01708600000000        0.98866200000000
C           13.55224600000000        2.47081000000000        2.41734300000000
C           14.84577500000000        2.01800500000000        1.84530000000000
C           16.13733900000000        2.63530500000000        2.16766900000000
C           17.07171100000000        1.97990700000000        1.50994500000000
N           14.98345300000000        1.02125300000000        1.02532900000000
C           16.38421400000000        0.93276800000000        0.76353100000000
C           16.97734800000000       -0.00016500000000        0.00004500000000
C           16.21694500000000       -1.04803600000000       -0.72026100000000
C           16.76358100000000       -2.14203400000000       -1.23620700000000
C           15.71507700000000       -2.86415900000000       -1.92852100000000
C           14.59557700000000       -2.16328100000000       -1.79230600000000
C           13.30087800000000       -2.52922500000000       -2.42235900000000
C           13.30474200000000       -3.53840900000000       -3.51164200000000
C           13.83238700000000       -3.19970300000000       -4.77378800000000
O           14.33041500000000       -1.90096100000000       -4.97320200000000
C           14.89361500000000       -1.42966800000000       -6.19251700000000
C           13.84363300000000       -4.16466900000000       -5.79762400000000
C           13.33903800000000       -5.44409000000000       -5.56584500000000
C           12.82202500000000       -5.78130700000000       -4.31506500000000
C           12.80400300000000       -4.83485300000000       -3.27408000000000
O           12.30462400000000       -5.14550400000000       -1.99775300000000
C           11.75719600000000       -6.40700100000000       -1.62953500000000
C           12.13786300000000       -1.96906200000000       -2.04117400000000
C           10.82120500000000       -2.25091500000000       -2.60957600000000
C            9.96065600000000       -1.53208800000000       -1.91529400000000
C           10.71926300000000       -0.78525200000000       -0.91299900000000
N           11.98980600000000       -1.03263300000000       -0.97655200000000
N           14.82202200000000       -0.98127000000000       -1.02111900000000
C           13.59631800000000        3.51012800000000        3.47193300000000
C           13.72673700000000        3.13034100000000        4.82195000000000
O           13.81197100000000        1.76337500000000        5.13526700000000
C           13.93357700000000        1.24338200000000        6.45538400000000
C           13.76645600000000        4.12561400000000        5.81580200000000
C           13.67975500000000        5.47373400000000        5.46654000000000
C           13.55479900000000        5.84877700000000        4.12829900000000
C           13.51352300000000        4.87096100000000        3.11729700000000
O           13.39299800000000        5.21050000000000        1.75915500000000
C           13.31409000000000        6.54327800000000        1.26391900000000
H            9.00445500000000        0.13222100000000        0.09251300000000
H            9.04702900000000        1.88781400000000        2.05384900000000
H           10.87638900000000        3.15289200000000        3.31965400000000
H           16.31392600000000        3.47673500000000        2.82485900000000
H           18.13098300000000        2.19584200000000        1.54609000000000
H           17.80195000000000       -2.43894800000000       -1.17525800000000
H           15.83402900000000       -3.79053000000000       -2.47536900000000
H           14.13844000000000       -1.47746000000000       -7.00527400000000
H           15.20838200000000       -0.37395300000000       -6.06161100000000
H           15.78522000000000       -2.03496800000000       -6.46025300000000
H           14.23951900000000       -3.93563500000000       -6.77754600000000
H           13.35155100000000       -6.17994500000000       -6.35966000000000
H           12.44279700000000       -6.78294300000000       -4.16673200000000
H           11.43872300000000       -6.36745100000000       -0.56795500000000
H           10.87047500000000       -6.63586500000000       -2.25767400000000
H           12.52281800000000       -7.20381500000000       -1.74191100000000
H           10.57439800000000       -2.91425600000000       -3.42841000000000
H            8.89004700000000       -1.50854100000000       -2.07085000000000
H           13.98106300000000        0.13656000000000        6.40527700000000
H           13.05021500000000        1.53428800000000        7.06236900000000
H           14.86584700000000        1.61874100000000        6.92881200000000
H           13.86267800000000        3.86831100000000        6.86187500000000
H           13.71053500000000        6.23283500000000        6.23773000000000
H           13.49178100000000        6.90195800000000        3.89091000000000
H           14.23208100000000        7.10687000000000        1.53602600000000
H           13.23040500000000        6.51398800000000        0.15843900000000
H           12.41563200000000        7.04991300000000        1.67539700000000
Ni          28.92436500000000        0.01912600000000        0.02305100000000
C           32.26841600000000       -0.05389800000000       -0.11837300000000
C           31.60054200000000       -0.78431900000000       -1.01571900000000
C           32.24543100000000       -1.61785500000000       -2.02366800000000
C           31.29953700000000       -2.17033100000000       -2.76006500000000
C           29.99761100000000       -1.71129500000000       -2.25859200000000
N           30.18086900000000       -0.83425500000000       -1.14732300000000
C           28.80401800000000       -2.04194600000000       -2.78925100000000
C           27.51048900000000       -1.54002500000000       -2.25977800000000
C           26.21892400000000       -1.77143700000000       -2.91661100000000
C           25.28455200000000       -1.21348200000000       -2.17442900000000
N           27.37281000000000       -0.86995800000000       -1.15665700000000
C           25.97205000000000       -0.62338400000000       -1.03188000000000
C           25.37891500000000       -0.00016500000000        0.00004500000000
C           26.13931800000000        0.56398600000000        1.13961100000000
C           25.59268300000000        0.91929800000000        2.29580500000000
C           26.64118700000000        1.50201300000000        3.10895100000000
C           27.76068600000000        1.46674000000000        2.39583100000000
C           29.05538500000000        2.03842100000000        2.84756300000000
C           29.05152100000000        2.97330200000000        4.00124700000000
C           28.52387700000000        4.27076300000000        3.84526500000000
O           28.02584800000000        4.65264200000000        2.58802000000000
C           27.46264900000000        5.92653900000000        2.29471000000000
C           28.51263000000000        5.14714300000000        4.94588100000000
C           29.01722600000000        4.73597200000000        6.17940400000000
C           29.53423800000000        3.44997300000000        6.33552700000000
C           29.55226100000000        2.55398900000000        5.25079900000000
O           30.05164000000000        1.24647600000000        5.37699600000000
C           30.59906700000000        0.70279600000000        6.57339500000000
C           30.21840000000000        1.74067200000000        2.23893300000000
C           31.53505800000000        2.26327400000000        2.59867000000000
C           32.39560800000000        1.67814200000000        1.78850900000000
C           31.63700100000000        0.79209900000000        0.90687000000000
N           30.36645800000000        0.81986700000000        1.16077000000000
N           27.53424200000000        0.87127800000000        1.11625900000000
C           28.75994600000000       -2.93820600000000       -3.96783500000000
C           28.62952600000000       -4.32848200000000       -3.78366900000000
O           28.54429300000000       -4.83280000000000       -2.47507300000000
C           28.42268700000000       -6.21339600000000       -2.14787600000000
C           28.58980800000000       -5.17087600000000       -4.91002700000000
C           28.67650799999999       -4.63365500000000       -6.19486300000000
C           28.80146500000000       -3.25571000000000       -6.37600500000000
C           28.84274000000000       -2.39385900000000       -5.26449100000000
O           28.96326600000000       -1.00125800000000       -5.40766200000000
C           29.04217400000000       -0.32172200000000       -6.65657700000000
H           33.35180900000000       -0.07288900000000       -0.14413300000000
H           33.30923500000000       -1.76495300000000       -2.16053200000000
H           31.47987400000000       -2.83821700000000       -3.59258900000000
H           26.04233800000000       -2.30243700000000       -3.84286300000000
H           24.22528000000000       -1.21858700000000       -2.39330900000000
H           24.55431300000000        0.81679000000000        2.58105100000000
H           26.52223500000000        1.91172400000000        4.10360800000000
H           28.21782300000000        6.72426600000000        2.45747000000000
H           27.14788200000000        5.94692600000000        1.23110600000000
H           26.57104400000000        6.10557700000000        2.93190400000000
H           28.11674500000000        6.14966200000000        4.85836900000000
H           29.00471200000000        5.41720800000000        7.02055900000000
H           29.91346700000000        3.16086200000000        7.30593600000000
H           30.91754100000000       -0.34240100000000        6.38344800000000
H           31.48578800000000        1.29205500000000        6.88916600000000
H           29.83344600000000        0.70084500000000        7.37809200000000
H           31.78186500000000        2.97957600000000        3.37160100000000
H           33.46621700000000        1.83546500000000        1.78729800000000
H           28.37520000000000       -6.32102100000000       -1.04515900000000
H           29.30604900000000       -6.77290200000000       -2.52205400000000
H           27.49041600000000       -6.62870300000000       -2.58667900000000
H           28.49358600000000       -6.24289200000000       -4.80392900000000
H           28.64572900000000       -5.28919400000000       -7.05581400000000
H           28.86448200000000       -2.87112300000000       -7.38478500000000
H           28.12418300000000       -0.51101000000000       -7.25310700000000
H           29.12585800000000        0.76838700000000       -6.47055000000000
H           29.94063200000000       -0.65705900000000       -7.21652500000000
C           21.78205200000000        0.00114700000000        0.00847800000000
C           20.57311300000000       -0.01230800000000        0.00003000000000
C           19.15158400000000       -0.00348900000000       -0.01195300000000
C           17.93991400000000        0.00395000000000       -0.00109000000000
C           23.19865600000000       -0.00552800000000        0.00901100000000
C           24.41935200000000        0.00395000000000       -0.00109000000000
150
 energy: -265.094048250443 gnorm: 0.488512755412 xtb: 6.5.1 (b24c23e)
Ni          13.43576498697854       -0.01884664272409       -0.02053857110559
C           10.08823459203128        0.10276473572656        0.06255688596966
C           10.76122493016060        0.89516222321059        0.92212871183516
C           10.10978397972671        1.77062592740493        1.88612281990831
C           11.06181610126412        2.42474027878192        2.54118814098946
C           12.35675626754309        1.98839674786126        2.01110766671945
N           12.16774055668405        1.02125624942968        0.99253701031317
C           13.56094140416033        2.46941511636920        2.41504739018676
C           14.83948860766813        2.02703242804886        1.85402432851342
C           16.12909743908694        2.63902258035710        2.17234983170141
C           17.07067056571260        1.97435118819151        1.50557399146768
N           14.98067841299894        1.02112764523789        1.02276500380814
C           16.35106637646338        0.94614090904108        0.77429618485688
C           16.83748657127911       -0.00634021115928       -0.00307721629034
C           16.18799523499357       -1.04726836915825       -0.72240892844436
C           16.76288577989021       -2.15175677413400       -1.24297850084917
C           15.72707645330765       -2.86649831064848       -1.92810945181985
C           14.58575894785693       -2.15621163681031       -1.79193327761688
C           13.30797318988016       -2.52662571758873       -2.41906649995039
C           13.30653761857531       -3.53833338708712       -3.51046954093993
C           13.83417915928241       -3.19859116032326       -4.77649035962769
O           14.32820308252847       -1.90449678303469       -4.97036353730713
C           14.89246621926894       -1.43268813441873       -6.19200473984722
C           13.84331990231396       -4.16414655500213       -5.79669324966472
C           13.33902985893199       -5.44176652952592       -5.56334412847715
C           12.82216411370384       -5.78033867985591       -4.31449477934969
C           12.80260877180567       -4.83758895549460       -3.27332060297033
O           12.30650496156920       -5.14232053369659       -2.00093313771927
C           11.75839537433175       -6.40628578393321       -1.63254922233327
C           12.13684950681062       -1.96787453785684       -2.04025329913207
C           10.82624337930584       -2.25185822171865       -2.60979137731705
C            9.95655076942801       -1.52783864924310       -1.91048461908075
C           10.70908843214765       -0.78071976407103       -0.90849508933478
N           11.99452752486702       -1.03375530800826       -0.97956974982197
N           14.81779404112608       -0.98683318315764       -1.02177087935764
C           13.59739845472576        3.51062950827040        3.47208409485862
C           13.72710124487329        3.12934057242450        4.82514062861436
O           13.81152028697753        1.76697925641738        5.13203282239591
C           13.93341136081747        1.24665701440806        6.45457487418721
C           13.76631424286887        4.12526414881360        5.81489910881963
C           13.67966291617299        5.47131466563724        5.46407644723008
C           13.55479215482928        5.84788776598616        4.12793712387818
C           13.51339634587909        4.87425769064893        3.11643331832755
O           13.39339746716008        5.20720452279394        1.76266310652698
C           13.31439927481392        6.54240889066994        1.26715173992192
H            9.00463685153375        0.13146793782196        0.09139073145419
H            9.04707010809886        1.88620062686202        2.05219669622658
H           10.87910619279248        3.15296825437029        3.31968251389813
H           16.31178868615847        3.47731333332571        2.82562845594508
H           18.13040033207094        2.19309962366606        1.54381230800912
H           17.80176964552328       -2.43920350125127       -1.17531245716169
H           15.83531707474135       -3.79067639732203       -2.47499345799659
H           14.14043674503401       -1.47746525457403       -7.00438047504579
H           15.20660755944071       -0.37772405050135       -6.06014631525998
H           15.78346808326873       -2.03372811587636       -6.46058248721981
H           14.23962806269390       -3.93508051816551       -6.77736234801780
H           13.35153862374857       -6.17948174336221       -6.35915397341019
H           12.44266580213084       -6.78282912410210       -4.16614971606621
H           11.44047428651609       -6.36567557540581       -0.57154299980179
H           10.87222037515285       -6.63628501490401       -2.25645957871953
H           12.52081728296960       -7.20288870996183       -1.74183951404644
H           10.57700572713353       -2.91429279844036       -3.42802274619983
H            8.88942745864589       -1.50715965459636       -2.06938151634790
H           13.98075675308810        0.14051724797808        6.40344700704592
H           13.05231030731003        1.53373603935382        7.06197419597989
H           14.86374798433092        1.61795989880454        6.92869695211398
H           13.86270405919767        3.86777315486255        6.86172980647634
H           13.71051883321075        6.23234141109908        6.23722830604463
H           13.49174399381005        6.90185055938972        3.89036960355460
H           14.22990973543704        7.10652306458753        1.53553178898373
H           13.23076095742270        6.51208332540365        0.16235366505448
H           12.41766448901787        7.04976760757297        1.67457447493604
Ni          28.92050371764461        0.01755470320936        0.02145962836210
C           32.26803122740851       -0.04741926117095       -0.11071745712966
C           31.59503659051933       -0.78571765605824       -1.01718660797320
C           32.24647926858695       -1.61557225585673       -2.02070446915180
C           31.29444380414803       -2.17108005024388       -2.76124035696399
C           29.99950880249381       -1.70836248065532       -2.25402931837624
N           30.18852695383060       -0.83749532882186       -1.15199812486253
C           28.79532587349504       -2.03987315411562       -2.78754506079819
C           27.51676162504599       -1.54740115851704       -2.26998661311850
C           26.22719939067384       -1.77555730472036       -2.92096637193062
C           25.28557674030112       -1.20994352803060       -2.16829301858543
N           27.37554646672045       -0.86742933912308       -1.15617467342628
C           26.00523478588064       -0.63226527299989       -1.04695452135920
C           25.51965062847396        0.00202757217753        0.00591536764144
C           26.16854650234005        0.56624917543762        1.13916639542746
C           25.59340538047162        0.92458829937308        2.30634209739237
C           26.62920500035034        1.50127473732807        3.11120759629861
C           27.77049913259118        1.46737994210158        2.38879678688841
C           29.04829952848095        2.03553252109405        2.84452479247959
C           29.04972552844634        2.97215255514629        4.00100540600087
C           28.52208483040481        4.27359588360760        3.84454862434021
O           28.02805955613095        4.64932994325062        2.59111621492939
C           27.46379788294975        5.92560307440213        2.29762686855161
C           28.51294316617824        5.14629583680720        4.94523176856526
C           29.01723410232594        4.73382642727015        6.17674885649121
C           29.53409896337781        3.44954620601225        6.33448761994667
C           29.55365529283599        2.55284833036374        5.25339922681570
O           30.04975883840858        1.25007641651255        5.37429659866193
C           30.59786781439126        0.70588116888038        6.57311524556994
C           30.21941103942850        1.73993108066084        2.23763046445663
C           31.53002116413445        2.26335359820071        2.59963405987077
C           32.39971268659757        1.67398614281289        1.78362086014651
C           31.64717498135708        0.78828372322189        0.90174284742353
N           30.36173776109673        0.82269243172314        1.16230797716468
N           27.53852080069348        0.87116453146648        1.12186078757086
C           28.75886615265324       -2.93828385960536       -3.96835215030505
C           28.62916143941826       -4.33178210847356       -3.78313164881231
O           28.54474411684323       -4.82908687211849       -2.47818110305247
C           28.42285243503268       -6.21212961798405       -2.15100285516138
C           28.58994977576800       -5.17003190480517       -4.90955228401019
C           28.67660016795685       -4.63156009481014       -6.19211830896795
C           28.80147180836444       -3.25547798139975       -6.37507320508550
C           28.84286653911234       -2.39253562526314       -5.26763136102570
O           28.96286689907371       -1.00519838943626       -5.40489850521633
C           29.04186459508974       -0.32504557491904       -6.65617569525341
H           33.35162740801636       -0.07188481938697       -0.14322798781155
H           33.30919371112792       -1.76354638727069       -2.15869996111647
H           31.47715665350820       -2.83823437108651       -3.59266857894711
H           26.04447689348800       -2.30311724389135       -3.84354577637803
H           24.22585742696310       -1.21671522861618       -2.39026091098446
H           24.55449776921323        0.81680339432431        2.58129781262904
H           26.52094566275197        1.91133079971745        4.10369832608065
H           28.21582631596511        6.72338079307313        2.45734828968304
H           27.14965641378269        5.94494055289372        1.23463064395388
H           26.57279585897797        6.10607933802803        2.93072351221307
H           28.11663590443897        6.14955910037655        4.85779401942743
H           29.00472439195336        5.41677292829846        7.02002856532176
H           29.91359813870243        3.16030182495106        7.30574041754438
H           30.91578967218027       -0.33859713965546        6.38220025673668
H           31.48404263646790        1.29079323242183        6.88940922882755
H           29.83544664713877        0.70090579206075        7.37716497626911
H           31.77925747233849        2.97918752572840        3.37158244803936
H           33.46683641603838        1.83420771362221        1.78572218559262
H           28.37550626655652       -6.31864743847712       -1.04881631586392
H           29.30395370096757       -6.77258967083729       -2.52145155574660
H           27.49251509998329       -6.62870003348771       -2.58588945791695
H           28.49355994380139       -6.24282455203605       -4.80337592816621
H           28.64574513887529       -5.28876754449931       -7.05525421020728
H           28.86451900608208       -2.87060332325811       -7.38460182694191
H           28.12635424551732       -0.51057014472116       -7.25269336708337
H           29.12550208024566        0.76424150415916       -6.46922071851857
H           29.93859953696944       -0.65626547927501       -7.21626427699286
C           21.78772972400726        0.00097986763733        0.00832080897085
C           20.56738152273526       -0.01215497362313        0.00018528070870
C           19.21804645033881       -0.00495124384241       -0.01359511772047
C           18.07504876706510       -0.00076568044709       -0.00719460557840
C           23.13495615445683       -0.00488459428316        0.00961237875032
C           24.28024333853763        0.01032615575602        0.00651367169401
150
 energy: -265.208186645946 gnorm: 0.292033676220 xtb: 6.5.1 (b24c23e)
Ni          13.44051226246548       -0.01075299931196       -0.01116563393068
C           10.08903530502335        0.09137792045576        0.04951873259416
C           10.76655715878840        0.89234217547479        0.92044618355592
C           10.11315873499851        1.76364963465848        1.87927958504888
C           11.07409450202978        2.42288627664792        2.53943430322103
C           12.35671903293854        1.98192674535427        2.00666298484134
N           12.15173425152045        1.03079119942140        0.99844109783264
C           13.56936491740091        2.47117729158679        2.41522252743038
C           14.81722826023394        2.04894656334878        1.87416612154055
C           16.10558170287604        2.64716803873092        2.18547272146982
C           17.04586464383390        1.96899979837019        1.50231949690219
N           14.95301848688850        1.03951685007014        1.02242106521614
C           16.30606410361654        0.95794779663310        0.77877476744237
C           16.78791855416050       -0.02425890519788       -0.01490109687640
C           16.14283711087224       -1.04993055158142       -0.72862757650913
C           16.75093034267135       -2.16818801370179       -1.26151004206706
C           15.74361435897815       -2.86884043737085       -1.93500627570074
C           14.57169209474857       -2.15052517348859       -1.79682225836505
C           13.32244201393281       -2.51933587795940       -2.41273820089158
C           13.31815473910519       -3.53887957392165       -3.50434316565347
C           13.83839870780239       -3.20038337004733       -4.77621537910461
O           14.32139751530990       -1.91548325837693       -4.95889294562844
C           14.88448266610530       -1.44850752281314       -6.18388478579628
C           13.84277858644328       -4.16114698218021       -5.79419218387314
C           13.33907948786731       -5.43490119755410       -5.55586920198897
C           12.82180599864154       -5.77733273860213       -4.31139102473472
C           12.80327431530438       -4.83770239877241       -3.27383491869954
O           12.31315103993554       -5.12954487175076       -2.01063172067690
C           11.76623488477816       -6.39663469365804       -1.64783539447194
C           12.13967065609644       -1.95986937760393       -2.03529739587437
C           10.83600778607646       -2.24616381054223       -2.60111348284548
C            9.94972760263746       -1.51926954545720       -1.89757235424354
C           10.69358816807670       -0.77330458300187       -0.90075894058884
N           11.99915822282507       -1.02656321746310       -0.98602381765699
N           14.78827042960900       -1.01015495690837       -1.01536801767661
C           13.60128904535275        3.51431504208500        3.47451659319791
C           13.72800271899429        3.13202005368156        4.82847852240242
O           13.81000787504440        1.77929616695101        5.11946013093652
C           13.93192437758134        1.26362219724204        6.44453317107331
C           13.76580914286690        4.12373094980975        5.81410644299538
C           13.67938797107638        5.46520322162100        5.45780346024703
C           13.55457877865065        5.84745381124411        4.12647070649309
C           13.51420841496436        4.87830543317219        3.11908536580146
O           13.39499340905415        5.19466147947712        1.77457140723939
C           13.31597160448236        6.53218211862332        1.28376846178521
H            9.00571313983268        0.12574007240596        0.08254415597532
H            9.04952533446486        1.87534105685500        2.04113831343201
H           10.89824732261787        3.15203669413586        3.31848443248030
H           16.29683247243396        3.48399892916139        2.83449693198891
H           18.11232928215379        2.17481291535573        1.53024040115577
H           17.79387792371732       -2.44182439698945       -1.17843238691499
H           15.84526001203853       -3.79462293390797       -2.47546709954048
H           14.14617372418585       -1.48105906589019       -7.00094986322579
H           15.19475455802854       -0.39914503869032       -6.04662434497482
H           15.77610409959586       -2.03285191070532       -6.46148328226586
H           14.23961436159082       -3.93138051176493       -6.77533041030323
H           13.35136737603195       -6.17386835271917       -6.35301656496049
H           12.44195629752358       -6.78060389985414       -4.16225664153966
H           11.45208859318529       -6.35039423777682       -0.59173881895283
H           10.87957535636632       -6.63723866992674       -2.25578943169093
H           12.51516042743207       -7.19883155549946       -1.74508920499450
H           10.59522579823395       -2.91108227020668       -3.42120365912320
H            8.88412649076688       -1.49835729599918       -2.05918729189365
H           13.97857735012271        0.16332148313503        6.38741310159375
H           13.05951108321224        1.53551016502425        7.06003864013752
H           14.85620126184626        1.61885507226378        6.92773296788717
H           13.86271136699131        3.86474579733141        6.86088081359962
H           13.71033194762477        6.22715470937749        6.23199776762075
H           13.49143510450432        6.90140189727931        3.88743025064357
H           14.22257511924472        7.10472263649847        1.53747056800481
H           13.23296297961612        6.49566453440848        0.18472900492344
H           12.42510390246636        7.04870578635044        1.67530925132131
Ni          28.91574772013994        0.00932929753488        0.01199055569728
C           32.26722870111659       -0.03613917355091       -0.09760170598850
C           31.58970359162965       -0.78445657255978       -1.01415945926489
C           32.24308070197547       -1.60979885148287       -2.01283665263233
C           31.28211672907413       -2.16960294400744       -2.75915531412255
C           29.99945295559025       -1.70486421976246       -2.24697433299451
N           30.20453530844274       -0.84200007467794       -1.16228896057831
C           28.78668582834760       -2.03970279087650       -2.78918101343242
C           27.53853891022983       -1.56408037391036       -2.29435501627869