      -----------------------------------------------------------      
     |                   =====================                   |     
     |                           x T B                           |     
     |                   =====================                   |     
     |                         S. Grimme                         |     
     |          Mulliken Center for Theoretical Chemistry        |     
     |                    University of Bonn                     |     
      -----------------------------------------------------------      

   * xtb version 6.5.1 (b24c23e) compiled by 'conda@728c89f4b128' on 2022-07-12

   xtb is free software: you can redistribute it and/or modify it under
   the terms of the GNU Lesser General Public License as published by
   the Free Software Foundation, either version 3 of the License, or
   (at your option) any later version.
   
   xtb is distributed in the hope that it will be useful,
   but WITHOUT ANY WARRANTY; without even the implied warranty of
   MERCHANTABILITY or FITNESS FOR A PARTICULAR PURPOSE.  See the
   GNU Lesser General Public License for more details.
   
   Cite this work as:
   * C. Bannwarth, E. Caldeweyher, S. Ehlert, A. Hansen, P. Pracht,
     J. Seibert, S. Spicher, S. Grimme, WIREs Comput. Mol. Sci., 2020, 11,
     e01493. DOI: 10.1002/wcms.1493
   
   for GFN2-xTB:
   * C. Bannwarth, S. Ehlert and S. Grimme., J. Chem. Theory Comput., 2019,
     15, 1652-1671. DOI: 10.1021/acs.jctc.8b01176
   for GFN1-xTB:
   * S. Grimme, C. Bannwarth, P. Shushkov, J. Chem. Theory Comput., 2017,
     13, 1989-2009. DOI: 10.1021/acs.jctc.7b00118
   for GFN0-xTB:
   * P. Pracht, E. Caldeweyher, S. Ehlert, S. Grimme, ChemRxiv, 2019, preprint.
     DOI: 10.26434/chemrxiv.8326202.v1
   for GFN-FF:
   * S. Spicher and S. Grimme, Angew. Chem. Int. Ed., 2020, 59, 15665-15673.
     DOI: 10.1002/anie.202004239
   
   for ALPB and GBSA implicit solvation:
   * S. Ehlert, M. Stahn, S. Spicher, S. Grimme, J. Chem. Theory Comput.,
     2021, 17, 4250-4261. DOI: 10.1021/acs.jctc.1c00471
   
   for DFT-D4:
   * E. Caldeweyher, C. Bannwarth and S. Grimme, J. Chem. Phys., 2017,
     147, 034112. DOI: 10.1063/1.4993215
   * E. Caldeweyher, S. Ehlert, A. Hansen, H. Neugebauer, S. Spicher,
     C. Bannwarth and S. Grimme, J. Chem. Phys., 2019, 150, 154122.
     DOI: 10.1063/1.5090222
   * E. Caldeweyher, J.-M. Mewes, S. Ehlert and S. Grimme, Phys. Chem. Chem. Phys.
     2020, 22, 8499-8512. DOI: 10.1039/D0CP00502A
   
   for sTDA-xTB:
   * S. Grimme and C. Bannwarth, J. Chem. Phys., 2016, 145, 054103.
     DOI: 10.1063/1.4959605
   
   in the mass-spec context:
   * V. Asgeirsson, C. Bauer and S. Grimme, Chem. Sci., 2017, 8, 4879.
     DOI: 10.1039/c7sc00601b
   * J. Koopman and S. Grimme, ACS Omega 2019, 4, 12, 15120-15133.
     DOI: 10.1021/acsomega.9b02011
   
   for metadynamics refer to:
   * S. Grimme, J. Chem. Theory Comput., 2019, 155, 2847-2862
     DOI: 10.1021/acs.jctc.9b00143
   
   for SPH calculations refer to:
   * S. Spicher and S. Grimme, J. Chem. Theory Comput., 2021, 17, 1701-1714
     DOI: 10.1021/acs.jctc.0c01306
   
   with help from (in alphabetical order)
   P. Atkinson, C. Bannwarth, F. Bohle, G. Brandenburg, E. Caldeweyher
   M. Checinski, S. Dohm, S. Ehlert, S. Ehrlich, I. Gerasimov, C. Hölzer
   A. Katbashev, J. Koopman, C. Lavigne, S. Lehtola, F. März, M. Müller,
   F. Musil, H. Neugebauer, J. Pisarek, C. Plett, P. Pracht, F. Pultar,
   J. Seibert, P. Shushkov, S. Spicher, M. Stahn, M. Steiner, T. Strunk,
   J. Stückrath, T. Rose, and J. Unsleber
   
 * started run on 2022/07/30 at 04:41:20.981     

           -------------------------------------------------
          |                Calculation Setup                |
           -------------------------------------------------

          program call               : xtb Ni_C2Py_C4_3.xyz --gfn 1 --opt -T 48
          hostname                   : cx3-14-28.cx3.hpc.ic.ac.uk
          coordinate file            : Ni_C2Py_C4_3.xyz
          omp threads                :                     1

   ID    Z sym.   atoms
    1   28 Ni     1, 59, 125
    2    6 C      2-6, 8-13, 15-19, 21-26, 28-33, 35-40, 60-64, 66-71, 73-77,
                  79-84, 86-91, 93-98, 117-124, 126-130, 132-137, 139-143,
                  145-150, 152-157, 159-164
    3    7 N      7, 14, 20, 27, 34, 41, 65, 72, 78, 85, 92, 99, 131, 138,
                  144, 151, 158, 165
    4    1 H      42-58, 100-116, 166-181
########################################################################
[WARNING] Please study the warnings concerning your input carefully
-1- prog_main_parseArguments: Unknown option '-T' provided
########################################################################

           -------------------------------------------------
          |                 G F N 1 - x T B                 |
           -------------------------------------------------

        Reference                      10.1021/acs.jctc.7b00118
      * Hamiltonian:
        H0-scaling (s, p, d)           1.850000    2.250000    2.000000
        zeta-weighting                 0.000000
      * Dispersion:
        s8                             2.400000
        a1                             0.630000
        a2                             5.000000
        s9                             0.000000
      * Repulsion:
        kExp                           1.500000
        rExp                           1.000000
      * Coulomb:
        alpha                          2.000000
        third order                    atomic
        anisotropic                    false
      * Halogen bond correction:
        rad-scale                      1.300000
        damping                        0.440000


          ...................................................
          :                      SETUP                      :
          :.................................................:
          :  # basis functions                 642          :
          :  # atomic orbitals                 639          :
          :  # shells                          365          :
          :  # electrons                       610          :
          :  # halogen bonds                     0          :
          :  max. iterations                   250          :
          :  Hamiltonian                  GFN1-xTB          :
          :  restarted?                      false          :
          :  GBSA solvation                  false          :
          :  PC potential                    false          :
          :  electronic temp.          300.0000000     K    :
          :  accuracy                    1.0000000          :
          :  -> integral cutoff          0.2500000E+02      :
          :  -> integral neglect         0.1000000E-07      :
          :  -> SCF convergence          0.1000000E-05 Eh   :
          :  -> wf. convergence          0.2000000E-04 e    :
          :  Broyden damping             0.4000000          :
          ...................................................

 iter      E             dE          RMSdq      gap      omega  full diag
   1   -332.5015376 -0.332502E+03  0.108E+01    0.03       0.0  T
   2   -267.6377234  0.648638E+02  0.111E+01    0.04       1.0  T
   3   -294.1421102 -0.265044E+02  0.775E+00    0.04       1.0  T
   4    663.2395383  0.957382E+03  0.167E+01    0.03       1.0  T
   5    334.8292775 -0.328410E+03  0.141E+01    0.02       1.0  T
   6    -99.2708616 -0.434100E+03  0.954E+00    0.01       1.0  T
   7   -290.5221724 -0.191251E+03  0.663E+00    0.01       1.0  T
   8   -327.6116671 -0.370895E+02  0.417E+00    0.07       1.0  T
   9   -330.4618507 -0.285018E+01  0.357E+00    0.37       1.0  T
  10   -330.8341005 -0.372250E+00  0.345E+00    0.21       1.0  T
  11   -331.0359054 -0.201805E+00  0.326E+00    0.20       1.0  T
  12   -331.3936473 -0.357742E+00  0.293E+00    0.09       1.0  T
  13   -331.6097754 -0.216128E+00  0.272E+00    0.08       1.0  T
  14   -331.7621237 -0.152348E+00  0.261E+00    0.12       1.0  T
  15   -332.0112610 -0.249137E+00  0.248E+00    0.10       1.0  T
  16   -331.9843535  0.269075E-01  0.247E+00    0.14       1.0  T
  17   -330.5271562  0.145720E+01  0.198E+00    0.12       1.0  T
  18   -332.2976520 -0.177050E+01  0.141E+00    0.09       1.0  T
  19   -332.0200899  0.277562E+00  0.145E+00    0.04       1.0  T
  20   -333.2261829 -0.120609E+01  0.883E-01    0.25       1.0  T
  21   -333.2832741 -0.570912E-01  0.651E-01    0.42       1.0  T
  22   -333.3263283 -0.430542E-01  0.429E-01    0.54       1.0  T
  23   -333.3382756 -0.119473E-01  0.378E-01    0.65       1.0  T
  24   -333.3504839 -0.122083E-01  0.308E-01    0.56       1.0  T
  25   -333.3613881 -0.109041E-01  0.215E-01    0.35       1.0  T
  26   -333.3679974 -0.660931E-02  0.181E-01    0.39       1.0  T
  27   -333.3686605 -0.663096E-03  0.168E-01    0.22       1.0  T
  28   -333.3677434  0.917128E-03  0.168E-01    0.19       1.0  T
  29   -333.3721188 -0.437539E-02  0.138E-01    0.21       1.0  T
  30   -333.3757849 -0.366611E-02  0.120E-01    0.28       1.0  T
  31   -333.3774260 -0.164117E-02  0.109E-01    0.34       1.0  T
  32   -333.3787039 -0.127787E-02  0.950E-02    0.41       1.0  T
  33   -333.3796915 -0.987584E-03  0.813E-02    0.48       1.0  T
  34   -333.3804925 -0.801027E-03  0.682E-02    0.55       1.0  T
  35   -333.3810335 -0.540946E-03  0.575E-02    0.59       1.0  T
  36   -333.3814146 -0.381159E-03  0.483E-02    0.59       1.0  T
  37   -333.3818651 -0.450436E-03  0.337E-02    0.59       1.0  T
  38   -333.3821101 -0.245075E-03  0.219E-02    0.59       1.0  T
  39   -333.3822068 -0.966487E-04  0.158E-02    0.59       1.0  T
  40   -333.3822624 -0.556479E-04  0.112E-02    0.59       1.0  T
  41   -333.3822942 -0.317704E-04  0.791E-03    0.59       1.0  T
  42   -333.3823084 -0.142396E-04  0.649E-03    0.59       1.1  T
  43   -333.3823136 -0.512134E-05  0.608E-03    0.59       1.2  T
  44   -333.3823257 -0.120886E-04  0.503E-03    0.59       1.5  T
  45   -333.3823350 -0.931534E-05  0.301E-03    0.60       2.5  T
  46   -333.3823386 -0.360370E-05  0.150E-03    0.60       5.0  T
  47   -333.3823393 -0.745501E-06  0.794E-04    0.60       9.4  T
  48   -333.3823395 -0.205502E-06  0.399E-04    0.60      18.6  T
  49   -333.3823396 -0.645970E-07  0.155E-04    0.60      47.9  T
  50   -333.3823396 -0.800799E-08  0.130E-04    0.60      57.2  T

   *** convergence criteria satisfied after 50 iterations ***

         #    Occupation            Energy/Eh            Energy/eV
      -------------------------------------------------------------
         1        2.0000           -0.7883549             -21.4522
       ...           ...                  ...                  ...
       299        2.0000           -0.4024400             -10.9510
       300        2.0000           -0.4002738             -10.8920
       301        2.0000           -0.3961052             -10.7786
       302        2.0000           -0.3953673             -10.7585
       303        2.0000           -0.3913587             -10.6494
       304        2.0000           -0.3906480             -10.6301
       305        2.0000           -0.3789733             -10.3124 (HOMO)
       306        0.0000           -0.3570690              -9.7163 (LUMO)
       307                         -0.3470559              -9.4439
       308                         -0.3455464              -9.4028
       309                         -0.3453704              -9.3980
       310                         -0.3444026              -9.3717
       ...                                ...                  ...
       639                          1.3555568              36.8866
      -------------------------------------------------------------
                  HL-Gap            0.0219044 Eh            0.5960 eV
             Fermi-level           -0.3680212 Eh          -10.0144 eV

 SCC (total)                   0 d,  0 h,  0 min, 11.142 sec
 SCC setup                      ...        0 min,  0.013 sec (  0.120%)
 Dispersion                     ...        0 min,  0.012 sec (  0.104%)
 classical contributions        ...        0 min,  0.004 sec (  0.033%)
 integral evaluation            ...        0 min,  0.324 sec (  2.906%)
 iterations                     ...        0 min,  9.899 sec ( 88.845%)
 molecular gradient             ...        0 min,  0.842 sec (  7.559%)
 printout                       ...        0 min,  0.048 sec (  0.432%)

         :::::::::::::::::::::::::::::::::::::::::::::::::::::
         ::                     SUMMARY                     ::
         :::::::::::::::::::::::::::::::::::::::::::::::::::::
         :: total energy            -328.098702696116 Eh    ::
         :: gradient norm              0.666925567910 Eh/a0 ::
         :: HOMO-LUMO gap              0.596047917957 eV    ::
         ::.................................................::
         :: SCC energy              -333.382339598399 Eh    ::
         :: -> electrostatic           0.250328874742 Eh    ::
         :: repulsion energy           5.435447957366 Eh    ::
         :: dispersion energy         -0.151811055083 Eh    ::
         :: halogen bond corr.         0.000000000000 Eh    ::
         :: add. restraining           0.000000000000 Eh    ::
         :: total charge              -0.000000000653 e     ::
         :::::::::::::::::::::::::::::::::::::::::::::::::::::

      ----------------------------------------------------------- 
     |                   =====================                   |
     |                        A N C O P T                        |
     |                   =====================                   |
     |               Approximate Normal Coordinate               |
     |                Rational Function Optimizer                |
      ----------------------------------------------------------- 

          ...................................................
          :                      SETUP                      :
          :.................................................:
          :   optimization level            normal          :
          :   max. optcycles                   543          :
          :   ANC micro-cycles                  20          :
          :   degrees of freedom               537          :
          :.................................................:
          :   RF solver                   davidson          :
          :   write xtbopt.log                true          :
          :   linear?                        false          :
          :   energy convergence         0.5000000E-05 Eh   :
          :   grad. convergence          0.1000000E-02 Eh/α :
          :   maximium RF displ.         1.0000000          :
          :   Hlow (freq-cutoff)         0.1000000E-01      :
          :   Hmax (freq-cutoff)         5.0000000          :
          :   S6 in model hess.         20.0000000          :
          ...................................................

generating ANC from model Hessian ...
Using Lindh-Hessian (1995)
 Shifting diagonal of input Hessian by    1.0065831014052635E-002
 Lowest  eigenvalues of input Hessian
    0.010000    0.010032    0.010040    0.010050    0.010053    0.010057
    0.010060    0.000000    0.000000    0.000000    0.000000    0.000000
    0.000000    0.010070    0.010096    0.010098    0.010106    0.010134
 Highest eigenvalues
    2.589091    2.591551    2.591553    2.592995    2.592997    2.594561


........................................................................
.............................. CYCLE    1 ..............................
........................................................................
   1   -333.3823396 -0.333382E+03  0.107E-04    0.60       0.0  T
   2   -333.3823396  0.217642E-08  0.173E-04    0.60      42.9  T
   3   -333.3823396 -0.914872E-08  0.662E-05    0.60     112.4  T
     SCC iter.                  ...        0 min,  0.594 sec
     gradient                   ...        0 min,  0.813 sec
 * total energy  :  -328.0987027 Eh     change       -0.1106991E-07 Eh
   gradient norm :     0.6669264 Eh/α   predicted     0.0000000E+00 (-100.00%)
   displ. norm   :     0.5732319 α      lambda       -0.3067708E+00
   maximum displ.:     0.1355979 α      in ANC's #343, #419, #441, ...

........................................................................
.............................. CYCLE    2 ..............................
........................................................................
   1   -333.5253071 -0.333525E+03  0.153E-01    0.81       0.0  T
   2   -333.5263708 -0.106379E-02  0.114E-01    0.78       1.0  T
   3   -333.5295623 -0.319142E-02  0.686E-02    0.82       1.0  T
   4   -333.5307548 -0.119258E-02  0.330E-02    0.80       1.0  T
   5   -333.5308198 -0.649851E-04  0.164E-02    0.81       1.0  T
   6   -333.5308988 -0.789777E-04  0.961E-03    0.80       1.0  T
   7   -333.5309744 -0.756111E-04  0.188E-03    0.80       3.9  T
   8   -333.5309760 -0.153148E-05  0.811E-04    0.80       9.2  T
   9   -333.5309763 -0.314803E-06  0.359E-04    0.80      20.7  T
  10   -333.5309763 -0.325143E-07  0.166E-04    0.80      44.8  T
  11   -333.5309763 -0.813742E-08  0.548E-05    0.80     135.6  T
     SCC iter.                  ...        0 min,  2.099 sec
     gradient                   ...        0 min,  0.815 sec
 * total energy  :  -328.3590241 Eh     change       -0.2603214E+00 Eh
   gradient norm :     0.4299612 Eh/α   predicted    -0.2038546E+00 ( -21.69%)
   displ. norm   :     0.7009997 α      lambda       -0.2582820E+00
   maximum displ.:     0.1641121 α      in ANC's #343, #419, #345, ...

........................................................................
.............................. CYCLE    3 ..............................
........................................................................
   1   -333.7807556 -0.333781E+03  0.174E-01    1.08       0.0  T
   2   -333.7839268 -0.317112E-02  0.929E-02    1.05       1.0  T
   3   -333.7861652 -0.223846E-02  0.603E-02    1.08       1.0  T
   4   -333.7874838 -0.131855E-02  0.342E-02    1.07       1.0  T
   5   -333.7877401 -0.256348E-03  0.154E-02    1.07       1.0  T
   6   -333.7878127 -0.725898E-04  0.767E-03    1.07       1.0  T
   7   -333.7878619 -0.491539E-04  0.120E-03    1.07       6.2  T
   8   -333.7878624 -0.505996E-06  0.398E-04    1.07      18.7  T
   9   -333.7878624 -0.240392E-07  0.189E-04    1.07      39.4  T
  10   -333.7878624 -0.115409E-07  0.868E-05    1.07      85.6  T
     SCC iter.                  ...        0 min,  1.865 sec
     gradient                   ...        0 min,  0.834 sec
 * total energy  :  -328.5058485 Eh     change       -0.1468244E+00 Eh
   gradient norm :     0.3330768 Eh/α   predicted    -0.1926009E+00 (  31.18%)
   displ. norm   :     0.6473223 α      lambda       -0.1264431E+00
   maximum displ.:     0.1714347 α      in ANC's #105, #171, #163, ...

........................................................................
.............................. CYCLE    4 ..............................
........................................................................
   1   -333.8379561 -0.333838E+03  0.733E-02    1.14       0.0  T
   2   -333.8382735 -0.317449E-03  0.568E-02    1.13       1.0  T
   3   -333.8389316 -0.658055E-03  0.242E-02    1.13       1.0  T
   4   -333.8388902  0.414003E-04  0.232E-02    1.13       1.0  T
   5   -333.8390804 -0.190212E-03  0.514E-03    1.13       1.4  T
   6   -333.8390892 -0.877388E-05  0.208E-03    1.13       3.6  T
   7   -333.8390923 -0.308876E-05  0.687E-04    1.13      10.8  T
   8   -333.8390926 -0.327825E-06  0.174E-04    1.13      42.8  T
   9   -333.8390926 -0.492645E-08  0.704E-05    1.13     105.6  T
     SCC iter.                  ...        0 min,  1.783 sec
     gradient                   ...        0 min,  0.873 sec
 * total energy  :  -328.5935231 Eh     change       -0.8767454E-01 Eh
   gradient norm :     0.1395438 Eh/α   predicted    -0.8971303E-01 (   2.33%)
   displ. norm   :     0.7372329 α      lambda       -0.7408590E-01
   maximum displ.:     0.2279611 α      in ANC's #105, #66, #117, ...

........................................................................
.............................. CYCLE    5 ..............................
........................................................................
   1   -333.9205322 -0.333921E+03  0.644E-02    1.21       0.0  T
   2   -333.9204619  0.702965E-04  0.575E-02    1.21       1.0  T
   3   -333.9212947 -0.832849E-03  0.214E-02    1.21       1.0  T
   4   -333.9211907  0.104046E-03  0.210E-02    1.21       1.0  T
   5   -333.9213627 -0.171977E-03  0.446E-03    1.21       1.7  T
   6   -333.9213679 -0.521283E-05  0.111E-03    1.21       6.7  T
   7   -333.9213686 -0.748931E-06  0.502E-04    1.21      14.8  T
   8   -333.9213688 -0.175509E-06  0.161E-04    1.21      46.2  T
   9   -333.9213688 -0.872484E-08  0.662E-05    1.21     112.3  T
     SCC iter.                  ...        0 min,  1.678 sec
     gradient                   ...        0 min,  0.824 sec
 * total energy  :  -328.6486845 Eh     change       -0.5516144E-01 Eh
   gradient norm :     0.1091768 Eh/α   predicted    -0.5717627E-01 (   3.65%)
   displ. norm   :     0.6872675 α      lambda       -0.4201487E-01
   maximum displ.:     0.2489783 α      in ANC's #66, #105, #117, ...

........................................................................
.............................. CYCLE    6 ..............................
........................................................................
   1   -333.9944065 -0.333994E+03  0.353E-02    1.24       0.0  T
   2   -333.9943900  0.165150E-04  0.313E-02    1.25       1.0  T
   3   -333.9946560 -0.266092E-03  0.118E-02    1.25       1.0  T
   4   -333.9946337  0.223643E-04  0.111E-02    1.25       1.0  T
   5   -333.9946781 -0.443727E-04  0.239E-03    1.25       3.1  T
   6   -333.9946805 -0.249259E-05  0.527E-04    1.25      14.1  T
   7   -333.9946806 -0.945880E-07  0.231E-04    1.25      32.1  T
   8   -333.9946807 -0.275979E-07  0.103E-04    1.25      72.1  T
   9   -333.9946807 -0.609049E-08  0.380E-05    1.25     195.8  T
     SCC iter.                  ...        0 min,  1.669 sec
     gradient                   ...        0 min,  0.830 sec
 * total energy  :  -328.6805985 Eh     change       -0.3191403E-01 Eh
   gradient norm :     0.0783667 Eh/α   predicted    -0.3093008E-01 (  -3.08%)
   displ. norm   :     0.6820161 α      lambda       -0.2980378E-01
   maximum displ.:     0.2530045 α      in ANC's #66, #64, #117, ...

........................................................................
.............................. CYCLE    7 ..............................
........................................................................
   1   -334.0569301 -0.334057E+03  0.290E-02    1.26       0.0  T
   2   -334.0570397 -0.109613E-03  0.205E-02    1.27       1.0  T
   3   -334.0571285 -0.888069E-04  0.104E-02    1.27       1.0  T
   4   -334.0571106  0.178960E-04  0.860E-03    1.27       1.0  T
   5   -334.0571461 -0.354580E-04  0.242E-03    1.27       3.1  T
   6   -334.0571474 -0.135981E-05  0.456E-04    1.27      16.3  T
   7   -334.0571475 -0.629035E-07  0.179E-04    1.27      41.5  T
   8   -334.0571475 -0.737759E-08  0.110E-04    1.27      67.3  T
     SCC iter.                  ...        0 min,  1.528 sec
     gradient                   ...        0 min,  0.889 sec
 * total energy  :  -328.7026226 Eh     change       -0.2202408E-01 Eh
   gradient norm :     0.0631296 Eh/α   predicted    -0.2183345E-01 (  -0.87%)
   displ. norm   :     0.7119767 α      lambda       -0.1949160E-01
   maximum displ.:     0.2708472 α      in ANC's #64, #66, #36, ...

........................................................................
.............................. CYCLE    8 ..............................
........................................................................
   1   -334.1105219 -0.334111E+03  0.191E-02    1.27       0.0  T
   2   -334.1105507 -0.287556E-04  0.136E-02    1.28       1.0  T
   3   -334.1105890 -0.382732E-04  0.630E-03    1.28       1.2  T
   4   -334.1105824  0.652858E-05  0.507E-03    1.28       1.5  T
   5   -334.1105944 -0.120062E-04  0.146E-03    1.28       5.1  T
   6   -334.1105955 -0.103342E-05  0.219E-04    1.28      34.0  T
   7   -334.1105955 -0.119649E-07  0.134E-04    1.28      55.4  T
   8   -334.1105955 -0.923052E-08  0.616E-05    1.28     120.7  T
     SCC iter.                  ...        0 min,  1.518 sec
     gradient                   ...        0 min,  0.771 sec
 * total energy  :  -328.7159438 Eh     change       -0.1332120E-01 Eh
   gradient norm :     0.0474011 Eh/α   predicted    -0.1468605E-01 (  10.25%)
   displ. norm   :     0.7748286 α      lambda       -0.1713018E-01
   maximum displ.:     0.2814144 α      in ANC's #64, #66, #30, ...

........................................................................
.............................. CYCLE    9 ..............................
........................................................................
   1   -334.1467176 -0.334147E+03  0.157E-02    1.27       0.0  T
   2   -334.1467350 -0.174523E-04  0.116E-02    1.27       1.0  T
   3   -334.1467606 -0.256136E-04  0.524E-03    1.27       1.4  T
   4   -334.1467550  0.561555E-05  0.405E-03    1.27       1.8  T
   5   -334.1467629 -0.785459E-05  0.120E-03    1.27       6.2  T
   6   -334.1467635 -0.669152E-06  0.285E-04    1.27      26.1  T
   7   -334.1467636 -0.510915E-07  0.121E-04    1.27      61.5  T
   8   -334.1467636 -0.825582E-08  0.411E-05    1.27     180.9  T
     SCC iter.                  ...        0 min,  1.635 sec
     gradient                   ...        0 min,  0.874 sec
 * total energy  :  -328.7243973 Eh     change       -0.8453527E-02 Eh
   gradient norm :     0.0474890 Eh/α   predicted    -0.1370723E-01 (  62.15%)
   displ. norm   :     0.5914532 α      lambda       -0.1181255E-01
   maximum displ.:     0.2330585 α      in ANC's #66, #29, #64, ...

........................................................................
.............................. CYCLE   10 ..............................
........................................................................
   1   -334.1918388 -0.334192E+03  0.176E-02    1.27       0.0  T
   2   -334.1918465 -0.778856E-05  0.153E-02    1.27       1.0  T
   3   -334.1918909 -0.443254E-04  0.663E-03    1.27       1.1  T
   4   -334.1918791  0.117478E-04  0.584E-03    1.27       1.3  T
   5   -334.1918944 -0.152261E-04  0.114E-03    1.27       6.5  T
   6   -334.1918948 -0.498549E-06  0.400E-04    1.27      18.6  T
   7   -334.1918950 -0.136564E-06  0.971E-05    1.27      76.5  T
   8   -334.1918950 -0.622742E-08  0.293E-05    1.27     253.8  T
     SCC iter.                  ...        0 min,  1.410 sec
     gradient                   ...        0 min,  0.786 sec
 * total energy  :  -328.7315918 Eh     change       -0.7194485E-02 Eh
   gradient norm :     0.0342454 Eh/α   predicted    -0.7972403E-02 (  10.81%)
   displ. norm   :     0.6214106 α      lambda       -0.7559866E-02
   maximum displ.:     0.2580387 α      in ANC's #30, #36, #64, ...

........................................................................
.............................. CYCLE   11 ..............................
........................................................................
   1   -334.2204013 -0.334220E+03  0.127E-02    1.28       0.0  T
   2   -334.2204063 -0.494306E-05  0.116E-02    1.28       1.0  T
   3   -334.2204380 -0.317758E-04  0.458E-03    1.28       1.6  T
   4   -334.2204329  0.516846E-05  0.414E-03    1.28       1.8  T
   5   -334.2204395 -0.658686E-05  0.985E-04    1.28       7.5  T
   6   -334.2204398 -0.313977E-06  0.265E-04    1.28      28.1  T
   7   -334.2204398 -0.432366E-07  0.105E-04    1.28      70.9  T
   8   -334.2204398 -0.796587E-08  0.325E-05    1.28     228.7  T
     SCC iter.                  ...        0 min,  1.549 sec
     gradient                   ...        0 min,  0.881 sec
 * total energy  :  -328.7351146 Eh     change       -0.3522818E-02 Eh
   gradient norm :     0.0395440 Eh/α   predicted    -0.5239573E-02 (  48.73%)
   displ. norm   :     0.6252993 α      lambda       -0.7677433E-02
   maximum displ.:     0.3683265 α      in ANC's #29, #28, #66, ...

........................................................................
.............................. CYCLE   12 ..............................
........................................................................
   1   -334.2469647 -0.334247E+03  0.159E-02    1.28       0.0  T
   2   -334.2469757 -0.110355E-04  0.149E-02    1.28       1.0  T
   3   -334.2470199 -0.442000E-04  0.515E-03    1.28       1.4  T
   4   -334.2470092  0.106773E-04  0.537E-03    1.28       1.4  T
   5   -334.2470214 -0.121244E-04  0.122E-03    1.28       6.1  T
   6   -334.2470216 -0.284335E-06  0.366E-04    1.28      20.3  T
   7   -334.2470217 -0.979326E-07  0.107E-04    1.28      69.6  T
   8   -334.2470217 -0.880476E-08  0.263E-05    1.28     283.0  T
     SCC iter.                  ...        0 min,  1.621 sec
     gradient                   ...        0 min,  0.902 sec
 * total energy  :  -328.7372774 Eh     change       -0.2162753E-02 Eh
   gradient norm :     0.0415886 Eh/α   predicted    -0.5339653E-02 ( 146.89%)
   displ. norm   :     0.4421510 α      lambda       -0.6324612E-02
   maximum displ.:     0.2030947 α      in ANC's #29, #30, #35, ...

........................................................................
.............................. CYCLE   13 ..............................
........................................................................
   1   -334.2603714 -0.334260E+03  0.138E-02    1.27       0.0  T
   2   -334.2603764 -0.498079E-05  0.131E-02    1.27       1.0  T
   3   -334.2604075 -0.311225E-04  0.466E-03    1.27       1.6  T
   4   -334.2603969  0.106163E-04  0.500E-03    1.27       1.5  T
   5   -334.2604085 -0.116186E-04  0.957E-04    1.27       7.8  T
   6   -334.2604088 -0.279860E-06  0.292E-04    1.27      25.5  T
   7   -334.2604089 -0.653034E-07  0.752E-05    1.27      98.8  T
   8   -334.2604089 -0.401377E-08  0.236E-05    1.27     315.0  T
     SCC iter.                  ...        0 min,  1.624 sec
     gradient                   ...        0 min,  0.888 sec
 * total energy  :  -328.7406108 Eh     change       -0.3333422E-02 Eh
   gradient norm :     0.0331257 Eh/α   predicted    -0.3780547E-02 (  13.41%)
   displ. norm   :     0.5353188 α      lambda       -0.4459898E-02
   maximum displ.:     0.2479850 α      in ANC's #30, #29, #36, ...

........................................................................
.............................. CYCLE   14 ..............................
........................................................................
   1   -334.2684448 -0.334268E+03  0.140E-02    1.28       0.0  T
   2   -334.2684537 -0.893441E-05  0.136E-02    1.28       1.0  T
   3   -334.2684892 -0.354613E-04  0.460E-03    1.28       1.6  T
   4   -334.2684808  0.837882E-05  0.483E-03    1.28       1.5  T
   5   -334.2684901 -0.923178E-05  0.103E-03    1.28       7.2  T
   6   -334.2684903 -0.195019E-06  0.268E-04    1.28      27.8  T
   7   -334.2684903 -0.439961E-07  0.929E-05    1.28      80.0  T
   8   -334.2684903 -0.697480E-08  0.238E-05    1.28     312.0  T
     SCC iter.                  ...        0 min,  1.571 sec
     gradient                   ...        0 min,  0.845 sec
 * total energy  :  -328.7415923 Eh     change       -0.9814686E-03 Eh
   gradient norm :     0.0474742 Eh/α   predicted    -0.2868983E-02 ( 192.32%)
   displ. norm   :     0.4439977 α      lambda       -0.4526666E-02
   maximum displ.:     0.2379808 α      in ANC's #29, #30, #35, ...

........................................................................
.............................. CYCLE   15 ..............................
........................................................................
   1   -334.2815611 -0.334282E+03  0.111E-02    1.28       0.0  T
   2   -334.2815609  0.259141E-06  0.113E-02    1.28       1.0  T
   3   -334.2815877 -0.268215E-04  0.383E-03    1.28       1.9  T
   4   -334.2815803  0.739517E-05  0.425E-03    1.28       1.7  T
   5   -334.2815882 -0.789869E-05  0.892E-04    1.28       8.3  T
   6   -334.2815884 -0.212491E-06  0.262E-04    1.28      28.3  T
   7   -334.2815885 -0.515166E-07  0.657E-05    1.28     113.2  T
   8   -334.2815885 -0.244165E-08  0.178E-05    1.28     418.7  T
     SCC iter.                  ...        0 min,  1.545 sec
     gradient                   ...        0 min,  0.830 sec
 * total energy  :  -328.7445240 Eh     change       -0.2931735E-02 Eh
   gradient norm :     0.0187597 Eh/α   predicted    -0.2709514E-02 (  -7.58%)
   displ. norm   :     0.6101581 α      lambda       -0.2685752E-02
   maximum displ.:     0.3802979 α      in ANC's #29, #30, #28, ...

........................................................................
.............................. CYCLE   16 ..............................
........................................................................
   1   -334.2942384 -0.334294E+03  0.738E-03    1.28       0.0  T
   2   -334.2942430 -0.464329E-05  0.578E-03    1.28       1.3  T
   3   -334.2942480 -0.495485E-05  0.223E-03    1.28       3.3  T
   4   -334.2942469  0.112646E-05  0.186E-03    1.28       4.0  T
   5   -334.2942481 -0.121029E-05  0.535E-04    1.28      13.9  T
   6   -334.2942482 -0.128551E-06  0.123E-04    1.28      60.2  T
   7   -334.2942482 -0.743239E-08  0.305E-05    1.28     243.5  T
     SCC iter.                  ...        0 min,  1.322 sec
     gradient                   ...        0 min,  0.812 sec
 * total energy  :  -328.7465962 Eh     change       -0.2072191E-02 Eh
   gradient norm :     0.0148833 Eh/α   predicted    -0.1842828E-02 ( -11.07%)
   displ. norm   :     0.7570316 α      lambda       -0.2462931E-02
   maximum displ.:     0.4314448 α      in ANC's #29, #30, #36, ...

........................................................................
.............................. CYCLE   17 ..............................
........................................................................
   1   -334.3032893 -0.334303E+03  0.581E-03    1.29       0.0  T
   2   -334.3032905 -0.122289E-05  0.425E-03    1.29       1.7  T
   3   -334.3032960 -0.550202E-05  0.158E-03    1.29       4.7  T
   4   -334.3032963 -0.284835E-06  0.146E-03    1.29       5.1  T
   5   -334.3032970 -0.688780E-06  0.285E-04    1.29      26.1  T
   6   -334.3032970 -0.333540E-07  0.102E-04    1.29      72.9  T
   7   -334.3032971 -0.583049E-08  0.372E-05    1.29     199.7  T
     SCC iter.                  ...        0 min,  1.314 sec
     gradient                   ...        0 min,  0.843 sec
 * total energy  :  -328.7485986 Eh     change       -0.2002434E-02 Eh
   gradient norm :     0.0111329 Eh/α   predicted    -0.1937220E-02 (  -3.26%)
   displ. norm   :     0.7897879 α      lambda       -0.2391535E-02
   maximum displ.:     0.4483340 α      in ANC's #29, #30, #33, ...

........................................................................
.............................. CYCLE   18 ..............................
........................................................................
   1   -334.3098336 -0.334310E+03  0.561E-03    1.29       0.0  T
   2   -334.3098354 -0.176158E-05  0.355E-03    1.29       2.1  T
   3   -334.3098383 -0.295817E-05  0.165E-03    1.29       4.5  T
   4   -334.3098389 -0.506443E-06  0.132E-03    1.29       5.6  T
   5   -334.3098394 -0.547112E-06  0.280E-04    1.29      26.5  T
   6   -334.3098394 -0.363991E-07  0.567E-05    1.29     131.1  T
   7   -334.3098394 -0.811667E-09  0.267E-05    1.29     278.5  T
     SCC iter.                  ...        0 min,  1.372 sec
     gradient                   ...        0 min,  0.886 sec
 * total energy  :  -328.7500495 Eh     change       -0.1450883E-02 Eh
   gradient norm :     0.0129616 Eh/α   predicted    -0.1941648E-02 (  33.83%)
   displ. norm   :     0.6438389 α      lambda       -0.1852562E-02
   maximum displ.:     0.3460195 α      in ANC's #29, #36, #30, ...

........................................................................
.............................. CYCLE   19 ..............................
........................................................................
   1   -334.3168682 -0.334317E+03  0.560E-03    1.29       0.0  T
   2   -334.3168689 -0.725974E-06  0.445E-03    1.29       1.7  T
   3   -334.3168732 -0.429255E-05  0.166E-03    1.29       4.5  T
   4   -334.3168726  0.601011E-06  0.158E-03    1.29       4.7  T
   5   -334.3168737 -0.108556E-05  0.395E-04    1.29      18.8  T
   6   -334.3168737 -0.472945E-07  0.104E-04    1.29      71.7  T
   7   -334.3168737 -0.703335E-08  0.319E-05    1.29     233.2  T
     SCC iter.                  ...        0 min,  1.336 sec
     gradient                   ...        0 min,  0.833 sec
 * total energy  :  -328.7512624 Eh     change       -0.1212919E-02 Eh
   gradient norm :     0.0096261 Eh/α   predicted    -0.1310245E-02 (   8.02%)
   displ. norm   :     0.6212577 α      lambda       -0.1079409E-02
   maximum displ.:     0.3372675 α      in ANC's #29, #30, #17, ...

........................................................................
.............................. CYCLE   20 ..............................
........................................................................
   1   -334.3251064 -0.334325E+03  0.480E-03    1.29       0.0  T
   2   -334.3251083 -0.191058E-05  0.365E-03    1.29       2.0  T
   3   -334.3251106 -0.227941E-05  0.140E-03    1.29       5.3  T
   4   -334.3251099  0.624130E-06  0.138E-03    1.29       5.4  T
   5   -334.3251108 -0.821932E-06  0.286E-04    1.29      26.0  T
   6   -334.3251108 -0.311670E-07  0.684E-05    1.29     108.6  T
   7   -334.3251108 -0.257785E-08  0.258E-05    1.29     288.5  T
     SCC iter.                  ...        0 min,  1.315 sec
     gradient                   ...        0 min,  0.818 sec
 * total energy  :  -328.7520108 Eh     change       -0.7483091E-03 Eh
   gradient norm :     0.0081894 Eh/α   predicted    -0.7480099E-03 (  -0.04%)
   displ. norm   :     0.5926959 α      lambda       -0.7337155E-03
   maximum displ.:     0.3050115 α      in ANC's #29, #30, #17, ...
 * RMSD in coord.:     0.6629764 α      energy gain  -0.6533081E+00 Eh

generating ANC from model Hessian ...
Using Lindh-Hessian (1995)
 Shifting diagonal of input Hessian by    1.0033141109999817E-002
 Lowest  eigenvalues of input Hessian
    0.010000    0.010008    0.010020    0.010023    0.010025    0.010027
    0.000000    0.000000    0.000000    0.000000    0.000000    0.000000
    0.010057    0.010058    0.010079    0.010091    0.010098    0.010107
 Highest eigenvalues
    2.640735    2.641546    2.644043    2.644513    2.875750    2.881074


........................................................................
.............................. CYCLE   21 ..............................
........................................................................
   1   -334.3336917 -0.334334E+03  0.303E-03    1.29       0.0  T
   2   -334.3336926 -0.826738E-06  0.186E-03    1.29       4.0  T
   3   -334.3336931 -0.544717E-06  0.106E-03    1.29       7.0  T
   4   -334.3336931 -0.377375E-07  0.712E-04    1.29      10.4  T
   5   -334.3336933 -0.200793E-06  0.231E-04    1.29      32.2  T
   6   -334.3336934 -0.274998E-07  0.484E-05    1.29     153.7  T
   7   -334.3336934 -0.995101E-09  0.248E-05    1.29     299.8  T
     SCC iter.                  ...        0 min,  1.327 sec
     gradient                   ...        0 min,  0.847 sec
 * total energy  :  -328.7525540 Eh     change       -0.5432252E-03 Eh
   gradient norm :     0.0077748 Eh/α   predicted     0.0000000E+00 (-100.00%)
   displ. norm   :     0.1071121 α      lambda       -0.2190845E-03
   maximum displ.:     0.0568476 α      in ANC's #15, #16, #42, ...

........................................................................
.............................. CYCLE   22 ..............................
........................................................................
   1   -334.3336563 -0.334334E+03  0.144E-03    1.29       0.0  T
   2   -334.3336565 -0.218976E-06  0.124E-03    1.29       6.0  T
   3   -334.3336568 -0.300378E-06  0.517E-04    1.29      14.4  T
   4   -334.3336568  0.656171E-07  0.438E-04    1.29      17.0  T
   5   -334.3336568 -0.707414E-07  0.145E-04    1.29      51.1  T
   6   -334.3336569 -0.979338E-08  0.275E-05    1.29     270.8  T
     SCC iter.                  ...        0 min,  1.232 sec
     gradient                   ...        0 min,  0.835 sec
 * total energy  :  -328.7527426 Eh     change       -0.1885906E-03 Eh
   gradient norm :     0.0049772 Eh/α   predicted    -0.1135200E-03 ( -39.81%)
   displ. norm   :     0.4154043 α      lambda       -0.6667373E-03
   maximum displ.:     0.2062263 α      in ANC's #15, #16, #42, ...

........................................................................
.............................. CYCLE   23 ..............................
........................................................................
   1   -334.3326427 -0.334333E+03  0.398E-03    1.28       0.0  T
   2   -334.3326447 -0.195428E-05  0.321E-03    1.28       2.3  T
   3   -334.3326469 -0.221019E-05  0.130E-03    1.28       5.7  T
   4   -334.3326466  0.326927E-06  0.113E-03    1.28       6.6  T
   5   -334.3326470 -0.417839E-06  0.406E-04    1.28      18.3  T
   6   -334.3326470 -0.685839E-07  0.783E-05    1.28      94.9  T
   7   -334.3326470 -0.340327E-08  0.259E-05    1.28     287.3  T
     SCC iter.                  ...        0 min,  1.262 sec
     gradient                   ...        0 min,  0.762 sec
 * total energy  :  -328.7531650 Eh     change       -0.4224737E-03 Eh
   gradient norm :     0.0100424 Eh/α   predicted    -0.3908951E-03 (  -7.47%)
   displ. norm   :     0.4392307 α      lambda       -0.5628838E-03
   maximum displ.:     0.2265434 α      in ANC's #15, #16, #42, ...

........................................................................
.............................. CYCLE   24 ..............................
........................................................................
   1   -334.3314369 -0.334331E+03  0.209E-03    1.27       0.0  T
   2   -334.3314374 -0.559051E-06  0.127E-03    1.27       5.9  T
   3   -334.3314379 -0.443497E-06  0.543E-04    1.27      13.7  T
   4   -334.3314379 -0.498402E-07  0.404E-04    1.27      18.4  T
   5   -334.3314380 -0.489426E-07  0.144E-04    1.27      51.7  T
   6   -334.3314380 -0.569639E-08  0.313E-05    1.27     237.7  T
     SCC iter.                  ...        0 min,  1.312 sec
     gradient                   ...        0 min,  0.838 sec
 * total energy  :  -328.7535101 Eh     change       -0.3450968E-03 Eh
   gradient norm :     0.0128781 Eh/α   predicted    -0.3357475E-03 (  -2.71%)
   displ. norm   :     0.3868040 α      lambda       -0.4599148E-03
   maximum displ.:     0.2051885 α      in ANC's #15, #16, #42, ...

........................................................................
.............................. CYCLE   25 ..............................
........................................................................
   1   -334.3317000 -0.334332E+03  0.174E-03    1.27       0.0  T
   2   -334.3317003 -0.237712E-06  0.136E-03    1.27       5.5  T
   3   -334.3317005 -0.248285E-06  0.586E-04    1.27      12.7  T
   4   -334.3317004  0.835215E-07  0.472E-04    1.27      15.7  T
   5   -334.3317005 -0.895870E-07  0.146E-04    1.27      51.0  T
   6   -334.3317005 -0.121369E-07  0.295E-05    1.27     252.2  T
     SCC iter.                  ...        0 min,  1.089 sec
     gradient                   ...        0 min,  0.867 sec
 * total energy  :  -328.7538751 Eh     change       -0.3649238E-03 Eh
   gradient norm :     0.0103237 Eh/α   predicted    -0.2643632E-03 ( -27.56%)
   displ. norm   :     0.5047791 α      lambda       -0.6317174E-03
   maximum displ.:     0.2705392 α      in ANC's #15, #16, #35, ...

........................................................................
.............................. CYCLE   26 ..............................
........................................................................
   1   -334.3332548 -0.334333E+03  0.336E-03    1.27       0.0  T
   2   -334.3332559 -0.115937E-05  0.280E-03    1.27       2.7  T
   3   -334.3332575 -0.154418E-05  0.122E-03    1.27       6.1  T
   4   -334.3332570  0.427766E-06  0.109E-03    1.27       6.8  T
   5   -334.3332576 -0.513557E-06  0.322E-04    1.27      23.1  T
   6   -334.3332576 -0.374420E-07  0.593E-05    1.27     125.3  T
   7   -334.3332576 -0.194268E-08  0.220E-05    1.27     338.4  T
     SCC iter.                  ...        0 min,  1.370 sec
     gradient                   ...        0 min,  0.889 sec
 * total energy  :  -328.7543057 Eh     change       -0.4306196E-03 Eh
   gradient norm :     0.0060987 Eh/α   predicted    -0.3963405E-03 (  -7.96%)
   displ. norm   :     0.4920359 α      lambda       -0.4264349E-03
   maximum displ.:     0.2780989 α      in ANC's #15, #16, #20, ...

........................................................................
.............................. CYCLE   27 ..............................
........................................................................
   1   -334.3324095 -0.334332E+03  0.209E-03    1.27       0.0  T
   2   -334.3324100 -0.524534E-06  0.156E-03    1.27       4.8  T
   3   -334.3324107 -0.643107E-06  0.687E-04    1.27      10.8  T
   4   -334.3324106  0.448323E-07  0.590E-04    1.27      12.6  T
   5   -334.3324108 -0.133267E-06  0.186E-04    1.27      40.0  T
   6   -334.3324108 -0.857909E-08  0.380E-05    1.27     195.4  T
     SCC iter.                  ...        0 min,  1.220 sec
     gradient                   ...        0 min,  0.902 sec
 * total energy  :  -328.7545955 Eh     change       -0.2898279E-03 Eh
   gradient norm :     0.0073625 Eh/α   predicted    -0.2648415E-03 (  -8.62%)
   displ. norm   :     0.4300746 α      lambda       -0.3176346E-03
   maximum displ.:     0.2423564 α      in ANC's #15, #16, #20, ...

........................................................................
.............................. CYCLE   28 ..............................
........................................................................
   1   -334.3314299 -0.334331E+03  0.114E-03    1.27       0.0  T
   2   -334.3314301 -0.153689E-06  0.650E-04    1.27      11.4  T
   3   -334.3314302 -0.819256E-07  0.333E-04    1.27      22.3  T
   4   -334.3314302 -0.809928E-08  0.236E-04    1.27      31.5  T
   5   -334.3314302 -0.170194E-07  0.995E-05    1.27      74.7  T
   6   -334.3314302 -0.447903E-08  0.151E-05    1.27     493.8  T
     SCC iter.                  ...        0 min,  1.216 sec
     gradient                   ...        0 min,  0.890 sec
 * total energy  :  -328.7548645 Eh     change       -0.2689931E-03 Eh
   gradient norm :     0.0072158 Eh/α   predicted    -0.1881939E-03 ( -30.04%)
   displ. norm   :     0.4808485 α      lambda       -0.4076809E-03
   maximum displ.:     0.2773682 α      in ANC's #15, #16, #20, ...

........................................................................
.............................. CYCLE   29 ..............................
........................................................................
   1   -334.3347056 -0.334335E+03  0.214E-03    1.27       0.0  T
   2   -334.3347060 -0.424933E-06  0.145E-03    1.27       5.1  T
   3   -334.3347063 -0.296530E-06  0.611E-04    1.27      12.2  T
   4   -334.3347062  0.400236E-07  0.468E-04    1.27      15.9  T
   5   -334.3347063 -0.512309E-07  0.187E-04    1.27      39.7  T
   6   -334.3347063 -0.204775E-07  0.387E-05    1.27     192.0  T
     SCC iter.                  ...        0 min,  1.190 sec
     gradient                   ...        0 min,  0.830 sec
 * total energy  :  -328.7551970 Eh     change       -0.3324556E-03 Eh
   gradient norm :     0.0059930 Eh/α   predicted    -0.2509759E-03 ( -24.51%)
   displ. norm   :     0.5599713 α      lambda       -0.3785496E-03
   maximum displ.:     0.3266975 α      in ANC's #15, #16, #20, ...

........................................................................
.............................. CYCLE   30 ..............................
........................................................................
   1   -334.3345735 -0.334335E+03  0.207E-03    1.27       0.0  T
   2   -334.3345738 -0.300580E-06  0.152E-03    1.27       4.9  T
   3   -334.3345743 -0.491956E-06  0.646E-04    1.27      11.5  T
   4   -334.3345742  0.729498E-07  0.586E-04    1.27      12.7  T
   5   -334.3345743 -0.147476E-06  0.183E-04    1.27      40.6  T
   6   -334.3345743 -0.107698E-07  0.375E-05    1.27     198.2  T
     SCC iter.                  ...        0 min,  1.191 sec
     gradient                   ...        0 min,  0.833 sec
 * total energy  :  -328.7555146 Eh     change       -0.3176910E-03 Eh
   gradient norm :     0.0061471 Eh/α   predicted    -0.2486291E-03 ( -21.74%)
   displ. norm   :     0.5420996 α      lambda       -0.3553954E-03
   maximum displ.:     0.3194899 α      in ANC's #15, #16, #20, ...

........................................................................
.............................. CYCLE   31 ..............................
........................................................................
   1   -334.3381491 -0.334338E+03  0.157E-03    1.27       0.0  T
   2   -334.3381492 -0.133753E-06  0.113E-03    1.27       6.6  T
   3   -334.3381496 -0.387323E-06  0.506E-04    1.27      14.7  T
   4   -334.3381496 -0.872143E-08  0.436E-04    1.27      17.1  T
   5   -334.3381497 -0.776590E-07  0.116E-04    1.27      64.2  T
   6   -334.3381497 -0.364759E-08  0.287E-05    1.27     259.3  T
     SCC iter.                  ...        0 min,  1.155 sec
     gradient                   ...        0 min,  0.831 sec
 * total energy  :  -328.7558198 Eh     change       -0.3051119E-03 Eh
   gradient norm :     0.0065984 Eh/α   predicted    -0.2299188E-03 ( -24.64%)
   displ. norm   :     0.5811908 α      lambda       -0.3659038E-03
   maximum displ.:     0.3472187 α      in ANC's #15, #16, #20, ...

........................................................................
.............................. CYCLE   32 ..............................
........................................................................
   1   -334.3389391 -0.334339E+03  0.158E-03    1.26       0.0  T
   2   -334.3389392 -0.975587E-07  0.109E-03    1.26       6.8  T
   3   -334.3389396 -0.380681E-06  0.543E-04    1.26      13.7  T
   4   -334.3389397 -0.772592E-07  0.400E-04    1.26      18.6  T
   5   -334.3389397 -0.577113E-07  0.105E-04    1.26      70.7  T
   6   -334.3389397 -0.211872E-08  0.325E-05    1.26     228.4  T
     SCC iter.                  ...        0 min,  1.106 sec
     gradient                   ...        0 min,  0.756 sec
 * total energy  :  -328.7561368 Eh     change       -0.3170421E-03 Eh
   gradient norm :     0.0060299 Eh/α   predicted    -0.2447530E-03 ( -22.80%)
   displ. norm   :     0.5871159 α      lambda       -0.3661007E-03
   maximum displ.:     0.3576043 α      in ANC's #15, #16, #20, ...

........................................................................
.............................. CYCLE   33 ..............................
........................................................................
   1   -334.3422336 -0.334342E+03  0.190E-03    1.26       0.0  T
   2   -334.3422338 -0.262714E-06  0.102E-03    1.26       7.3  T
   3   -334.3422339 -0.476935E-07  0.610E-04    1.26      12.2  T
   4   -334.3422339  0.679324E-08  0.487E-04    1.26      15.3  T
   5   -334.3422340 -0.131989E-06  0.113E-04    1.26      65.9  T
   6   -334.3422340 -0.302310E-08  0.249E-05    1.26     297.9  T
     SCC iter.                  ...        0 min,  1.177 sec
     gradient                   ...        0 min,  0.865 sec
 * total energy  :  -328.7564416 Eh     change       -0.3047698E-03 Eh
   gradient norm :     0.0045557 Eh/α   predicted    -0.2461506E-03 ( -19.23%)
   displ. norm   :     0.6170368 α      lambda       -0.3160197E-03
   maximum displ.:     0.3809438 α      in ANC's #15, #16, #26, ...

........................................................................
.............................. CYCLE   34 ..............................
........................................................................
   1   -334.3409995 -0.334341E+03  0.186E-03    1.26       0.0  T
   2   -334.3409998 -0.306331E-06  0.899E-04    1.26       8.3  T
   3   -334.3409999 -0.636249E-07  0.537E-04    1.26      13.8  T
   4   -334.3409999 -0.151327E-07  0.422E-04    1.26      17.6  T
   5   -334.3410000 -0.857640E-07  0.102E-04    1.26      73.2  T
   6   -334.3410000 -0.259854E-08  0.231E-05    1.26     322.0  T
     SCC iter.                  ...        0 min,  1.192 sec
     gradient                   ...        0 min,  0.887 sec
 * total energy  :  -328.7567017 Eh     change       -0.2601651E-03 Eh
   gradient norm :     0.0049857 Eh/α   predicted    -0.2181742E-03 ( -16.14%)
   displ. norm   :     0.5796663 α      lambda       -0.2758186E-03
   maximum displ.:     0.3646565 α      in ANC's #15, #16, #26, ...

........................................................................
.............................. CYCLE   35 ..............................
........................................................................
   1   -334.3420655 -0.334342E+03  0.183E-03    1.26       0.0  T
   2   -334.3420658 -0.264388E-06  0.104E-03    1.26       7.1  T
   3   -334.3420660 -0.210189E-06  0.555E-04    1.26      13.4  T
   4   -334.3420661 -0.771509E-07  0.435E-04    1.26      17.1  T
   5   -334.3420662 -0.710207E-07  0.104E-04    1.26      71.2  T
   6   -334.3420662 -0.238367E-08  0.269E-05    1.26     276.7  T
     SCC iter.                  ...        0 min,  1.120 sec
     gradient                   ...        0 min,  0.835 sec
 * total energy  :  -328.7569280 Eh     change       -0.2262768E-03 Eh
   gradient norm :     0.0049072 Eh/α   predicted    -0.1842530E-03 ( -18.57%)
   displ. norm   :     0.6060871 α      lambda       -0.2495347E-03
   maximum displ.:     0.3835498 α      in ANC's #15, #16, #26, ...

........................................................................
.............................. CYCLE   36 ..............................
........................................................................
   1   -334.3401695 -0.334340E+03  0.155E-03    1.26       0.0  T
   2   -334.3401697 -0.130776E-06  0.107E-03    1.26       7.0  T
   3   -334.3401701 -0.401270E-06  0.470E-04    1.26      15.8  T
   4   -334.3401701 -0.623303E-07  0.377E-04    1.26      19.7  T
   5   -334.3401702 -0.486446E-07  0.991E-05    1.26      75.0  T
   6   -334.3401702 -0.230750E-08  0.343E-05    1.26     217.0  T
     SCC iter.                  ...        0 min,  1.124 sec
     gradient                   ...        0 min,  0.818 sec
 * total energy  :  -328.7571389 Eh     change       -0.2109138E-03 Eh
   gradient norm :     0.0050676 Eh/α   predicted    -0.1706032E-03 ( -19.11%)
   displ. norm   :     0.6032825 α      lambda       -0.2519056E-03
   maximum displ.:     0.3866884 α      in ANC's #15, #16, #26, ...

........................................................................
.............................. CYCLE   37 ..............................
........................................................................
   1   -334.3400912 -0.334340E+03  0.140E-03    1.26       0.0  T
   2   -334.3400913 -0.855622E-07  0.105E-03    1.26       7.1  T
   3   -334.3400917 -0.424244E-06  0.432E-04    1.26      17.2  T
   4   -334.3400917 -0.356120E-07  0.355E-04    1.26      20.9  T
   5   -334.3400918 -0.442035E-07  0.106E-04    1.26      69.9  T
   6   -334.3400918 -0.206455E-08  0.347E-05    1.26     214.4  T
     SCC iter.                  ...        0 min,  1.139 sec
     gradient                   ...        0 min,  0.843 sec
 * total energy  :  -328.7573464 Eh     change       -0.2075173E-03 Eh
   gradient norm :     0.0043516 Eh/α   predicted    -0.1717964E-03 ( -17.21%)
   displ. norm   :     0.6181853 α      lambda       -0.2258025E-03
   maximum displ.:     0.3967078 α      in ANC's #15, #16, #26, ...

........................................................................
.............................. CYCLE   38 ..............................
........................................................................
   1   -334.3379133 -0.334338E+03  0.146E-03    1.26       0.0  T
   2   -334.3379134 -0.109958E-06  0.871E-04    1.26       8.5  T
   3   -334.3379135 -0.721991E-07  0.550E-04    1.26      13.5  T
   4   -334.3379135 -0.579935E-07  0.382E-04    1.26      19.5  T
   5   -334.3379136 -0.715650E-07  0.883E-05    1.26      84.2  T
   6   -334.3379136 -0.120173E-08  0.211E-05    1.26     352.2  T
     SCC iter.                  ...        0 min,  1.231 sec
     gradient                   ...        0 min,  0.835 sec
 * total energy  :  -328.7575301 Eh     change       -0.1836182E-03 Eh
   gradient norm :     0.0044437 Eh/α   predicted    -0.1560492E-03 ( -15.01%)
   displ. norm   :     0.5964343 α      lambda       -0.2163261E-03
   maximum displ.:     0.3851698 α      in ANC's #15, #16, #26, ...

........................................................................
.............................. CYCLE   39 ..............................
........................................................................
   1   -334.3397432 -0.334340E+03  0.172E-03    1.25       0.0  T
   2   -334.3397434 -0.200102E-06  0.983E-04    1.25       7.6  T
   3   -334.3397435 -0.928443E-07  0.613E-04    1.25      12.1  T
   4   -334.3397436 -0.722049E-07  0.443E-04    1.25      16.8  T
   5   -334.3397437 -0.854666E-07  0.873E-05    1.25      85.2  T
   6   -334.3397437 -0.159952E-08  0.307E-05    1.25     242.1  T
     SCC iter.                  ...        0 min,  1.039 sec
     gradient                   ...        0 min,  0.803 sec
 * total energy  :  -328.7576920 Eh     change       -0.1619453E-03 Eh
   gradient norm :     0.0045242 Eh/α   predicted    -0.1466414E-03 (  -9.45%)
   displ. norm   :     0.6036596 α      lambda       -0.1867700E-03
   maximum displ.:     0.3872542 α      in ANC's #15, #16, #26, ...

........................................................................
.............................. CYCLE   40 ..............................
........................................................................
   1   -334.3373638 -0.334337E+03  0.218E-03    1.25       0.0  T
   2   -334.3373642 -0.385638E-06  0.118E-03    1.25       6.3  T
   3   -334.3373643 -0.913590E-07  0.716E-04    1.25      10.4  T
   4   -334.3373643  0.272598E-07  0.555E-04    1.25      13.4  T
   5   -334.3373644 -0.168390E-06  0.108E-04    1.25      68.6  T
   6   -334.3373644 -0.356039E-08  0.245E-05    1.25     303.0  T
     SCC iter.                  ...        0 min,  1.263 sec
     gradient                   ...        0 min,  0.867 sec
 * total energy  :  -328.7578262 Eh     change       -0.1341915E-03 Eh
   gradient norm :     0.0050738 Eh/α   predicted    -0.1274181E-03 (  -5.05%)
   displ. norm   :     0.4901875 α      lambda       -0.1597336E-03
   maximum displ.:     0.3127181 α      in ANC's #15, #16, #26, ...

........................................................................
.............................. CYCLE   41 ..............................
........................................................................
   1   -334.3397830 -0.334340E+03  0.197E-03    1.25       0.0  T
   2   -334.3397833 -0.324687E-06  0.115E-03    1.25       6.4  T
   3   -334.3397835 -0.244080E-06  0.618E-04    1.25      12.0  T
   4   -334.3397836 -0.504003E-07  0.497E-04    1.25      14.9  T
   5   -334.3397837 -0.105302E-06  0.105E-04    1.25      70.8  T
   6   -334.3397837 -0.265669E-08  0.253E-05    1.25     294.1  T
     SCC iter.                  ...        0 min,  1.059 sec
     gradient                   ...        0 min,  0.796 sec
 * total energy  :  -328.7579455 Eh     change       -0.1193079E-03 Eh
   gradient norm :     0.0040383 Eh/α   predicted    -0.9906306E-04 ( -16.97%)
   displ. norm   :     0.4783025 α      lambda       -0.1361067E-03
   maximum displ.:     0.3020098 α      in ANC's #15, #16, #26, ...

........................................................................
.............................. CYCLE   42 ..............................
........................................................................
   1   -334.3413701 -0.334341E+03  0.187E-03    1.25       0.0  T
   2   -334.3413704 -0.286730E-06  0.109E-03    1.25       6.8  T
   3   -334.3413705 -0.827856E-07  0.646E-04    1.25      11.5  T
   4   -334.3413704  0.567645E-07  0.496E-04    1.25      15.0  T
   5   -334.3413706 -0.154641E-06  0.134E-04    1.25      55.6  T
   6   -334.3413706 -0.606991E-08  0.293E-05    1.25     254.0  T
     SCC iter.                  ...        0 min,  1.156 sec
     gradient                   ...        0 min,  0.885 sec
 * total energy  :  -328.7580400 Eh     change       -0.9445763E-04 Eh
   gradient norm :     0.0036965 Eh/α   predicted    -0.8362626E-04 ( -11.47%)
   displ. norm   :     0.4533021 α      lambda       -0.1160393E-03
   maximum displ.:     0.2870646 α      in ANC's #15, #16, #26, ...
 * RMSD in coord.:     0.7773006 α      energy gain  -0.6029215E-02 Eh

generating ANC from model Hessian ...
Using Lindh-Hessian (1995)
 Shifting diagonal of input Hessian by    1.0027586772968888E-002
 Lowest  eigenvalues of input Hessian
    0.010000    0.010006    0.010015    0.010017    0.010025    0.000000
    0.000000    0.000000    0.000000    0.000000    0.000000    0.010037
    0.010047    0.010056    0.010070    0.010081    0.010094    0.010141
 Highest eigenvalues
    2.643854    2.644208    2.644266    2.645411    2.881649    2.882204


........................................................................
.............................. CYCLE   43 ..............................
........................................................................
   1   -334.3415515 -0.334342E+03  0.156E-03    1.25       0.0  T
   2   -334.3415517 -0.170277E-06  0.879E-04    1.25       8.5  T
   3   -334.3415517 -0.255841E-08  0.566E-04    1.25      13.1  T
   4   -334.3415517  0.987239E-08  0.405E-04    1.25      18.4  T
   5   -334.3415518 -0.948771E-07  0.100E-04    1.25      74.1  T
   6   -334.3415518 -0.388229E-08  0.288E-05    1.25     257.6  T
     SCC iter.                  ...        0 min,  1.219 sec
     gradient                   ...        0 min,  0.908 sec
 * total energy  :  -328.7581169 Eh     change       -0.7693689E-04 Eh
   gradient norm :     0.0038462 Eh/α   predicted     0.0000000E+00 (-100.00%)
   displ. norm   :     0.0432110 α      lambda       -0.4644228E-04
   maximum displ.:     0.0158044 α      in ANC's #27, #18, #30, ...

........................................................................
.............................. CYCLE   44 ..............................
........................................................................
   1   -334.3416062 -0.334342E+03  0.864E-04    1.25       0.0  T
   2   -334.3416062 -0.630425E-07  0.549E-04    1.25      13.5  T
   3   -334.3416063 -0.532912E-07  0.284E-04    1.25      26.2  T
   4   -334.3416063 -0.729983E-09  0.235E-04    1.25      31.6  T
   5   -334.3416063 -0.245120E-07  0.490E-05    1.25     151.8  T
   6   -334.3416063 -0.678938E-09  0.129E-05    1.25     577.4  T
     SCC iter.                  ...        0 min,  1.216 sec
     gradient                   ...        0 min,  0.897 sec
 * total energy  :  -328.7581533 Eh     change       -0.3644442E-04 Eh
   gradient norm :     0.0021982 Eh/α   predicted    -0.2410753E-04 ( -33.85%)
   displ. norm   :     0.1474803 α      lambda       -0.1062942E-03
   maximum displ.:     0.0694986 α      in ANC's #27, #18, #26, ...

........................................................................
.............................. CYCLE   45 ..............................
........................................................................
   1   -334.3411130 -0.334341E+03  0.232E-03    1.25       0.0  T
   2   -334.3411135 -0.517480E-06  0.140E-03    1.25       5.3  T
   3   -334.3411139 -0.408276E-06  0.687E-04    1.25      10.8  T
   4   -334.3411140 -0.377677E-07  0.578E-04    1.25      12.9  T
   5   -334.3411141 -0.141975E-06  0.127E-04    1.25      58.4  T
   6   -334.3411141 -0.358051E-08  0.340E-05    1.25     218.5  T
     SCC iter.                  ...        0 min,  1.201 sec
     gradient                   ...        0 min,  0.844 sec
 * total energy  :  -328.7581685 Eh     change       -0.1517344E-04 Eh
   gradient norm :     0.0045244 Eh/α   predicted    -0.5430720E-04 ( 257.91%)
   displ. norm   :     0.1220034 α      lambda       -0.1343308E-03
   maximum displ.:     0.0463214 α      in ANC's #27, #38, #18, ...

........................................................................
.............................. CYCLE   46 ..............................
........................................................................
   1   -334.3404208 -0.334340E+03  0.119E-03    1.25       0.0  T
   2   -334.3404209 -0.177175E-06  0.646E-04    1.25      11.5  T
   3   -334.3404210 -0.108592E-06  0.298E-04    1.25      25.0  T
   4   -334.3404211 -0.240146E-07  0.220E-04    1.25      33.8  T
   5   -334.3404211 -0.173804E-07  0.722E-05    1.25     103.0  T
   6   -334.3404211 -0.887383E-09  0.170E-05    1.25     438.2  T
     SCC iter.                  ...        0 min,  1.196 sec
     gradient                   ...        0 min,  0.840 sec
 * total energy  :  -328.7582056 Eh     change       -0.3705053E-04 Eh
   gradient norm :     0.0051728 Eh/α   predicted    -0.6816605E-04 (  83.98%)
   displ. norm   :     0.0377283 α      lambda       -0.7390186E-04
   maximum displ.:     0.0096074 α      in ANC's #28, #30, #36, ...

........................................................................
.............................. CYCLE   47 ..............................
........................................................................
   1   -334.3405515 -0.334341E+03  0.125E-03    1.25       0.0  T
   2   -334.3405516 -0.107818E-06  0.823E-04    1.25       9.0  T
   3   -334.3405517 -0.996204E-07  0.439E-04    1.25      16.9  T
   4   -334.3405517  0.683480E-08  0.358E-04    1.25      20.8  T
   5   -334.3405518 -0.618921E-07  0.673E-05    1.25     110.5  T
   6   -334.3405518 -0.130706E-08  0.203E-05    1.25     365.6  T
     SCC iter.                  ...        0 min,  1.146 sec
     gradient                   ...        0 min,  0.833 sec
 * total energy  :  -328.7582408 Eh     change       -0.3520094E-04 Eh
   gradient norm :     0.0024232 Eh/α   predicted    -0.3700370E-04 (   5.12%)
   displ. norm   :     0.0760050 α      lambda       -0.7377925E-04
   maximum displ.:     0.0388993 α      in ANC's #27, #29, #26, ...

........................................................................
.............................. CYCLE   48 ..............................
........................................................................
   1   -334.3407876 -0.334341E+03  0.122E-03    1.25       0.0  T
   2   -334.3407877 -0.945762E-07  0.836E-04    1.25       8.9  T
   3   -334.3407879 -0.135808E-06  0.433E-04    1.25      17.2  T
   4   -334.3407879  0.127471E-08  0.350E-04    1.25      21.2  T
   5   -334.3407879 -0.570440E-07  0.694E-05    1.25     107.1  T
   6   -334.3407879 -0.111254E-08  0.229E-05    1.25     324.0  T
     SCC iter.                  ...        0 min,  1.117 sec
     gradient                   ...        0 min,  0.775 sec
 * total energy  :  -328.7582226 Eh     change        0.1816970E-04 Eh
   gradient norm :     0.0034651 Eh/α   predicted    -0.3710381E-04 (-304.21%)
   displ. norm   :     0.0990001 α      lambda       -0.1262152E-03
   maximum displ.:     0.0438542 α      in ANC's #27, #18, #29, ...

........................................................................
.............................. CYCLE   49 ..............................
........................................................................
   1   -334.3412117 -0.334341E+03  0.450E-04    1.25       0.0  T
   2   -334.3412117 -0.170103E-07  0.288E-04    1.25      25.8  T
   3   -334.3412117 -0.901241E-08  0.159E-04    1.25      46.7  T
   4   -334.3412117  0.280147E-08  0.129E-04    1.25      57.8  T
     SCC iter.                  ...        0 min,  0.813 sec
     gradient                   ...        0 min,  0.845 sec
 * total energy  :  -328.7582908 Eh     change       -0.6818618E-04 Eh
   gradient norm :     0.0019321 Eh/α   predicted    -0.6372810E-04 (  -6.54%)
   displ. norm   :     0.2246692 α      lambda       -0.6186369E-04
   maximum displ.:     0.1074833 α      in ANC's #27, #18, #30, ...

........................................................................
.............................. CYCLE   50 ..............................
........................................................................
   1   -334.3410067 -0.334341E+03  0.116E-03    1.25       0.0  T
   2   -334.3410068 -0.124626E-06  0.664E-04    1.25      11.2  T
   3   -334.3410068 -0.601689E-07  0.358E-04    1.25      20.8  T
   4   -334.3410068  0.108207E-08  0.294E-04    1.25      25.3  T
   5   -334.3410069 -0.401922E-07  0.604E-05    1.25     123.2  T
   6   -334.3410069 -0.105331E-08  0.143E-05    1.25     519.0  T
     SCC iter.                  ...        0 min,  1.173 sec
     gradient                   ...        0 min,  0.886 sec
 * total energy  :  -328.7583224 Eh     change       -0.3165159E-04 Eh
   gradient norm :     0.0027811 Eh/α   predicted    -0.3162906E-04 (  -0.07%)
   displ. norm   :     0.1670889 α      lambda       -0.6066687E-04
   maximum displ.:     0.0897311 α      in ANC's #27, #18, #26, ...

........................................................................
.............................. CYCLE   51 ..............................
........................................................................
   1   -334.3415682 -0.334342E+03  0.542E-04    1.25       0.0  T
   2   -334.3415683 -0.150417E-07  0.380E-04    1.25      19.5  T
   3   -334.3415683 -0.424972E-07  0.181E-04    1.25      41.1  T
   4   -334.3415683 -0.448034E-08  0.144E-04    1.25      51.8  T
     SCC iter.                  ...        0 min,  0.797 sec
     gradient                   ...        0 min,  0.835 sec
 * total energy  :  -328.7583729 Eh     change       -0.5050156E-04 Eh
   gradient norm :     0.0018674 Eh/α   predicted    -0.3118514E-04 ( -38.25%)
   displ. norm   :     0.4897416 α      lambda       -0.9449843E-04
   maximum displ.:     0.2589088 α      in ANC's #27, #18, #26, ...

........................................................................
.............................. CYCLE   52 ..............................
........................................................................
   1   -334.3436107 -0.334344E+03  0.182E-03    1.25       0.0  T
   2   -334.3436110 -0.249234E-06  0.119E-03    1.25       6.3  T
   3   -334.3436114 -0.456165E-06  0.545E-04    1.25      13.6  T
   4   -334.3436115 -0.779474E-07  0.421E-04    1.25      17.6  T
   5   -334.3436116 -0.642809E-07  0.120E-04    1.25      62.1  T
   6   -334.3436116 -0.258291E-08  0.364E-05    1.25     204.4  T
     SCC iter.                  ...        0 min,  1.120 sec
     gradient                   ...        0 min,  0.836 sec
 * total energy  :  -328.7584461 Eh     change       -0.7318404E-04 Eh
   gradient norm :     0.0029976 Eh/α   predicted    -0.5228653E-04 ( -28.55%)
   displ. norm   :     0.1606294 α      lambda       -0.3335852E-04
   maximum displ.:     0.0818376 α      in ANC's #27, #18, #26, ...

........................................................................
.............................. CYCLE   53 ..............................
........................................................................
   1   -334.3441501 -0.334344E+03  0.378E-04    1.25       0.0  T
   2   -334.3441501 -0.148023E-07  0.220E-04    1.25      33.7  T
   3   -334.3441501 -0.384989E-08  0.122E-04    1.25      60.9  T
   4   -334.3441501  0.199157E-08  0.841E-05    1.25      88.4  T
     SCC iter.                  ...        0 min,  0.751 sec
     gradient                   ...        0 min,  0.851 sec
 * total energy  :  -328.7584730 Eh     change       -0.2689663E-04 Eh
   gradient norm :     0.0022568 Eh/α   predicted    -0.1710322E-04 ( -36.41%)
   displ. norm   :     0.3079284 α      lambda       -0.6562824E-04
   maximum displ.:     0.1511590 α      in ANC's #27, #18, #26, ...

........................................................................
.............................. CYCLE   54 ..............................
........................................................................
   1   -334.3454161 -0.334345E+03  0.815E-04    1.25       0.0  T
   2   -334.3454162 -0.648091E-07  0.462E-04    1.25      16.1  T
   3   -334.3454162 -0.196435E-07  0.266E-04    1.25      27.9  T
   4   -334.3454162  0.680001E-08  0.205E-04    1.25      36.3  T
   5   -334.3454162 -0.209641E-07  0.561E-05    1.25     132.5  T
   6   -334.3454162 -0.154449E-08  0.155E-05    1.25     480.0  T
     SCC iter.                  ...        0 min,  1.145 sec
     gradient                   ...        0 min,  0.885 sec
 * total energy  :  -328.7585208 Eh     change       -0.4781144E-04 Eh
   gradient norm :     0.0017501 Eh/α   predicted    -0.3592615E-04 ( -24.86%)
   displ. norm   :     0.4405158 α      lambda       -0.4313961E-04
   maximum displ.:     0.2081274 α      in ANC's #27, #18, #26, ...

........................................................................
.............................. CYCLE   55 ..............................
........................................................................
   1   -334.3450209 -0.334345E+03  0.821E-04    1.25       0.0  T
   2   -334.3450210 -0.721538E-07  0.414E-04    1.25      18.0  T
   3   -334.3450210 -0.253081E-07  0.252E-04    1.25      29.5  T
   4   -334.3450210 -0.110918E-07  0.166E-04    1.25      44.7  T
   5   -334.3450210 -0.887223E-08  0.604E-05    1.25     123.1  T
     SCC iter.                  ...        0 min,  0.986 sec
     gradient                   ...        0 min,  0.820 sec
 * total energy  :  -328.7585583 Eh     change       -0.3742765E-04 Eh
   gradient norm :     0.0026082 Eh/α   predicted    -0.2343066E-04 ( -37.40%)
   displ. norm   :     0.1220537 α      lambda       -0.2275675E-04
   maximum displ.:     0.0479508 α      in ANC's #27, #26, #18, ...

........................................................................
.............................. CYCLE   56 ..............................
........................................................................
   1   -334.3449933 -0.334345E+03  0.258E-04    1.25       0.0  T
   2   -334.3449933 -0.615904E-08  0.145E-04    1.25      51.2  T
   3   -334.3449933 -0.182615E-08  0.823E-05    1.25      90.3  T
     SCC iter.                  ...        0 min,  0.629 sec
     gradient                   ...        0 min,  0.794 sec
 * total energy  :  -328.7585771 Eh     change       -0.1886180E-04 Eh
   gradient norm :     0.0022487 Eh/α   predicted    -0.1155061E-04 ( -38.76%)
   displ. norm   :     0.2619210 α      lambda       -0.5175385E-04
   maximum displ.:     0.1049713 α      in ANC's #26, #27, #18, ...

........................................................................
.............................. CYCLE   57 ..............................
........................................................................
   1   -334.3442887 -0.334344E+03  0.737E-04    1.25       0.0  T
   2   -334.3442888 -0.516954E-07  0.403E-04    1.25      18.5  T
   3   -334.3442888 -0.114324E-07  0.226E-04    1.25      32.9  T
   4   -334.3442888  0.353236E-08  0.132E-04    1.25      56.2  T
   5   -334.3442888 -0.523403E-08  0.556E-05    1.25     133.8  T
     SCC iter.                  ...        0 min,  1.092 sec
     gradient                   ...        0 min,  0.882 sec
 * total energy  :  -328.7586128 Eh     change       -0.3566155E-04 Eh
   gradient norm :     0.0015610 Eh/α   predicted    -0.2765609E-04 ( -22.45%)
   displ. norm   :     0.2956893 α      lambda       -0.2577225E-04
   maximum displ.:     0.1266131 α      in ANC's #26, #18, #27, ...

........................................................................
.............................. CYCLE   58 ..............................
........................................................................
   1   -334.3417934 -0.334342E+03  0.827E-04    1.25       0.0  T
   2   -334.3417935 -0.573857E-07  0.413E-04    1.25      18.0  T
   3   -334.3417935 -0.112905E-07  0.258E-04    1.25      28.9  T
   4   -334.3417935  0.220052E-08  0.156E-04    1.25      47.7  T
   5   -334.3417935 -0.850076E-08  0.636E-05    1.25     116.9  T
     SCC iter.                  ...        0 min,  0.906 sec
     gradient                   ...        0 min,  0.839 sec
 * total energy  :  -328.7586359 Eh     change       -0.2310698E-04 Eh
   gradient norm :     0.0019176 Eh/α   predicted    -0.1339101E-04 ( -42.05%)
   displ. norm   :     0.1269231 α      lambda       -0.2001818E-04
   maximum displ.:     0.0530580 α      in ANC's #31, #26, #35, ...

........................................................................
.............................. CYCLE   59 ..............................
........................................................................
   1   -334.3425540 -0.334343E+03  0.717E-04    1.25       0.0  T
   2   -334.3425541 -0.408956E-07  0.389E-04    1.25      19.1  T
   3   -334.3425541 -0.147037E-07  0.235E-04    1.25      31.6  T
   4   -334.3425541 -0.323456E-08  0.154E-04    1.25      48.3  T
   5   -334.3425541 -0.679125E-08  0.492E-05    1.25     151.2  T
     SCC iter.                  ...        0 min,  0.970 sec
     gradient                   ...        0 min,  0.886 sec
 * total energy  :  -328.7586567 Eh     change       -0.2083010E-04 Eh
   gradient norm :     0.0016559 Eh/α   predicted    -0.1008211E-04 ( -51.60%)
   displ. norm   :     0.2660450 α      lambda       -0.3058243E-04
   maximum displ.:     0.1208849 α      in ANC's #26, #18, #5, ...

........................................................................
.............................. CYCLE   60 ..............................
........................................................................
   1   -334.3411916 -0.334341E+03  0.967E-04    1.25       0.0  T
   2   -334.3411917 -0.894167E-07  0.555E-04    1.25      13.4  T
   3   -334.3411917 -0.367006E-07  0.301E-04    1.25      24.7  T
   4   -334.3411917 -0.359665E-08  0.213E-04    1.25      34.9  T
   5   -334.3411917 -0.117923E-07  0.675E-05    1.25     110.0  T
   6   -334.3411917 -0.292187E-08  0.147E-05    1.25     505.0  T
     SCC iter.                  ...        0 min,  1.218 sec
     gradient                   ...        0 min,  0.906 sec
 * total energy  :  -328.7586827 Eh     change       -0.2599165E-04 Eh
   gradient norm :     0.0018850 Eh/α   predicted    -0.1577471E-04 ( -39.31%)
   displ. norm   :     0.1392445 α      lambda       -0.1414345E-04
   maximum displ.:     0.0603332 α      in ANC's #26, #18, #5, ...

[...]
   124   6 C    3.922 --   123 C    2.495    80 C    1.169   122 C    0.198
   125  28 Ni   2.991 --   165 N    0.659   144 N    0.659   151 N    0.658
                           131 N    0.658
   126   6 C    3.935 --   164 C    1.271   127 C    1.269   120 C    1.169
   127   6 C    3.899 --   126 C    1.269   131 N    1.228   128 C    1.193
   128   6 C    3.960 --   129 C    1.629   127 C    1.193   166 H    0.973
   129   6 C    3.960 --   128 C    1.629   130 C    1.193   167 H    0.973
   130   6 C    3.904 --   132 C    1.276   131 N    1.225   129 C    1.193
   131   7 N    3.402 --   127 C    1.228   130 C    1.225   125 Ni   0.658
   132   6 C    3.934 --   130 C    1.276   141 C    1.274   133 C    1.157
   133   6 C    3.958 --   134 C    2.627   132 C    1.157
   134   6 C    3.934 --   133 C    2.627   135 C    1.140
   135   6 C    3.987 --   136 C    1.351   140 C    1.351   134 C    1.140
   136   6 C    3.974 --   137 C    1.456   135 C    1.351   168 H    0.974
                           139 C    0.104
   137   6 C    3.973 --   136 C    1.456   138 N    1.407   169 H    0.972
                           140 C    0.104
   138   7 N    2.994 --   137 C    1.407   139 C    1.407
   139   6 C    3.973 --   140 C    1.457   138 N    1.407   170 H    0.972
                           136 C    0.104
   140   6 C    3.974 --   139 C    1.457   135 C    1.351   171 H    0.974
                           137 C    0.104
   141   6 C    3.904 --   132 C    1.274   144 N    1.226   142 C    1.193
   142   6 C    3.960 --   143 C    1.629   141 C    1.193   172 H    0.973
   143   6 C    3.959 --   142 C    1.629   145 C    1.193   173 H    0.973
   144   7 N    3.402 --   141 C    1.226   145 C    1.226   125 Ni   0.659
   145   6 C    3.898 --   146 C    1.270   144 N    1.226   143 C    1.193
   146   6 C    3.935 --   145 C    1.270   147 C    1.268   122 C    1.171
   147   6 C    3.898 --   146 C    1.268   151 N    1.229   148 C    1.194
   148   6 C    3.960 --   149 C    1.629   147 C    1.194   174 H    0.973
   149   6 C    3.960 --   148 C    1.629   150 C    1.193   175 H    0.973
   150   6 C    3.904 --   152 C    1.276   151 N    1.224   149 C    1.193
   151   7 N    3.402 --   147 C    1.229   150 C    1.224   125 Ni   0.658
   152   6 C    3.934 --   150 C    1.276   161 C    1.274   153 C    1.157
   153   6 C    3.958 --   154 C    2.627   152 C    1.157
   154   6 C    3.934 --   153 C    2.627   155 C    1.140
   155   6 C    3.987 --   156 C    1.351   160 C    1.351   154 C    1.140
   156   6 C    3.974 --   157 C    1.456   155 C    1.351   176 H    0.974
                           159 C    0.104
   157   6 C    3.973 --   156 C    1.456   158 N    1.407   177 H    0.972
                           160 C    0.104
   158   7 N    2.995 --   157 C    1.407   159 C    1.407
   159   6 C    3.973 --   160 C    1.456   158 N    1.407   178 H    0.972
                           156 C    0.104
   160   6 C    3.974 --   159 C    1.456   155 C    1.351   179 H    0.974
                           157 C    0.104
   161   6 C    3.904 --   152 C    1.274   165 N    1.227   162 C    1.193
   162   6 C    3.960 --   163 C    1.629   161 C    1.193   180 H    0.973
   163   6 C    3.959 --   162 C    1.629   164 C    1.193   181 H    0.973
   164   6 C    3.899 --   126 C    1.271   165 N    1.226   163 C    1.193
   165   7 N    3.402 --   161 C    1.227   164 C    1.226   125 Ni   0.659
   166   1 H    1.001 --   128 C    0.973
   167   1 H    1.002 --   129 C    0.973
   168   1 H    1.002 --   136 C    0.974
   169   1 H    1.013 --   137 C    0.972
   170   1 H    1.013 --   139 C    0.972
   171   1 H    1.002 --   140 C    0.974
   172   1 H    1.002 --   142 C    0.973
   173   1 H    1.001 --   143 C    0.973
   174   1 H    1.001 --   148 C    0.973
   175   1 H    1.002 --   149 C    0.973
   176   1 H    1.002 --   156 C    0.974
   177   1 H    1.013 --   157 C    0.972
   178   1 H    1.013 --   159 C    0.972
   179   1 H    1.002 --   160 C    0.974
   180   1 H    1.002 --   162 C    0.973
   181   1 H    1.001 --   163 C    0.973
 ---------------------------------------------------------------------------

Topologies differ in total number of bonds
Writing topology from bond orders to xtbtopo.mol

 dipole moment from electron density (au)
     X       Y       Z   
   0.0008   0.2097   0.0693  total (Debye):    0.561

           -------------------------------------------------
          |                Geometry Summary                 |
           -------------------------------------------------

      molecular mass/u    :     1799.7786856
   center of mass at/Å    :       45.7673954      -0.3262852      -0.2178604
  moments of inertia/u·Å² :        0.4766308E+05   0.2329105E+06   0.2459706E+06
rotational constants/cm⁻¹ :        0.3536832E-03   0.7237814E-04   0.6853514E-04

 * 180 selected distances

     #   Z          #   Z                                           value/Å
     2   6 C        3   6 C                                       1.3787380
     3   6 C        4   6 C                                       1.4309432
     4   6 C        5   6 C                                       1.3541355
     5   6 C        6   6 C                                       1.4309629 (max)
     3   6 C        7   7 N                                       1.3747852
     6   6 C        7   7 N                                       1.3672710
     6   6 C        8   6 C                                       1.3952588
     9   6 C       10   6 C                                       1.2132535
    11   6 C       12   6 C                                       1.3997204
    12   6 C       13   6 C                                       1.3835132
    13   6 C       14   7 N                                       1.3305982
    14   7 N       15   6 C                                       1.3306203
    11   6 C       16   6 C                                       1.3997090
    15   6 C       16   6 C                                       1.3835433
     8   6 C       17   6 C                                       1.3951253
    17   6 C       18   6 C                                       1.4288537
    18   6 C       19   6 C                                       1.3551880
    17   6 C       20   7 N                                       1.3711619
    19   6 C       21   6 C                                       1.4283602
    20   7 N       21   6 C                                       1.3708435
    21   6 C       22   6 C                                       1.3951965
    22   6 C       23   6 C                                       1.3960029
    23   6 C       24   6 C                                       1.4284977
    24   6 C       25   6 C                                       1.3550859
    25   6 C       26   6 C                                       1.4285905
    23   6 C       27   7 N                                       1.3707495
    26   6 C       27   7 N                                       1.3712754
    26   6 C       28   6 C                                       1.3950150
    29   6 C       30   6 C                                       1.2132528
    31   6 C       32   6 C                                       1.3996902
    32   6 C       33   6 C                                       1.3835779
    33   6 C       34   7 N                                       1.3305917
    34   7 N       35   6 C                                       1.3306163
    31   6 C       36   6 C                                       1.3997335
    35   6 C       36   6 C                                       1.3835251
    28   6 C       37   6 C                                       1.3951510
    37   6 C       38   6 C                                       1.4308986
    38   6 C       39   6 C                                       1.3541679
     2   6 C       40   6 C                                       1.3787555
    39   6 C       40   6 C                                       1.4309560
    37   6 C       41   7 N                                       1.3672428
    40   6 C       41   7 N                                       1.3746963
     2   6 C       42   1 H                                       1.0838724
     4   6 C       43   1 H                                       1.0783417
     5   6 C       44   1 H                                       1.0781961
    12   6 C       45   1 H                                       1.0833326
    13   6 C       46   1 H                                       1.0862349
    15   6 C       47   1 H                                       1.0862369
    16   6 C       48   1 H                                       1.0833450
    18   6 C       49   1 H                                       1.0780824
    19   6 C       50   1 H                                       1.0780617
    24   6 C       51   1 H                                       1.0779393 (min)
    25   6 C       52   1 H                                       1.0780252
    32   6 C       53   1 H                                       1.0833422
    33   6 C       54   1 H                                       1.0862312
    35   6 C       55   1 H                                       1.0862342
    36   6 C       56   1 H                                       1.0833366
    38   6 C       57   1 H                                       1.0782153
    39   6 C       58   1 H                                       1.0783385
    60   6 C       61   6 C                                       1.3788075
    61   6 C       62   6 C                                       1.4309506
    62   6 C       63   6 C                                       1.3542173
    63   6 C       64   6 C                                       1.4308781
    61   6 C       65   7 N                                       1.3747364
    64   6 C       65   7 N                                       1.3672269
    64   6 C       66   6 C                                       1.3952840
    67   6 C       68   6 C                                       1.2131841
    69   6 C       70   6 C                                       1.3997352
    70   6 C       71   6 C                                       1.3835963
    71   6 C       72   7 N                                       1.3306073
    72   7 N       73   6 C                                       1.3306337
    69   6 C       74   6 C                                       1.3997382
    73   6 C       74   6 C                                       1.3835324
    66   6 C       75   6 C                                       1.3950100
    75   6 C       76   6 C                                       1.4285563
    76   6 C       77   6 C                                       1.3552166
    75   6 C       78   7 N                                       1.3714413
    77   6 C       79   6 C                                       1.4284514
    78   7 N       79   6 C                                       1.3705354
    79   6 C       80   6 C                                       1.3964703
    80   6 C       81   6 C                                       1.3955078
    81   6 C       82   6 C                                       1.4283023
    82   6 C       83   6 C                                       1.3553147
    83   6 C       84   6 C                                       1.4287596
    81   6 C       85   7 N                                       1.3707105
    84   6 C       85   7 N                                       1.3712166
    84   6 C       86   6 C                                       1.3951649
    87   6 C       88   6 C                                       1.2132135
    89   6 C       90   6 C                                       1.3997364
    90   6 C       91   6 C                                       1.3835449
    91   6 C       92   7 N                                       1.3306315
    92   7 N       93   6 C                                       1.3306349
    89   6 C       94   6 C                                       1.3997575
    93   6 C       94   6 C                                       1.3835500
    86   6 C       95   6 C                                       1.3953485
    95   6 C       96   6 C                                       1.4309620
    96   6 C       97   6 C                                       1.3541808
    60   6 C       98   6 C                                       1.3788175
    97   6 C       98   6 C                                       1.4309349
    95   6 C       99   7 N                                       1.3672754
    98   6 C       99   7 N                                       1.3747520
    60   6 C      100   1 H                                       1.0838675
    62   6 C      101   1 H                                       1.0783487
    63   6 C      102   1 H                                       1.0782066
    70   6 C      103   1 H                                       1.0833614
    71   6 C      104   1 H                                       1.0862521
    73   6 C      105   1 H                                       1.0862488
    74   6 C      106   1 H                                       1.0833521
    76   6 C      107   1 H                                       1.0780801
    77   6 C      108   1 H                                       1.0779518
    82   6 C      109   1 H                                       1.0780652
    83   6 C      110   1 H                                       1.0780722
    90   6 C      111   1 H                                       1.0833613
    91   6 C      112   1 H                                       1.0862501
    93   6 C      113   1 H                                       1.0862610
    94   6 C      114   1 H                                       1.0833622
    96   6 C      115   1 H                                       1.0782065
    97   6 C      116   1 H                                       1.0783411
   117   6 C      118   6 C                                       1.2203994
   119   6 C      120   6 C                                       1.2205008
   121   6 C      122   6 C                                       1.2206865
   123   6 C      124   6 C                                       1.2206259
   126   6 C      127   6 C                                       1.3968796
   127   6 C      128   6 C                                       1.4281829
   128   6 C      129   6 C                                       1.3559597
   129   6 C      130   6 C                                       1.4283638
   127   6 C      131   7 N                                       1.3699849
   130   6 C      131   7 N                                       1.3707591
   130   6 C      132   6 C                                       1.3956460
   133   6 C      134   6 C                                       1.2132722
   135   6 C      136   6 C                                       1.3998535
   136   6 C      137   6 C                                       1.3836035
   137   6 C      138   7 N                                       1.3307196
   138   7 N      139   6 C                                       1.3307415
   135   6 C      140   6 C                                       1.3998946
   139   6 C      140   6 C                                       1.3835516
   132   6 C      141   6 C                                       1.3959330
   141   6 C      142   6 C                                       1.4281810
   142   6 C      143   6 C                                       1.3560002
   141   6 C      144   7 N                                       1.3703438
   143   6 C      145   6 C                                       1.4283082
   144   7 N      145   6 C                                       1.3704729
   145   6 C      146   6 C                                       1.3967468
   146   6 C      147   6 C                                       1.3972377
   147   6 C      148   6 C                                       1.4281154
   148   6 C      149   6 C                                       1.3560007
   149   6 C      150   6 C                                       1.4283322
   147   6 C      151   7 N                                       1.3698483
   150   6 C      151   7 N                                       1.3709333
   150   6 C      152   6 C                                       1.3956049
   153   6 C      154   6 C                                       1.2132808
   155   6 C      156   6 C                                       1.3997002
   156   6 C      157   6 C                                       1.3835870
   157   6 C      158   7 N                                       1.3305714
   158   7 N      159   6 C                                       1.3306031
   155   6 C      160   6 C                                       1.3997282
   159   6 C      160   6 C                                       1.3835575
   152   6 C      161   6 C                                       1.3959703
   161   6 C      162   6 C                                       1.4282384
   162   6 C      163   6 C                                       1.3559487
   126   6 C      164   6 C                                       1.3965217
   163   6 C      164   6 C                                       1.4283356
   161   6 C      165   7 N                                       1.3703399
   164   6 C      165   7 N                                       1.3706385
   128   6 C      166   1 H                                       1.0780156
   129   6 C      167   1 H                                       1.0780783
   136   6 C      168   1 H                                       1.0834578
   137   6 C      169   1 H                                       1.0863551
   139   6 C      170   1 H                                       1.0863196
   140   6 C      171   1 H                                       1.0834307
   142   6 C      172   1 H                                       1.0780778
   143   6 C      173   1 H                                       1.0780326
   148   6 C      174   1 H                                       1.0780260
   149   6 C      175   1 H                                       1.0780946
   156   6 C      176   1 H                                       1.0833029
   157   6 C      177   1 H                                       1.0862089
   159   6 C      178   1 H                                       1.0862138
   160   6 C      179   1 H                                       1.0833357
   162   6 C      180   1 H                                       1.0780784
   163   6 C      181   1 H                                       1.0780275

 * 3 distinct bonds (by element types)

   Z      Z             #   av. dist./Å        max./Å        min./Å
   1 H    6 C          50     1.0815602     1.0863551     1.0779393
   6 C    6 C          94     1.3782433     1.4309629     1.2131841
   6 C    7 N          36     1.3574114     1.3747852     1.3305714


optimized geometry written to: xtbopt.xyz


           -------------------------------------------------
          | TOTAL ENERGY             -328.759042715934 Eh   |
          | GRADIENT NORM               0.000827344115 Eh/α |
          | HOMO-LUMO GAP               1.214571006222 eV   |
           -------------------------------------------------

------------------------------------------------------------------------
 * finished run on 2022/07/30 at 04:45:29.704     
------------------------------------------------------------------------
 total:
 * wall-time:     0 d,  0 h,  4 min,  8.723 sec
 *  cpu-time:     0 d,  0 h,  4 min,  7.244 sec
 * ratio c/w:     0.994 speedup
 SCF:
 * wall-time:     0 d,  0 h,  0 min, 11.144 sec
 *  cpu-time:     0 d,  0 h,  0 min, 11.077 sec
 * ratio c/w:     0.994 speedup
 ANC optimizer:
 * wall-time:     0 d,  0 h,  3 min, 57.256 sec
 *  cpu-time:     0 d,  0 h,  3 min, 55.852 sec
 * ratio c/w:     0.994 speedup

