430
 energy: -665.284312539578 gnorm: 1.214769742351 xtb: 6.5.1 (b24c23e)
C           70.27258399999999       -0.05460000000000        0.07238800000000
C           71.00118300000000        1.22546900000000        0.58543800000000
C           70.39105800000000        2.33193700000000        1.13091700000000
C           71.41265400000000        3.27799000000000        1.40406400000000
C           72.61258500000000        2.71824000000000        1.01107200000000
N           72.35431699999999        1.44848700000000        0.55836900000000
C           74.03612099999999        3.41653600000000        1.04209400000000
C           75.16444199999998        2.70395700000000        0.77652900000000
C           76.46823999999998        3.33300200000000        0.72460800000000
C           77.36886699999999        2.40696700000000        0.41776100000000
N           75.35993900000000        1.37583700000000        0.50128700000000
C           76.69009000000000        1.13384200000000        0.27445300000000
C           77.35741899999999       -0.01110900000000       -0.03015400000000
C           76.58283200000000       -1.39235200000000       -0.13939300000000
C           77.13040300000000       -2.64896400000000        0.03375400000000
C           76.10581500000001       -3.59859500000000       -0.20267600000000
C           74.95823900000001       -2.89607400000000       -0.50114200000000
C           73.54550399999999       -3.52130400000000       -0.86368800000000
C           73.51407199999998       -4.90770900000000       -1.38411300000000
C           73.15075899999999       -5.97230600000000       -0.54962400000000
C           73.13131000000000       -7.28623100000000       -1.03351200000000
C           72.69978200000000       -8.41286000000000       -0.14571500000000
C           73.46629600000000       -7.52423500000000       -2.37421500000000
C           73.84893099999999       -6.47180100000000       -3.21805200000000
C           74.17927700000000       -6.72368700000000       -4.65717800000000
C           73.86093600000000       -5.16456200000000       -2.71519000000000
C           72.42027599999999       -2.77550200000000       -0.70992000000000
C           71.09593700000001       -3.27513700000000       -1.03505900000000
C           70.21139300000000       -2.31929000000000       -0.76666600000000
C           70.93596299999999       -1.17408600000000       -0.27224700000000
N           72.25766299999999       -1.49330300000000       -0.26367800000000
N           75.24554399999998       -1.55425100000000       -0.40931400000000
C           74.07525300000000        4.87229900000000        1.32125200000000
C           74.34588699999999        5.33638800000000        2.61428500000000
C           74.37417499999998        6.70911400000000        2.88975300000000
C           74.71077200000001        7.18956500000000        4.26789400000000
C           74.14453099999999        7.61870200000000        1.84747400000000
C           73.85580600000000        7.16979400000000        0.55064500000000
C           73.63763700000000        8.14255800000000       -0.56757500000000
C           73.83332500000000        5.79299400000000        0.29517000000000
H           69.19383099999999       -0.02058000000000       -0.02140300000000
H           69.33177999999999        2.45142700000000        1.29796500000000
H           71.28473000000000        4.26670100000000        1.81931800000000
H           73.05597099999999        0.78298600000000        0.24210600000000
H           76.67942800000000        4.37439600000000        0.89063400000000
H           78.42142000000000        2.59243300000000        0.30699500000000
H           78.15657100000000       -2.86319000000000        0.29052500000000
H           76.19434699999998       -4.67411100000000       -0.16269400000000
H           72.87801600000000       -5.75061400000000        0.48083600000000
H           71.64666699999998       -8.65161500000000       -0.32780400000000
H           73.30550500000000       -9.30639300000000       -0.33339200000000
H           72.82226000000000       -8.15332600000000        0.91166500000000
H           73.42870499999999       -8.53842200000000       -2.76362700000000
H           74.92409400000000       -6.00707900000000       -5.01767700000000
H           74.60091799999998       -7.72516500000000       -4.79234500000000
H           73.27721500000000       -6.63472300000000       -5.26980800000000
H           74.13460600000001       -4.32382700000000       -3.35054800000000
H           70.86594500000000       -4.24892400000000       -1.42847000000000
H           69.14668199999998       -2.37912100000000       -0.90103200000000
H           74.55823200000000       -0.80788800000000       -0.47622200000000
H           74.54168600000000        4.60487100000000        3.39654000000000
H           74.32117400000000        6.50293000000000        5.02705300000000
H           74.26597699999999        8.17134200000000        4.45954100000000
H           75.79567599999999        7.26696200000000        4.38267500000000
H           74.19087900000000        8.68607600000000        2.04682100000000
H           73.22339199999999        9.08429800000000       -0.19246800000000
H           74.58552600000000        8.35105300000000       -1.07226700000000
H           72.92641999999999        7.74419400000000       -1.29851200000000
H           73.63244700000000        5.41305600000000       -0.70516200000000
C          147.93976699999999       -0.02537900000000        0.08031200000000
C          147.21116799999999       -1.38927800000000       -0.12358400000000
C          147.82129300000000       -2.61974000000000       -0.21179400000000
C          146.79969600000001       -3.57418600000000       -0.45399100000000
C          145.59976499999999       -2.89258300000000       -0.51037400000000
N          145.85803300000001       -1.56807100000000       -0.25960900000000
C          144.17623000000000       -3.51089300000000       -0.83636700000000
C          143.04790900000000       -2.76177000000000       -0.70557200000000
C          141.74411100000000       -3.27841500000000       -1.06816200000000
C          140.84348399999999       -2.32422100000000       -0.86516100000000
N          142.85241199999999       -1.47653700000000       -0.27217100000000
C          141.52225999999999       -1.15309900000000       -0.34568000000000
C          140.85493199999999       -0.01110900000000       -0.03015400000000
C          141.62951799999999        1.23610800000000        0.57334800000000
C          141.08194799999998        2.23311100000000        1.35759100000000
C          142.10653600000001        3.17209600000000        1.63328400000000
C          143.25411199999999        2.71658900000000        1.02080300000000
C          144.66684699999996        3.43932300000000        1.02377400000000
C          144.69827900000001        4.89871800000000        1.27502500000000
C          145.06159199999999        5.39591300000000        2.53301400000000
C          145.08104000000000        6.77429900000000        2.77918000000000
C          145.51256900000001        7.29809800000000        4.11451100000000
C          144.74605500000001        7.65699600000000        1.74237000000000
C          144.36341999999999        7.17502000000000        0.48245700000000
C          144.03307400000000        8.11941900000000       -0.63228100000000
C          144.35141500000000        5.79281900000000        0.25604400000000
C          145.79207500000001        2.71800500000000        0.77971400000000
C          147.11641299999999        3.31345100000000        0.75152000000000
C          148.00095800000000        2.35295400000000        0.50027300000000
C          147.27638800000000        1.11485700000000        0.34842900000000
N          145.95468799999998        1.38601600000000        0.51708600000000
N          142.96680699999999        1.51218800000000        0.42219000000000
C          144.13709799999998       -4.90826300000000       -1.33087200000000
C          143.86646400000001       -5.96199200000000       -0.44941500000000
C          143.83817600000000       -7.28583500000000       -0.90515600000000
C          143.50157899999999       -8.39668000000000        0.04148500000000
C          144.06781899999996       -7.54428400000000       -2.26416300000000
C          144.35654399999999       -6.50173800000000       -3.15656500000000
C          144.57471300000000       -6.77634400000000       -4.61302600000000
C          144.37902600000001       -5.18447900000000       -2.68151100000000
H          149.01852000000000       -0.00735700000000       -0.01781700000000
H          148.88057100000000       -2.80725100000000       -0.12799300000000
H          146.92762099999999       -4.63723500000000       -0.59509800000000
H          145.15637899999996       -0.83396500000000       -0.19635100000000
H          141.53292300000001       -4.26102500000000       -1.45097100000000
H          139.79093100000000       -2.42832400000000       -1.05444700000000
H          140.05578000000000        2.28827500000000        1.68741100000000
H          142.01800299999999        4.08008300000000        2.21111700000000
H          145.33433500000001        4.68402100000000        3.31032000000000
H          146.56568400000000        7.59613400000000        4.07798100000000
H          144.90684600000000        8.16404100000000        4.40393900000000
H          145.39008999999999        6.53995000000000        4.89593400000000
H          144.78364499999998        8.72897700000000        1.91864800000000
H          143.28825699999999        7.68309300000000       -1.30541200000000
H          143.61143300000001        9.05199200000000       -0.24300500000000
H          144.93513599999997        8.35213000000000       -1.20593100000000
H          144.07774499999996        5.38822300000000       -0.71700200000000
H          147.34640600000000        4.35258500000000        0.90393900000000
H          149.06566900000001        2.47246800000000        0.41453800000000
H          143.65411899999998        0.90186700000000       -0.01260000000000
H          143.67066500000001       -5.72586200000000        0.59523000000000
H          143.89117699999997       -8.18761700000000        1.04352400000000
H          143.94637399999996       -9.34078400000000       -0.28909500000000
H          142.41667500000000       -8.52146000000000        0.10144300000000
H          144.02147199999996       -8.56614800000000       -2.63133900000000
H          144.98895899999999       -7.77857600000000       -4.76505100000000
H          143.62682400000000       -6.70131700000000       -5.15391000000000
H          145.28593099999998       -6.06329500000000       -5.04258900000000
H          144.57990400000000       -4.35123900000000       -3.35287500000000
C           80.97529299999998        0.00162200000000       -0.02762900000000
C           79.72302299999998       -0.01755900000000       -0.03197800000000
C           82.28896099999999        0.00085600000000       -0.02569700000000
C           83.79209500000000       -0.01755900000000       -0.03197800000000
C           94.67111900000000        0.00162200000000       -0.02762900000000
C           93.41884799999998       -0.01755900000000       -0.03197800000000
C           95.98478700000000        0.00085600000000       -0.02569700000000
C           97.48792100000000       -0.01755900000000       -0.03197800000000
C          108.36694500000000        0.00162200000000       -0.02762900000000
C          107.11467399999999       -0.01755900000000       -0.03197800000000
C          109.68061299999999        0.00085600000000       -0.02569700000000
C          111.18374600000000       -0.01755900000000       -0.03197800000000
C          122.06277000000000        0.00162200000000       -0.02762900000000
C          120.81050000000000       -0.01755900000000       -0.03197800000000
C          123.37643799999999        0.00085600000000       -0.02569700000000
C          124.87957200000000       -0.01755900000000       -0.03197800000000
C          135.75859600000001        0.00162200000000       -0.02762900000000
C          134.50632500000000       -0.01755900000000       -0.03197800000000
C          137.07226399999996        0.00085600000000       -0.02569700000000
C          138.57539800000001       -0.01755900000000       -0.03197800000000
C           84.98716899999999        0.00692700000000        0.01765000000000
C           85.77855400000000       -1.13284300000000        0.78360400000000
C           85.26554400000001       -1.99902100000000        1.72790200000000
C           86.30227699999999       -2.89806200000000        2.08587600000000
C           87.41828199999999       -2.54821300000000        1.35512500000000
N           87.11002800000000       -1.42928300000000        0.62221400000000
C           88.81109899999998       -3.30326400000000        1.34921900000000
C           89.94509300000000       -2.63772900000000        1.00513100000000
C           91.23317200000000       -3.29532200000000        0.92570300000000
C           92.14015899999998       -2.39654100000000        0.55843300000000
N           90.15185600000000       -1.32945200000000        0.66421900000000
C           91.47658400000000       -1.11927700000000        0.38876700000000
C           92.14034599999999        0.00692700000000        0.01765000000000
C           91.34825499999999        1.36993700000000       -0.14486100000000
C           91.85871499999999        2.64265800000000        0.01453400000000
C           90.82224300000000        3.55754100000000       -0.30154200000000
C           89.70887100000000        2.81553500000000       -0.63606000000000
C           88.31690300000000        3.38358400000000       -1.13476500000000
C           88.32216600000000        4.69428100000000       -1.82709300000000
C           87.89445299999998        5.85020200000000       -1.16155900000000
C           87.91515300000000        7.09498100000000       -1.80302900000000
C           87.49116599999999        8.32846200000000       -1.06595900000000
C           88.39380399999999        7.17598600000000       -3.11846200000000
C           88.81450700000001        6.02684100000000       -3.80321100000000
C           89.35266799999998        6.11954700000000       -5.19815400000000
C           88.78508199999999        4.79115000000000       -3.14420000000000
C           87.18290699999999        2.65484500000000       -0.96062200000000
C           85.89503000000001        3.10091200000000       -1.45061800000000
C           84.98792499999999        2.18076400000000       -1.14138900000000
C           85.65127199999999        1.10238500000000       -0.43596700000000
N           86.97598199999999        1.44149500000000       -0.36417600000000
N           90.01825900000000        1.48892400000000       -0.46668300000000
C           88.80546300000000       -4.74755700000000        1.68309700000000
C           88.34389600000000       -5.68260400000000        0.74973900000000
C           88.31002400000000       -7.04782700000000        1.06147900000000
C           87.77294399999998       -8.03017300000000        0.06594500000000
C           88.72488899999999       -7.46829400000000        2.33345500000000
C           89.20248999999998       -6.54640900000000        3.27573200000000
C           89.61933300000000       -6.99410000000000        4.64326600000000
C           89.22804999999998       -5.18578100000000        2.94459500000000
H           84.25328600000000       -2.00083100000000        2.10235300000000
H           86.23761600000000       -3.72102700000000        2.78182900000000
H           87.77438699999999       -0.88282300000000        0.08196200000000
H           91.42835599999999       -4.33520700000000        1.11854000000000
H           93.18522400000001       -2.60215100000000        0.41533300000000
H           92.86913699999999        2.88817900000000        0.30421300000000
H           90.88511099999999        4.63544300000000       -0.30458700000000
H           87.54650199999999        5.75657200000000       -0.13412700000000
H           88.35526799999998        8.78744700000000       -0.57537400000000
H           87.04402699999999        9.05650900000000       -1.75102600000000
H           86.73778900000001        8.09313900000000       -0.30639400000000
H           88.43847200000000        8.14208000000000       -3.61446800000000
H           89.13856600000000        5.20513500000000       -5.76135000000000
H           90.43566199999999        6.27429900000000       -5.17211000000000
H           88.88991500000000        6.95038400000000       -5.74123800000000
H           89.12475299999998        3.88487200000000       -3.64277000000000
H           85.69971800000000        4.01404900000000       -1.98416900000000
H           83.94302699999999        2.24367200000000       -1.38437900000000
H           89.35466599999998        0.72208000000000       -0.52433300000000
H           88.00773200000000       -5.32382300000000       -0.22167600000000
H           88.22336900000001       -9.01803700000000        0.20891600000000
H           88.00283100000000       -7.71457100000000       -0.95727800000000
H           86.68751200000000       -8.11823500000000        0.17471300000000
H           88.67619899999998       -8.52288900000000        2.59175200000000
H           90.40705000000000       -6.34713800000000        5.04365200000000
H           90.01940399999999       -8.01307400000000        4.61606700000000
H           88.76183899999998       -6.96979700000000        5.32280500000000
H           89.57461400000000       -4.44271000000000        3.66102200000000
C           98.68299399999999        0.00692700000000        0.01765000000000
C           99.47437899999998       -1.13284300000000        0.78360400000000
C           98.96136999999999       -1.99902100000000        1.72790200000000
C           99.99810300000000       -2.89806200000000        2.08587600000000
C          101.11410699999999       -2.54821300000000        1.35512500000000
N          100.80585400000000       -1.42928300000000        0.62221400000000
C          102.50692499999998       -3.30326400000000        1.34921900000000
C          103.64091900000000       -2.63772900000000        1.00513100000000
C          104.92899699999998       -3.29532200000000        0.92570300000000
C          105.83598499999998       -2.39654100000000        0.55843300000000
N          103.84768099999999       -1.32945200000000        0.66421900000000
C          105.17241000000000       -1.11927700000000        0.38876700000000
C          105.83617199999999        0.00692700000000        0.01765000000000
C          105.04407999999999        1.36993700000000       -0.14486100000000
C          105.55454099999999        2.64265800000000        0.01453400000000
C          104.51806800000000        3.55754100000000       -0.30154200000000
C          103.40469700000000        2.81553500000000       -0.63606000000000
C          102.01272899999998        3.38358400000000       -1.13476500000000
C          102.01799200000001        4.69428100000000       -1.82709300000000
C          101.59027899999998        5.85020200000000       -1.16155900000000
C          101.61097800000000        7.09498100000000       -1.80302900000000
C          101.18699199999999        8.32846200000000       -1.06595900000000
C          102.08962999999999        7.17598600000000       -3.11846200000000
C          102.51033200000001        6.02684100000000       -3.80321100000000
C          103.04849400000001        6.11954700000000       -5.19815400000000
C          102.48090699999999        4.79115000000000       -3.14420000000000
C          100.87873299999998        2.65484500000000       -0.96062200000000
C           99.59085500000000        3.10091200000000       -1.45061800000000
C           98.68375099999999        2.18076400000000       -1.14138900000000
C           99.34709799999999        1.10238500000000       -0.43596700000000
N          100.67180799999998        1.44149500000000       -0.36417600000000
N          103.71408500000000        1.48892400000000       -0.46668300000000
C          102.50128900000000       -4.74755700000000        1.68309700000000
C          102.03972200000000       -5.68260400000000        0.74973900000000
C          102.00585000000000       -7.04782700000000        1.06147900000000
C          101.46877000000001       -8.03017300000000        0.06594500000000
C          102.42071499999999       -7.46829400000000        2.33345500000000
C          102.89831599999998       -6.54640900000000        3.27573200000000
C          103.31515899999999       -6.99410000000000        4.64326600000000
C          102.92387600000001       -5.18578100000000        2.94459500000000
H           97.94911200000000       -2.00083100000000        2.10235300000000
H           99.93344200000000       -3.72102700000000        2.78182900000000
H          101.47021299999999       -0.88282300000000        0.08196200000000
H          105.12418200000000       -4.33520700000000        1.11854000000000
H          106.88105000000000       -2.60215100000000        0.41533300000000
H          106.56496199999998        2.88817900000000        0.30421300000000
H          104.58093699999999        4.63544300000000       -0.30458700000000
H          101.24232799999999        5.75657200000000       -0.13412700000000
H          102.05109399999999        8.78744700000000       -0.57537400000000
H          100.73985199999998        9.05650900000000       -1.75102600000000
H          100.43361500000000        8.09313900000000       -0.30639400000000
H          102.13429700000000        8.14208000000000       -3.61446800000000
H          102.83439199999998        5.20513500000000       -5.76135000000000
H          104.13148700000001        6.27429900000000       -5.17211000000000
H          102.58574099999998        6.95038400000000       -5.74123800000000
H          102.82057800000000        3.88487200000000       -3.64277000000000
H           99.39554400000000        4.01404900000000       -1.98416900000000
H           97.63885199999999        2.24367200000000       -1.38437900000000
H          103.05049199999999        0.72208000000000       -0.52433300000000
H          101.70355700000000       -5.32382300000000       -0.22167600000000
H          101.91919500000000       -9.01803700000000        0.20891600000000
H          101.69865700000000       -7.71457100000000       -0.95727800000000
H          100.38333799999999       -8.11823500000000        0.17471300000000
H          102.37202499999998       -8.52288900000000        2.59175200000000
H          104.10287599999998       -6.34713800000000        5.04365200000000
H          103.71523000000001       -8.01307400000000        4.61606700000000
H          102.45766399999998       -6.96979700000000        5.32280500000000
H          103.27043900000000       -4.44271000000000        3.66102200000000
C          112.37882000000000        0.00692700000000        0.01765000000000
C          113.17020499999998       -1.13284300000000        0.78360400000000
C          112.65719499999999       -1.99902100000000        1.72790200000000
C          113.69392900000000       -2.89806200000000        2.08587600000000
C          114.80993299999999       -2.54821300000000        1.35512500000000
N          114.50167900000000       -1.42928300000000        0.62221400000000
C          116.20275099999999       -3.30326400000000        1.34921900000000
C          117.33674399999998       -2.63772900000000        1.00513100000000
C          118.62482299999999       -3.29532200000000        0.92570300000000
C          119.53180999999998       -2.39654100000000        0.55843300000000
N          117.54350700000001       -1.32945200000000        0.66421900000000
C          118.86823600000000       -1.11927700000000        0.38876700000000
C          119.53199699999999        0.00692700000000        0.01765000000000
C          118.73990599999999        1.36993700000000       -0.14486100000000
C          119.25036700000000        2.64265800000000        0.01453400000000
C          118.21389400000000        3.55754100000000       -0.30154200000000
C          117.10052200000000        2.81553500000000       -0.63606000000000
C          115.70855499999999        3.38358400000000       -1.13476500000000
C          115.71381800000000        4.69428100000000       -1.82709300000000
C          115.28610500000001        5.85020200000000       -1.16155900000000
C          115.30680399999999        7.09498100000000       -1.80302900000000
C          114.88281800000000        8.32846200000000       -1.06595900000000
C          115.78545499999998        7.17598600000000       -3.11846200000000
C          116.20615799999999        6.02684100000000       -3.80321100000000
C          116.74431900000000        6.11954700000000       -5.19815400000000
C          116.17673299999998        4.79115000000000       -3.14420000000000
C          114.57455799999998        2.65484500000000       -0.96062200000000
C          113.28668100000000        3.10091200000000       -1.45061800000000
C          112.37957699999998        2.18076400000000       -1.14138900000000
C          113.04292299999999        1.10238500000000       -0.43596700000000
N          114.36763299999998        1.44149500000000       -0.36417600000000
N          117.40991099999999        1.48892400000000       -0.46668300000000
C          116.19711399999998       -4.74755700000000        1.68309700000000
C          115.73554799999999       -5.68260400000000        0.74973900000000
C          115.70167600000001       -7.04782700000000        1.06147900000000
C          115.16459500000001       -8.03017300000000        0.06594500000000
C          116.11653999999999       -7.46829400000000        2.33345500000000
C          116.59414099999998       -6.54640900000000        3.27573200000000
C          117.01098399999999       -6.99410000000000        4.64326600000000
C          116.61970200000000       -5.18578100000000        2.94459500000000
H          111.64493700000000       -2.00083100000000        2.10235300000000
H          113.62926800000000       -3.72102700000000        2.78182900000000
H          115.16603900000000       -0.88282300000000        0.08196200000000
H          118.82000799999999       -4.33520700000000        1.11854000000000
H          120.57687500000000       -2.60215100000000        0.41533300000000
H          120.26078799999999        2.88817900000000        0.30421300000000
H          118.27676199999999        4.63544300000000       -0.30458700000000
H          114.93815399999998        5.75657200000000       -0.13412700000000
H          115.74692000000000        8.78744700000000       -0.57537400000000
H          114.43567799999998        9.05650900000000       -1.75102600000000
H          114.12944100000000        8.09313900000000       -0.30639400000000
H          115.83012300000000        8.14208000000000       -3.61446800000000
H          116.53021799999999        5.20513500000000       -5.76135000000000
H          117.82731300000000        6.27429900000000       -5.17211000000000
H          116.28156599999998        6.95038400000000       -5.74123800000000
H          116.51640399999999        3.88487200000000       -3.64277000000000
H          113.09136999999998        4.01404900000000       -1.98416900000000
H          111.33467800000000        2.24367200000000       -1.38437900000000
H          116.74631699999999        0.72208000000000       -0.52433300000000
H          115.39938300000000       -5.32382300000000       -0.22167600000000
H          115.61502000000000       -9.01803700000000        0.20891600000000
H          115.39448299999999       -7.71457100000000       -0.95727800000000
H          114.07916400000001       -8.11823500000000        0.17471300000000
H          116.06785099999999       -8.52288900000000        2.59175200000000
H          117.79870199999999       -6.34713800000000        5.04365200000000
H          117.41105599999999       -8.01307400000000        4.61606700000000
H          116.15348999999999       -6.96979700000000        5.32280500000000
H          116.96626499999999       -4.44271000000000        3.66102200000000
C          126.07464600000000        0.00692700000000        0.01765000000000
C          126.86603099999999       -1.13284300000000        0.78360400000000
C          126.35302099999998       -1.99902100000000        1.72790200000000
C          127.38975400000000       -2.89806200000000        2.08587600000000
C          128.50575900000001       -2.54821300000000        1.35512500000000
N          128.19750500000001       -1.42928300000000        0.62221400000000
C          129.89857599999999       -3.30326400000000        1.34921900000000
C          131.03256999999999       -2.63772900000000        1.00513100000000
C          132.32064900000000       -3.29532200000000        0.92570300000000
C          133.22763599999999       -2.39654100000000        0.55843300000000
N          131.23933299999999       -1.32945200000000        0.66421900000000
C          132.56406100000001       -1.11927700000000        0.38876700000000
C          133.22782300000000        0.00692700000000        0.01765000000000
C          132.43573200000000        1.36993700000000       -0.14486100000000
C          132.94619200000000        2.64265800000000        0.01453400000000
C          131.90971999999999        3.55754100000000       -0.30154200000000
C          130.79634799999999        2.81553500000000       -0.63606000000000
C          129.40438000000000        3.38358400000000       -1.13476500000000
C          129.40964299999999        4.69428100000000       -1.82709300000000
C          128.98193000000001        5.85020200000000       -1.16155900000000
C          129.00263000000001        7.09498100000000       -1.80302900000000