136
 energy: -214.572256424314 gnorm: 19.951935369455 xtb: 6.5.1 (b24c23e)
Ni          18.28851000000000        1.95946200000000        1.63106400000000
C           14.53741900000000        0.06597800000000       -0.02857600000000
C           15.18705100000000        0.91918000000000        0.76853200000000
C           14.52234400000000        1.83781900000000        1.68487300000000
C           15.45255000000000        2.55097700000000        2.29213800000000
C           16.76478100000000        2.12998800000000        1.78202300000000
N           16.60298300000000        1.08581200000000        0.82113100000000
C           17.95019400000000        2.66027700000000        2.14860200000000
C           17.98405600000000        3.77376000000000        3.12449400000000
C           17.49625500000000        5.04086600000000        2.77382300000000
C           17.54445400000000        6.09271900000000        3.69253200000000
C           18.08551000000000        5.89826800000000        4.97331300000000
N           18.12196600000000        7.00159000000000        5.89730700000000
C           18.66337800000000        6.90404500000000        7.24882900000000
C           18.58093100000000        4.62598900000000        5.31880100000000
C           18.53133000000000        3.57422000000000        4.39941700000000
C           19.24933200000000        2.18175800000000        1.60699000000000
C           20.52613500000000        2.87584000000000        1.81480600000000
C           21.47058800000000        2.16610400000000        1.23153500000000
N           19.40549100000000        1.09211900000000        0.91948300000000
C           20.80359800000000        1.01158600000000        0.64228700000000
C           21.41038000000000        0.00021300000000        0.00006000000000
C           20.65976000000000       -1.13326300000000       -0.58443200000000
C           21.20149300000000       -2.30068900000000       -0.90782100000000
C           20.16942700000000       -3.09198200000000       -1.54924000000000
C           19.06646700000000       -2.35290800000000       -1.57953500000000
N           19.28613400000000       -1.07990300000000       -0.96985500000000
C           17.79591300000000       -2.76858400000000       -2.22715700000000
C           17.83446600000000       -3.86961100000000       -3.22036800000000
C           18.58018200000000       -3.72623500000000       -4.39903100000000
C           18.63721400000000       -4.76703500000000       -5.33038000000000
C           17.95132600000000       -5.97379700000000       -5.09316100000000
N           17.99006700000000       -7.06414600000000       -6.03234500000000
C           18.72679200000000       -7.01849900000000       -7.29106300000000
C           17.21375700000000       -6.11490200000000       -3.90719000000000
C           17.15805200000000       -5.07417600000000       -2.97634300000000
C           16.62714900000000       -2.16631300000000       -1.93477900000000
C           15.32677300000000       -2.46308400000000       -2.53333000000000
C           14.45447500000000       -1.68682900000000       -1.91976500000000
C           15.18922800000000       -0.88612500000000       -0.94184900000000
N           16.45610900000000       -1.15714300000000       -0.94174100000000
H           13.45382000000000        0.06895700000000       -0.01010600000000
H           13.45690400000000        1.92726400000000        1.85395600000000
H           15.25318500000000        3.30998300000000        3.03722000000000
H           17.08052600000000        5.21291400000000        1.78850700000000
H           17.16067100000000        7.06328000000000        3.40424300000000
H           17.74238600000000        7.92733300000000        5.59409400000000
H           19.73569200000000        6.61924400000000        7.20705400000000
H           18.09337600000000        6.14987400000000        7.83108800000000
H           18.57740600000000        7.88568000000000        7.76090100000000
H           19.00744300000000        4.43809300000000        6.29456000000000
H           18.91842800000000        2.60244600000000        4.68092400000000
H           20.68599100000000        3.80474300000000        2.34630600000000
H           22.52276300000000        2.41705400000000        1.21222900000000
H           22.22822100000000       -2.60344500000000       -0.75158700000000
H           20.28874600000000       -4.08954700000000       -1.95175100000000
H           19.11524400000000       -2.80550700000000       -4.59763000000000
H           19.21856800000000       -4.62201300000000       -6.23056100000000
H           17.46505000000000       -7.94067000000000       -5.81084700000000
H           18.33842100000000       -6.19539500000000       -7.92696900000000
H           18.60025700000000       -7.97740600000000       -7.83669200000000
H           19.80806000000000       -6.86500200000000       -7.09106000000000
H           16.68249600000000       -7.03575400000000       -3.70176000000000
H           16.59097400000000       -5.20759500000000       -2.06316000000000
H           15.09645800000000       -3.16871100000000       -3.32060600000000
H           13.39124700000000       -1.65509500000000       -2.11845400000000
Ni          30.35399900000000       -2.01899800000000       -1.55609500000000
C           34.10509000000000        0.01380900000000       -0.07036900000000
C           33.45545700000000       -0.95026000000000       -0.72908300000000
C           34.12016400000000       -2.04496700000000       -1.42564200000000
C           33.18995900000000       -2.79321000000000       -1.98911100000000
C           31.87772800000000       -2.20352700000000       -1.68957300000000
N           32.03952600000000       -1.03795100000000       -0.88022300000000
C           30.69231500000000       -2.67698200000000       -2.12709600000000
C           30.65845200000000       -3.87232000000000       -3.00081100000000
C           31.14625400000000       -3.80658100000000       -4.31390000000000
C           31.09805500000000       -4.93266700000000       -5.13994700000000
C           30.55699800000000       -6.14015700000000       -4.67071600000000
N           30.52054300000000       -7.28263100000000       -5.54583700000000
C           29.97913100000000       -8.58030300000000       -5.15574100000000
C           30.06157700000000       -6.19971000000000       -3.35370800000000
C           30.11117900000000       -5.07298400000000       -2.52789100000000
C           29.39317600000000       -2.04400800000000       -1.77828700000000
C           28.11637400000000       -2.39826500000000       -2.41030000000000
C           27.17192000000000       -1.67418500000000       -1.84493500000000
N           29.23701800000000       -1.13530800000000       -0.86491800000000
C           27.83891000000000       -0.84721900000000       -0.84680900000000
C           27.23212900000000        0.00021300000000        0.00006000000000
C           27.98274800000000        0.81794600000000        0.97868800000000
C           27.44101500000000        1.38827400000000        2.04742100000000
C           28.47308100000000        2.18689700000000        2.67969000000000
C           29.57604200000000        2.05519700000000        1.95181400000000
N           29.35637400000000        1.18243800000000        0.84251500000000
C           30.84659500000000        2.77791300000000        2.21616400000000
C           30.80804300000000        3.98743600000000        3.07394300000000
C           30.06232600000000        5.10641400000000        2.67683700000000
C           30.00529400000000        6.24242300000000        3.48933900000000
C           30.69118200000000        6.27423500000000        4.71878400000000
N           30.65244100000000        7.42870200000000        5.57793100000000
C           29.91571600000000        8.64713000000000        5.25873200000000
C           31.42875200000000        5.14762900000000        5.11526700000000
C           31.48445600000000        4.01212700000000        4.30272900000000
C           32.01535900000000        2.36116600000000        1.69220200000000
C           33.31573600000000        3.01004900000000        1.85121800000000
C           34.18803400000000        2.24189000000000        1.22754700000000
C           33.45328100000000        1.11282500000000        0.65951700000000
N           32.18640000000000        1.17185500000000        0.92402800000000
H           35.18868900000000       -0.00486500000000       -0.06924500000000
H           35.18560500000000       -2.22949300000000       -1.47603700000000
H           33.38932300000000       -3.68595400000000       -2.56725200000000
H           31.56198300000000       -2.88254700000000       -4.69679800000000
H           31.48183800000000       -4.86310000000000       -6.15002500000000
H           30.90012200000000       -7.18872000000000       -6.51543400000000
H           28.90681700000000       -8.47739100000000       -4.88691800000000
H           30.54913200000000       -8.98397300000000       -4.29269400000000
H           30.06510300000000       -9.29422800000000       -6.00198900000000
H           29.63506500000000       -7.11095900000000       -2.95742900000000
H           29.72408100000000       -5.13566700000000       -1.51810800000000
H           27.95651700000000       -3.11964400000000       -3.20084700000000
H           26.11974600000000       -1.71010100000000       -2.09405000000000
H           26.41428800000000        1.30186500000000        2.37697300000000
H           28.35376300000000        2.79737700000000        3.56539100000000
H           29.52726500000000        5.09932500000000        1.73496100000000
H           29.42394100000000        7.08927000000000        3.15139300000000
H           31.17745800000000        7.40379800000000        6.48166500000000
H           30.30408800000000        9.08811200000000        4.31670700000000
H           30.04225200000000        9.38884400000000        6.07547800000000
H           28.83444799999999        8.41845300000000        5.15257500000000
H           31.96001300000000        5.14808000000000        6.05875500000000
H           32.05153500000000        3.15005900000000        4.63218900000000
H           33.54605100000000        3.93232300000000        2.36805900000000
H           35.25126100000000        2.42886700000000        1.15322400000000
C           23.58735700000000        0.01214500000000        0.00235900000000
C           22.33508700000000       -0.00703600000000       -0.00198900000000
C           24.90102500000000        0.01137900000000        0.00429200000000
C           26.40415900000000       -0.00703600000000       -0.00198900000000
136
 energy: -222.834446450815 gnorm: 3.799166050485 xtb: 6.5.1 (b24c23e)
Ni          18.22558079843983        1.78738342270151        1.53074015414464
C           14.53755294773903        0.06472532509983       -0.02977067279225
C           15.18769504111970        0.91969307187280        0.76907509533761
C           14.52178468561717        1.83701987859591        1.68415889591916
C           15.45300520988539        2.55129973933098        2.29251636119754
C           16.75174814423521        2.12863738021119        1.78167823032664
N           16.60047235193223        1.08649924124813        0.82161891873508
C           17.87982907180021        2.80574015622923        2.25704330052831
C           17.98289050841939        3.77597616684773        3.12584861284252
C           17.49626026946804        5.04139124023457        2.77431849752522
C           17.54447730584229        6.09250161719784        3.69240827779822
C           18.08557093767782        5.89902550647805        4.97404607231420
N           18.12171714374699        7.00135240351365        5.89647137424052
C           18.66338451961181        6.90401634207772        7.24882154092351
C           18.58086158221629        4.62591850451582        5.31858369599585
C           18.53129626616374        3.57467620075366        4.39971911701540
C           19.39029646142640        2.21463748331393        1.60391094082884
C           20.52737558363749        2.87676065447955        1.81523513063418
C           21.47137628321384        2.16476762474874        1.23060011375329
N           19.41245997749457        1.08564875710604        0.91390064185623
C           20.79996054258918        1.01441998801773        0.64425722813692
C           21.37012974118587       -0.00141694594862       -0.00089315869344
C           20.65593002093857       -1.13257595198565       -0.58502925090238
C           21.20170990916801       -2.30283068752588       -0.90867504835146
C           20.17170100735165       -3.09255660531855       -1.54891528314112
C           19.06461131801822       -2.35149670034267       -1.57970578253071
N           19.28722665943627       -1.08056310682065       -0.96981160822339
C           17.79733126069468       -2.76837922164821       -2.22673633022813
C           17.83460157112660       -3.86961529950130       -3.22024543067553
C           18.58008762758982       -3.72664764909695       -4.39906947975689
C           18.63708157973345       -4.76702048401845       -5.33016951300303
C           17.95139941925803       -5.97440569245513       -5.09377836794927
N           17.98973093097643       -7.06399343587649       -6.03162968067325
C           18.72678126317996       -7.01847586143948       -7.29102527774832
C           17.21382111960741       -6.11469055509111       -3.90713660940622
C           17.15815458231895       -5.07424777850549       -2.97673494188982
C           16.62644170006707       -2.16565976298723       -1.93428725689644
C           15.32742722725671       -2.46345455789483       -2.53357670498876
C           14.45367520090921       -1.68624790638404       -1.91931807901502
C           15.18796395432460       -0.88546421369999       -0.94130065824182
N           16.45668484282280       -1.15797500501686       -0.94248444355064
H           13.45380596939488        0.06893772827575       -0.01016961853050
H           13.45693296373672        1.92714163701884        1.85384063612068
H           15.25344896602702        3.31000692053421        3.03720360755732
H           17.08052608958838        5.21288077692984        1.78851499098237
H           17.16067570774944        7.06330626526460        3.40425946693382
H           17.74268545813659        7.92652464421858        5.59427335879446
H           19.73541161840919        6.61929040898674        7.20712023859885
H           18.09357208832078        6.15005589590847        7.83097325907949
H           18.57739995626358        7.88537126133070        7.76065291435967
H           19.00744614358996        4.43812134567127        6.29457998395300
H           18.91841303166105        2.60243102390598        4.68090737956061
H           20.68578804865608        3.80480885763218        2.34638445929113
H           22.52274764608835        2.41687787035859        1.21210394992744
H           22.22821694629918       -2.60350536870506       -0.75157601082378
H           20.28881997573485       -4.08954404637021       -1.95168989876618
H           19.11523070628376       -2.80551172592311       -4.59760870824634
H           19.21856822478019       -4.62204425908810       -6.23059893356631
H           17.46546746314893       -7.93989986770547       -5.81096548944623
H           18.33857829696990       -6.19559468642639       -7.92684047002188
H           18.60025450586842       -7.97710679523383       -7.83644811552311
H           19.80779771569081       -6.86501115797997       -7.09117098707191
H           16.68249790177368       -7.03579369413409       -3.70177900194012
H           16.59098826530142       -5.20757661309502       -2.06316017265548
H           15.09664784379356       -3.16871778960020       -3.32057989677163
H           13.39121881756430       -1.65498632475088       -2.11835481731301
Ni          30.41687271463650       -1.88367087532462       -1.41015596679427
C           34.10495517935386        0.01521316871629       -0.06943095927405
C           33.45482422109261       -0.95087309653377       -0.72945318375823
C           34.12072714018956       -2.04412650844886       -1.42504055091284
C           33.18955976839280       -2.79363299124721       -1.98932326767022
C           31.89077393292926       -2.20289502068457       -1.68831831125272
N           32.04209284436227       -1.03854956606260       -0.88076618176626
C           30.76276887076839       -2.81455345997882       -2.24539816490060
C           30.65960095584517       -3.87412361353646       -3.00268268030943
C           31.14624886098906       -3.80717864718303       -4.31430326512236
C           31.09803208907298       -4.93250183427934       -5.13976157467745
C           30.55693713127864       -6.14103405425682       -4.67129237674326
N           30.52079188651187       -7.28176725050937       -5.54579087056803
C           29.97912447941322       -8.58028881477435       -5.15571488912980
C           30.06164876830003       -6.19948447207644       -3.35368817156694
C           30.11121242831237       -5.07337773982717       -2.52827099874744
C           29.25214816420835       -2.04813030814869       -1.81100081224062
C           28.11517631728753       -2.39890275801787       -2.41111776902436
C           27.17110103593520       -1.67291061303096       -1.84375747442397
N           29.22996865612554       -1.12845975231910       -0.85982067824949
C           27.84355508190891       -0.85022939040438       -0.84962757668454
C           27.30015558573778        0.00212220051531        0.00172376498914
C           27.98742026161602        0.81882600693878        0.97842393541089
C           27.44072697041054        1.38951646307346        2.04926606663808
C           28.47081855825727        2.18669768801671        2.68030311885069
C           29.57784444110509        2.05500857479727        1.95036960720588
N           29.35528116774033        1.18256071292728        0.84315483210080
C           30.84522252088088        2.77746051591871        2.21605099738203
C           30.80790440699028        3.98731620868650        3.07397050443071
C           30.06241801647624        5.10654354181394        2.67723181596621
C           30.00542572120290        6.24221349405103        3.48936855031528
C           30.69110857832842        6.27497653802847        4.71924818312270
N           30.65277701536542        7.42796548014153        5.57793404374122
C           29.91572589665273        8.64708938498725        5.25871725442657
C           31.42868865884265        5.14752825887562        5.11507158725767
C           31.48435527812227        4.01252524869595        4.30271497195822
C           32.01604493976354        2.36056461501700        1.69169366345897
C           33.31508568075888        3.01037056287797        1.85152616432076
C           34.18883026350329        2.24133114908568        1.22707849623687
C           33.45451720803472        1.11215972714212        0.65900537587207
N           32.18584539559333        1.17274607176874        0.92466209680713
H           35.18870397780397       -0.00479757840659       -0.06923808341006
H           35.18557731381726       -2.22935266094162       -1.47594217802874
H           33.38905884967717       -3.68594233752892       -2.56727788675048
H           31.56198238236655       -2.88254704065954       -4.69676435307291
H           31.48183338265603       -4.86312185586102       -6.15004721748046
H           30.89982228516280       -7.18871876276158       -6.51460581329704
H           28.90709716412760       -8.47746598023975       -4.88694876908678
H           30.54893596234797       -8.98390097237689       -4.29289627659891
H           30.06510900889563       -9.29391864574742       -6.00174185516761
H           29.63506199096838       -7.11098497099742       -2.95745228055729
H           29.72409534728095       -5.13564754165604       -1.51809676851897
H           27.95671329130572       -3.11973023116197       -3.20089088150509
H           26.11975436096955       -1.70992785965502       -2.09389251991507
H           26.41428811918365        1.30186244189225        2.37702578434911
H           28.35368395997051        2.79731101812819        3.56539742235491
H           29.52727837595137        5.09930551612218        1.73497013121534
H           29.42394111355516        7.08931338942306        3.15141509662733
H           31.17704069600545        7.40374542592406        6.48088772052836
H           30.30393079780813        9.08802979474190        4.31693025972011
H           30.04225461011246        9.38854024009576        6.07523904725096
H           28.83471073279681        8.41856313489509        5.15255988260838
H           31.96001082250484        5.14810679885232        6.05878903995306
H           32.05152059137125        3.15005508922375        4.63217093038441
H           33.54586096603371        3.93229853447119        2.36807111446826
H           35.25128825828990        2.42874620646030        1.15313976992827
C           23.59441520909711        0.01220156291814        0.00236094798132
C           22.37543483804851       -0.00785127891196       -0.00253020783944
C           24.89981914026180        0.01134156754048        0.00424426506908
C           26.32842644026102       -0.00680443925454       -0.00157737376346
136
 energy: -223.807529184676 gnorm: 2.174241680623 xtb: 6.5.1 (b24c23e)
Ni          18.17326569285388        1.75794130290626        1.52392056206333
C           14.53864170983114        0.05671269914359       -0.03729572993600
C           15.18941575657254        0.92004799389333        0.77270433098446
C           14.51699353632903        1.83202334284644        1.67933709373807
C           15.45082239005463        2.55214898218070        2.29756950990010
C           16.71012089046035        2.12914014270808        1.78168680356841
N           16.58139754059341        1.09590041789631        0.82397137326568
C           17.88228586243564        2.79411589132280        2.24896279703888
C           17.98412387299827        3.79024476053773        3.13608966846952
C           17.49436470719563        5.05130368811851        2.77900570539881
C           17.54484597637978        6.09289837057384        3.69225455290176
C           18.08599330928775        5.90418162349267        4.97883592831592
N           18.12042306224109        6.99938816682201        5.89157095685796
C           18.66301899482682        6.90367577063891        7.24744791825644
C           18.58051778683340        4.62645008169829        5.31836494062760
C           18.53373135379281        3.57982155683316        4.40709564591199
C           19.43678875705231        2.24101222951608        1.61653360858186
C           20.53402834538675        2.89368886621438        1.82461885993279
C           21.47991788769145        2.15530817575290        1.22323017586241
N           19.44482731251328        1.07627742125612        0.90387379414590
C           20.77896735816365        1.03268675096266        0.65408586100054
C           21.27865231160730       -0.01147055317408       -0.00683250792856
C           20.62729151873189       -1.13220517680217       -0.59036204001094
C           21.20131648515897       -2.31644166567678       -0.91461109929141
C           20.18535355472613       -3.09618688070190       -1.54781220026244
C           19.05530111675821       -2.34296250613141       -1.58084683206759
N           19.28843876671612       -1.08647863968271       -0.97137231637564
C           17.80595331588892       -2.76569604539372       -2.22345885537099
C           17.83651614045090       -3.86951184888921       -3.21870911855085
C           18.57941109286284       -3.72984677454343       -4.39900940542365
C           18.63584058029222       -4.76790555668127       -5.32914042884155
C           17.95171004594083       -5.97844370752263       -5.09763867582331
N           17.98783705973972       -7.06233792737346       -6.02702631236037
C           18.72605479082819       -7.01805840723291       -7.28950051665768
C           17.21453739560225       -6.11356951979262       -3.90769621870567
C           17.15888571191908       -5.07431229291058       -2.97967061838224
C           16.62343669125458       -2.16202760380003       -1.93148322517238
C           15.33049934792893       -2.46466912706938       -2.53416860484520
C           14.44818575978450       -1.68264421745451       -1.91653419554356
C           15.18037008667752       -0.88232891386157       -0.93809407194385
N           16.45836064989872       -1.16327169074231       -0.94769085509596
H           13.45401403030148        0.06855991931536       -0.01151585886984
H           13.45619352678645        1.92546526685222        1.85202751656584
H           15.25606370363874        3.31098064623265        3.03772436701795
H           17.08078549549024        5.21290182631576        1.78916073459270
H           17.16080667290717        7.06372375365270        3.40443499897654
H           17.74522220609076        7.91928046261882        5.59536170943320
H           19.73276509837274        6.61970576202856        7.20778138006284
H           18.09553596248482        6.15177367450122        7.82988921520858
H           18.57731023268537        7.88246719788886        7.75808787306607
H           19.00737217763115        4.43841167760864        6.29477242970746
H           18.91807184923932        2.60291128406569        4.68079193249276
H           20.68602442972419        3.80874220075336        2.34894318827558
H           22.52479140088003        2.41347292705307        1.20955050494668
H           22.22843251707084       -2.60453615300075       -0.75147686269059
H           20.29044188169598       -4.09035558397674       -1.95121297513431
H           19.11481115512004       -2.80612777245882       -4.59735575167719
H           19.21832924319849       -4.62234700019410       -6.23065610518832
H           17.46887062867220       -7.93296522331009       -5.81149796609584
H           18.34008377197535       -6.19745567706161       -7.92559350067216
H           18.60005624583779       -7.97422072684627       -7.83389053325859
H           19.80524001340904       -6.86503355725251       -7.09224998485489
H           16.68261626588218       -7.03585759388862       -3.70193745776147
H           16.59140027633734       -5.20735961276946       -2.06366102078036
H           15.09897686001229       -3.16895944056597       -3.32043351573164
H           13.38989125428167       -1.65361502235012       -2.11731704383650
Ni          30.46919017230957       -1.87051400602384       -1.38278164508312
C           34.10385330726005        0.02432498303851       -0.06324052821740
C           33.45306582356487       -0.95454500940647       -0.72902606242425
C           34.12554189037755       -2.03833978037117       -1.42121676741166
C           33.19175643518688       -2.79878942629430       -1.98901128693935
C           31.93243367898422       -2.20301918030510       -1.68882228524874
N           32.06111300885089       -1.04280353732605       -0.88943480065871
C           30.76033316185768       -2.80409262366702       -2.23587224681444
C           30.65839664120750       -3.88725818320283       -3.01440337039608
C           31.14815664858466       -3.81391537099274       -4.32293338483626
C           31.09765221676179       -4.93244671556269       -5.14018130183604
C           30.55651284473804       -6.14683485615837       -4.67527673643449
N           30.52208639658211       -7.27655612760330       -5.54494442856499
C           29.97948957984129       -8.57887369191308       -5.15568104902901
C           30.06200281957422       -6.19939068950446       -3.35426740566226
C           30.10877362443491       -5.08166399361919       -2.53168644289560
C           29.20553297212763       -2.06639437886476       -1.83421567238304
C           28.10888404756730       -2.41183121435457       -2.42557310954665
C           27.16256469475759       -1.66373622168595       -1.83627744157163
N           29.19722339912887       -1.11674322329429       -0.85280718002617
C           27.86139349928778       -0.86506369105355       -0.86680530016278
C           27.36960223010601        0.01152483606490        0.01071391161649
C           28.01484821049134        0.82509669424035        0.97792132223316
C           27.44115475137314        1.39845934446048        2.06169042115666
C           28.45725382579625        2.18646297512474        2.68408172191120
C           29.58710050016775        2.05428895319140        1.94187087226055
N           29.35358856827601        1.18515994779745        0.84838010686741
C           30.83655226912749        2.77365193403108        2.21415326886652
C           30.80598815894089        3.98578452300570        3.07419932868013
C           30.06309194719653        5.10718107540580        2.68036735804502
C           30.00666814029700        6.24140075694732        3.49045531198594
C           30.69079712260147        6.27962674620601        4.72234895133563
N           30.65467149466696        7.42310947899988        5.57732063439818
C           29.91645184847557        8.64550997821079        5.25864285705808
C           31.42797240433973        5.14782772589103        5.11385493940338
C           31.48362666011977        4.01540311642186        4.30213612309408
C           32.01907464229615        2.35701884162651        1.68874488137817
C           33.31200816996209        3.01121141827595        1.85257623751611
C           34.19432792148834        2.23782115283757        1.22416774192120
C           33.46214267211045        1.10834556739629        0.65664154757613
N           32.18415015524045        1.17899470885609        0.92871071402173
H           35.18849074757732       -0.00339957974018       -0.06916776947457
H           35.18632258649895       -2.22721226480443       -1.47470319288391