242
 energy: -416.067907338118 gnorm: 0.879781651191 xtb: 6.5.1 (b24c23e)
Cu          43.44509800000000        0.48929000000000        0.37263200000000
C           40.11055500000000        0.36312500000000        0.33097300000000
C           40.77144599999999       -0.79827400000000        0.33174100000000
C           40.11956199999999       -2.10095600000000        0.38213800000000
C           41.05825600000000       -3.02784500000000        0.32728300000000
C           42.36314099999999       -2.35983800000000        0.22803000000000
N           42.18754200000000       -0.94245100000000        0.24240700000000
C           43.55357800000000       -2.98604300000000        0.11316700000000
C           43.60482099999999       -4.46669200000000        0.06388700000000
C           43.13411900000000       -5.12734600000000       -1.00492600000000
C           43.12325900000000       -6.63298600000000       -1.07911800000000
N           43.92692000000000       -7.25044900000000       -0.02099200000000
C           44.37367400000000       -6.52216600000000        1.12733600000000
C           44.22449099999999       -5.20081600000000        1.18396700000000
C           44.84396900000000       -2.25149900000000        0.03597900000000
C           46.12425000000000       -2.88103200000000       -0.31149600000000
C           47.05875399999999       -1.95356400000000       -0.25121800000000
N           44.98973899999999       -0.98839300000000        0.29522800000000
C           46.38275500000000       -0.72136200000000        0.13459300000000
C           46.97876600000000        0.45831600000000        0.37418600000000
C           46.21474300000000        1.66759700000000        0.74952400000000
C           46.73887599999999        2.72920300000000        1.34945500000000
C           45.69676700000000        3.73505400000000        1.43278200000000
C           44.60683599999999        3.22131600000000        0.87302800000000
N           44.84498300000000        1.88947200000000        0.41546600000000
C           43.33571100000000        3.96207400000000        0.67241400000000
C           43.37493200000000        5.44596900000000        0.67774500000000
C           42.69826499999999        6.14440700000000        1.60476000000000
C           42.67383600000000        7.65146300000000        1.61603800000000
N           43.68062399999999        8.23458800000000        0.72544800000000
C           44.35690700000000        7.46619700000000       -0.27561000000000
C           44.21834700000000        6.14286900000000       -0.31350100000000
C           42.17436700000000        3.31367900000000        0.45886300000000
C           40.87292900000000        3.92667100000000        0.19739800000000
C           40.00962200000000        2.93241900000000        0.11300700000000
C           40.75152099999999        1.68748500000000        0.30510500000000
N           42.01353400000000        1.89756100000000        0.50737700000000
H           39.02732800000000        0.33813400000000        0.34578800000000
H           39.05666500000000       -2.29198500000000        0.45526300000000
H           40.86892400000000       -4.09258800000000        0.35008500000000
H           42.68709100000000       -4.57727100000000       -1.82516600000000
H           43.52056099999999       -6.94907500000000       -2.06737400000000
H           42.07474100000000       -6.98702200000000       -0.99051900000000
H           44.07773500000000       -8.28334200000000       -0.04774800000000
H           44.85541700000000       -7.04697500000000        1.94286200000000
H           44.58368700000000       -4.65879400000000        2.05101100000000
H           46.29165099999999       -3.91765200000000       -0.57364000000000
H           48.10990200000000       -2.10862400000000       -0.45255000000000
H           47.76030600000000        2.84272400000000        1.68775900000000
H           45.80075599999999        4.73028100000000        1.84592500000000
H           42.09865400000000        5.62232000000000        2.34140600000000
H           42.85878599999999        8.00485000000000        2.65213100000000
H           41.66617599999999        7.99501300000000        1.30052900000000
H           43.82330200000000        9.26839200000000        0.74160800000000
H           44.99772500000000        7.96333500000000       -0.99313200000000
H           44.74677700000000        5.57222300000000       -1.06777800000000
H           40.63477900000000        4.97653200000000        0.08973000000000
H           38.94719700000000        3.03482100000000       -0.06851800000000
Cu          80.40891700000000        0.42839700000000        0.36602000000000
C           83.74345999999998        0.56056400000000        0.35241200000000
C           83.08256900000001        1.69473000000000        0.60244500000000
C           83.73445300000000        2.95623300000000        0.93127500000000
C           82.79575900000000        3.87329400000000        1.07664600000000
C           81.49087400000001        3.24215900000000        0.83632500000000
N           81.66647300000000        1.85472100000000        0.54614000000000
C           80.30043700000000        3.87842400000000        0.85854800000000
C           80.24919400000000        5.33514100000000        1.12822300000000
C           80.71989599999999        6.20980800000000        0.22612300000000
C           80.73075600000000        7.69628000000000        0.47683100000000
N           79.92709499999999        8.07223600000000        1.64282800000000
C           79.48034100000000        7.11445000000000        2.60807300000000
C           79.62952400000000        5.81174100000000        2.37977000000000
C           79.01004500000001        3.17756700000000        0.62549700000000
C           77.72976500000000        3.86701000000000        0.42124300000000
C           76.79526100000000        2.94822000000000        0.28104500000000
N           78.86427600000000        1.88825500000000        0.60759000000000
C           77.47125900000000        1.66192600000000        0.39338400000000
C           76.87524900000000        0.45831600000000        0.37418600000000
C           77.63927200000001       -0.80334300000000        0.48121600000000
C           77.11513900000000       -1.96897500000000        0.83930100000000
C           78.15724700000000       -2.96926800000000        0.70479000000000
C           79.24717800000001       -2.34735800000000        0.26835200000000
N           79.00903199999999       -0.94834500000000        0.10732000000000
C           80.51830400000000       -3.02779200000000       -0.08658300000000
C           80.47908299999999       -4.47824700000000       -0.39988000000000
C           81.15575000000000       -5.35938100000000        0.35561700000000
C           81.18017900000000       -6.83373300000000        0.04315700000000
N           80.17339100000000       -7.21211100000000       -0.95183800000000
C           79.49710700000000       -6.24676200000000       -1.76463700000000
C           79.63566799999998       -4.94614300000000       -1.51760600000000
C           81.67964799999999       -2.34867200000000       -0.15598600000000
C           82.98108599999999       -2.89125700000000       -0.54292900000000
C           83.84439299999998       -1.90206400000000       -0.41194800000000
C           83.10249300000000       -0.72737700000000        0.04288600000000
N           81.84048100000000       -0.97597300000000        0.19535300000000
H           84.82668600000000        0.58179300000000        0.37224500000000
H           84.79734999999999        3.12711400000000        1.04369800000000
H           82.98509100000000        4.90832700000000        1.32745300000000
H           81.16692299999998        5.84860900000000       -0.69306800000000
H           80.33345300000001        8.21712100000000       -0.42054700000000
H           81.77927300000000        8.02304800000000        0.63935600000000
H           79.77627899999999        9.08679800000000        1.83839600000000
H           78.99859800000000        7.45198300000000        3.51723800000000
H           79.27032799999999        5.09624900000000        3.11026700000000
H           77.56236400000000        4.93573600000000        0.38770900000000
H           75.74411300000000        3.14288000000000        0.11768700000000
H           76.09370800000001       -2.15246400000000        1.14535400000000
H           78.05325900000000       -4.02997700000000        0.89468900000000
H           81.75536000000000       -5.00757500000000        1.18715500000000
H           80.99522899999999       -7.40127100000000        0.97925100000000
H           82.18783900000000       -7.10155500000000       -0.33873800000000
H           80.03071300000001       -8.22528900000000       -1.15795100000000
H           78.85629000000000       -6.57830400000000       -2.57214200000000
H           79.10723799999998       -4.22689800000000       -2.13182000000000
H           83.21923599999998       -3.89353900000000       -0.87343000000000
H           84.90681700000000       -1.96311700000000       -0.61122100000000
C           49.52812200000000        0.47075300000000        0.37662700000000
C           48.27585199999999        0.45157200000000        0.37227900000000
C           50.84179000000000        0.46998700000000        0.37856000000000
C           52.34492400000000        0.45157200000000        0.37227900000000
C           61.18974499999999        0.47075300000000        0.37662700000000
C           59.93747400000000        0.45157200000000        0.37227900000000
C           62.50341299999999        0.46998700000000        0.37856000000000
C           64.00654700000000        0.45157200000000        0.37227900000000
C           72.85136700000000        0.47075300000000        0.37662700000000
C           71.59909700000000        0.45157200000000        0.37227900000000
C           74.16503600000000        0.46998700000000        0.37856000000000
C           75.66816899999999        0.45157200000000        0.37227900000000
Cu          55.80655700000000        0.04593000000000       -0.25452600000000
C           52.97290600000000       -0.51389100000000       -0.41993800000000
C           53.29213499999999        0.53143100000000       -1.18493500000000
C           53.08797400000000        1.93193400000000       -0.81033500000000
C           53.89712600000000        2.68367600000000       -1.53808400000000
C           54.76210100000000        1.79323900000000       -2.31575000000000
N           54.34732600000000        0.44183800000000       -2.13502900000000
C           55.99463700000000        2.13105300000000       -2.73365900000000
C           56.33930200000000        3.54705400000000       -3.03179300000000
C           55.54575000000000        4.27973200000000       -3.83144700000000
C           55.85429700000000        5.70987900000000       -4.19309800000000
N           56.98265100000000        6.25046100000000       -3.42913500000000
C           57.84081800000000        5.42964000000000       -2.63498500000000
C           57.55080600000000        4.14849400000000       -2.43823900000000
C           57.09529900000000        1.16424000000000       -2.54073800000000
C           58.22525400000000        0.96477200000000       -3.44995300000000
C           59.12227899999999        0.22675300000000       -2.81271400000000
N           57.30598900000000        0.60987400000000       -1.38968600000000
C           58.58287300000000       -0.00850500000000       -1.47522700000000
C           59.24636100000000       -0.51389100000000       -0.41993800000000
C           58.64409500000000       -0.56247400000000        0.93552400000000
C           59.32233399999999       -0.56805400000000        2.07978500000000
C           58.34812000000000       -0.62504300000000        3.16181100000000
C           57.14012399999999       -0.66082000000000        2.60455900000000
N           57.24288300000000       -0.61948500000000        1.17968300000000
C           55.85167100000000       -0.80464900000000        3.34429200000000
C           55.86594900000000       -1.23700300000000        4.76480300000000
C           56.44487899999999       -2.39806700000000        5.10923200000000
C           56.51497600000000       -2.86014100000000        6.54150700000000
N           55.57269500000000       -2.14195100000000        7.39819200000000
C           55.04583100000000       -0.86172400000000        7.03311100000000
C           55.18671599999999       -0.41548800000000        5.78467000000000
C           54.67688100000000       -0.63790800000000        2.70459500000000
C           53.34630700000000       -1.03427300000000        3.17193600000000
C           52.54588699999999       -0.96135100000000        2.11676100000000
C           53.34239100000000       -0.46789700000000        0.99477300000000
N           54.57519700000000       -0.29222700000000        1.33461700000000
H           52.40864900000000        2.30066100000000       -0.05391100000000
H           53.99822700000000        3.75434000000000       -1.43039400000000
H           54.66994100000000        3.82806200000000       -4.27997100000000
H           56.08824900000000        5.76236800000000       -5.27946800000000
H           54.95367100000000        6.33121500000000       -3.99540600000000
H           57.22411800000000        7.25571500000000       -3.54519200000000
H           58.72068600000000        5.85753200000000       -2.17817500000000
H           58.20351000000000        3.55205500000000       -1.81428900000000
H           58.33069900000000        1.36388600000000       -4.45103000000000
H           60.08044999999999       -0.07908600000000       -3.21114800000000
H           60.39661799999999       -0.52310800000000        2.19232200000000
H           58.57019099999999       -0.65598400000000        4.22172400000000
H           56.93132600000000       -3.00256100000000        4.35840900000000
H           57.54447300000000       -2.70104500000000        6.92068400000000
H           56.28477300000000       -3.94580400000000        6.57975700000000
H           55.41180099999999       -2.49206400000000        8.36945900000000
H           54.50343599999999       -0.27755300000000        7.75824700000000
H           54.76847200000000        0.54990700000000        5.51815200000000
H           53.06747899999999       -1.40206900000000        4.14942900000000
H           51.50555700000000       -1.24641800000000        2.09466200000000
Cu          67.46818000000000        0.04593000000000       -0.25452600000000
C           64.63452900000000       -0.51389100000000       -0.41993800000000
C           64.95375799999999        0.53143100000000       -1.18493500000000
C           64.74959600000000        1.93193400000000       -0.81033500000000
C           65.55874900000001        2.68367600000000       -1.53808400000000
C           66.42372400000001        1.79323900000000       -2.31575000000000
N           66.00894900000000        0.44183800000000       -2.13502900000000
C           67.65625900000001        2.13105300000000       -2.73365900000000
C           68.00092500000000        3.54705400000000       -3.03179300000000
C           67.20737300000000        4.27973200000000       -3.83144700000000
C           67.51591999999999        5.70987900000000       -4.19309800000000
N           68.64427400000000        6.25046100000000       -3.42913500000000
C           69.50244000000001        5.42964000000000       -2.63498500000000
C           69.21242800000000        4.14849400000000       -2.43823900000000
C           68.75692200000000        1.16424000000000       -2.54073800000000
C           69.88687699999998        0.96477200000000       -3.44995300000000
C           70.78390200000000        0.22675300000000       -2.81271400000000
N           68.96761199999999        0.60987400000000       -1.38968600000000
C           70.24449500000000       -0.00850500000000       -1.47522700000000
C           70.90798400000000       -0.51389100000000       -0.41993800000000
C           70.30571700000000       -0.56247400000000        0.93552400000000
C           70.98395699999999       -0.56805400000000        2.07978500000000
C           70.00974300000000       -0.62504300000000        3.16181100000000
C           68.80174700000001       -0.66082000000000        2.60455900000000
N           68.90450600000000       -0.61948500000000        1.17968300000000
C           67.51329300000000       -0.80464900000000        3.34429200000000
C           67.52757099999999       -1.23700300000000        4.76480300000000
C           68.10650200000001       -2.39806700000000        5.10923200000000
C           68.17659800000000       -2.86014100000000        6.54150700000000
N           67.23431800000000       -2.14195100000000        7.39819200000000
C           66.70745300000000       -0.86172400000000        7.03311100000000
C           66.84833800000000       -0.41548800000000        5.78467000000000
C           66.33850400000000       -0.63790800000000        2.70459500000000
C           65.00793000000000       -1.03427300000000        3.17193600000000
C           64.20751000000000       -0.96135100000000        2.11676100000000
C           65.00401400000000       -0.46789700000000        0.99477300000000
N           66.23681999999999       -0.29222700000000        1.33461700000000
H           64.07027200000000        2.30066100000000       -0.05391100000000
H           65.65985000000001        3.75434000000000       -1.43039400000000
H           66.33156300000000        3.82806200000000       -4.27997100000000
H           67.74987200000000        5.76236800000000       -5.27946800000000
H           66.61529400000001        6.33121500000000       -3.99540600000000
H           68.88574100000000        7.25571500000000       -3.54519200000000
H           70.38230899999999        5.85753200000000       -2.17817500000000
H           69.86513300000000        3.55205500000000       -1.81428900000000
H           69.99232200000000        1.36388600000000       -4.45103000000000
H           71.74207300000000       -0.07908600000000       -3.21114800000000
H           72.05824000000000       -0.52310800000000        2.19232200000000
H           70.23181399999999       -0.65598400000000        4.22172400000000
H           68.59294900000000       -3.00256100000000        4.35840900000000
H           69.20609599999999       -2.70104500000000        6.92068400000000
H           67.94639599999999       -3.94580400000000        6.57975700000000
H           67.07342300000001       -2.49206400000000        8.36945900000000
H           66.16505800000000       -0.27755300000000        7.75824700000000
H           66.43009499999999        0.54990700000000        5.51815200000000
H           64.72910100000000       -1.40206900000000        4.14942900000000
H           63.16717900000000       -1.24641800000000        2.09466200000000
242
 energy: -416.414517914034 gnorm: 0.539297698893 xtb: 6.5.1 (b24c23e)
Cu          43.45264119713878        0.48486002379106        0.37321151208470
C           40.11088989372070        0.38004888848796        0.33057530574443
C           40.77706553457239       -0.79980992144673        0.33238310886267
C           40.11928073216165       -2.09409835576278        0.38202181316049
C           41.06840311821671       -3.02981130963174        0.32722704029503
C           42.36199138634929       -2.35546231005321        0.22947270788988
N           42.16909569677988       -0.95841394603347        0.23906957022134
C           43.56792609157510       -2.98352351028166        0.11392463712795
C           43.61015057231522       -4.46574337531400        0.06484215368582
C           43.13417453931817       -5.12822354803292       -0.99896458688647
C           43.12549912535003       -6.63510291629406       -1.07548964699028
N           43.93428293090074       -7.24900887915653       -0.01179865855593
C           44.36814753782374       -6.52715751592575        1.11509181310902
C           44.22320690259578       -5.19630156751234        1.17935283759603
C           44.83599671210619       -2.27261807807000        0.03487890909915
C           46.10740659297108       -2.89424239089475       -0.30958066140171
C           47.05290248591525       -1.94597605924242       -0.24976722142851
N           44.99658526694132       -0.98651485176539        0.28758961314042
C           46.36756303336063       -0.73431254648462        0.13107009620427
C           46.96435225422763        0.46969336098531        0.38177320753278
C           46.19952984120886        1.66541031862912        0.74119362739235
C           46.73861270590458        2.74957298972691        1.35551925154681
C           45.71539483815289        3.73841200243499        1.43544411285008
C           44.59757212830624        3.21426679937113        0.86274273420691
N           44.84695534077947        1.89312057963503        0.42302033164757
C           43.34981515542367        3.95456721040637        0.66986421493933
C           43.38258503432074        5.44130936671899        0.67849926809130
C           42.70000774775767        6.14330949326317        1.59795310605178
C           42.67720259718283        7.65262347781507        1.61286098587375
N           43.68966828494165        8.23253041180989        0.71798216397475
C           44.34835156550124        7.47102782001552       -0.26500846370655
C           44.21586531026625        6.13780401910028       -0.30908684800546
C           42.17417988485043        3.31285574011638        0.45750750002333
C           40.88060637790379        3.92526076577940        0.19890007584418
C           40.00061745728166        2.92081659448118        0.11317965587992
C           40.73229367087911        1.67893377343454        0.30560499003316
N           42.01420750316691        1.90672690474920        0.50583098649570
H           39.02768994982213        0.34360134310810        0.34447233616965
H           39.05701200618734       -2.28426502236465        0.45533982544417
H           40.87843046518007       -4.09342188064493        0.34962839646484
H           42.68847119366125       -4.58174955483667       -1.82514373378514
H           43.51846026730164       -6.95048424143225       -2.06205871990777
H           42.07741951018238       -6.98847999696367       -0.99322814769575
H           44.07491714090857       -8.26662583101572       -0.04492799833610
H           44.85195803297751       -7.05462223482461        1.93315208461317
H           44.58199829639970       -4.65699093628598        2.04838122640269
H           46.28348124760201       -3.92314141604490       -0.57330795354209
H           48.10662663706866       -2.09869683565833       -0.44998549441563
H           47.75987023212424        2.84683181145409        1.69004337591102
H           45.80556330029274        4.73046861452459        1.84810166086249
H           42.09994363455465        5.62665093644041        2.34136597329308
H           42.85779954056262        8.00615967520319        2.64665742449851
H           41.66864164833121        7.99620476060846        1.30353603033872
H           43.82105976392387        9.25155705666554        0.73907719590577
H           44.99223772587658        7.97098270628543       -0.98438458816505
H           44.74481557106051        5.57035665350914       -1.06550181213753
H           40.64374540688923        4.97528799924512        0.09087701476157
H           38.94369048003326        3.02814342863589       -0.06886896608736
Cu          80.40115281574572        0.43293628750292        0.36843590982807
C           83.74331679273523        0.54353825010583        0.34842842930935
C           83.07673300126646        1.69597756636227        0.60380538142484
C           83.73453536049958        2.94906189136048        0.92949347170513
C           82.78494863788659        3.87490774029329        1.07766398026976
C           81.49188791992340        3.23800913283918        0.83714626158723
N           81.68465386622597        1.87041173876878        0.54315116629235
C           80.28615471634976        3.87600412928822        0.85819649523151
C           80.24394016939443        5.33395301873315        1.12885486189239
C           80.71986732967385        6.20940415846037        0.23213249979993
C           80.72851723355704        7.69757293025471        0.48082839165641
N           79.91971641503656        8.06891908823033        1.65142765493605
C           79.48586210075732        7.12182977898312        2.59721701197137
C           79.63085182225926        5.80829913067700        2.37426662150073
C           79.01737725631786        3.20008458175946        0.62949463737842
C           77.74898656579543        3.88005474853502        0.42753953061720
C           76.80219830011310        2.93916547671855        0.27996930294993
N           78.85545295075303        1.88624758057304        0.60133283925646
C           77.48733542840421        1.67963586289116        0.38915723322392
C           76.87943223611714        0.44310994338569        0.37582945241746
C           77.65604116539461       -0.80231112553419        0.47641777187276
C           77.11606564752977       -1.99002479840932        0.84164527771397
C           78.13985277359723       -2.97354272718001        0.70624402279830
C           79.25641840317775       -2.33908391331972        0.25983290514623
N           79.00740194353827       -0.95284468325639        0.11317220332559
C           80.50465730610675       -3.02016392514762       -0.08749837273616
C           80.47150491349402       -4.47391505066870       -0.39818546268524
C           81.15403128915074       -5.35689355727062        0.34921614459390
C           81.17680560330788       -6.83420121016618        0.03979556012141
N           80.16436973375454       -7.20849388674846       -0.95870571822938
C           79.50564649455865       -6.25376008827342       -1.75530870993256
C           79.63815100222195       -4.94214569964048       -1.51220140985594
C           81.67944530682738       -2.34746622657496       -0.15719487942154
C           82.97320180184418       -2.88989319825900       -0.54130288216148
C           83.85315360659318       -1.89052471686976       -0.40923652499721
C           83.12172758567840       -0.71848133660693        0.04530465529436
N           81.83890168769634       -0.98384486819489        0.19343854242989
H           84.82639663277493        0.57664606033383        0.36959503293060
H           84.79687024067199        3.11936686516780        1.04212695602161
H           82.97543729317123        4.90911679597681        1.32719370159240
H           81.16554832787988        5.85300370194637       -0.69209519387932
H           80.33555964599803        8.21738539809939       -0.41507524050207
H           81.77660810745668        8.02506632922587        0.63701806329856
H           79.77912703813675        9.06988906593532        1.83757268620455
H           79.00206128573363        7.46151008911950        3.50940930563583
H           79.27200668449554        5.09504658048234        3.10727603647295
H           77.57115072534901        4.94114079140601        0.38904785038335
H           75.74779800654480        3.13190313248281        0.11806085524144
H           76.09422761677243       -2.15664375884494        1.14649967795473
H           78.04871932843513       -4.03069973374342        0.89670501826204
H           81.75407543290362       -5.01180641481993        1.18619903661464
H           80.99621626964328       -7.40138012901561        0.97362528756953
H           82.18538297532443       -7.10337790574512       -0.33605702862478
H           80.03293603322054       -8.20829925846092       -1.15680297441628
H           78.86177961950217       -6.58764885225939       -2.56523556462602
H           79.10919623911779       -4.22556682309767       -2.12919005641035
H           83.21020375403086       -3.89243164640274       -0.87202990657049
H           84.91018360587509       -1.95643697496334       -0.61013498644116
C           49.56078998910776        0.48138412881239        0.37673036842854
C           48.30228040492605        0.46801708356979        0.37298497991825
C           50.85894468386313        0.46374458191993        0.38960413856127
C           52.26076554048892        0.42704725058591        0.38819057344044
C           61.25168131555780        0.48205684508936        0.39421624034299
C           59.95155492455826        0.44662291575920        0.35327032227981
C           62.51256535149952        0.47994812759727        0.39316915225739
C           63.93724392144785        0.42849920168534        0.38445687263722
C           72.91618923089129        0.47477147307488        0.38946278472746
C           71.62570921153831        0.44669394125209        0.35249919469976
C           74.20401735043441        0.47579278130866        0.38320224754524
C           75.56961935369162        0.44190034063307        0.37033165155417
Cu          55.81164185565143        0.03947678343408       -0.25095475351512
C           52.95312039893273       -0.52713127590014       -0.42797034617922
C           53.31785085142354        0.54454679750053       -1.20346266775225
C           53.08084324856446        1.93955164306921       -0.82579338526311
C           53.90298959994191        2.69326957647194       -1.55127298719816
C           54.75810522698064        1.79235739281979       -2.31247191651254
N           54.35824400293783        0.46172330398539       -2.12016485129238
C           56.00772379040885        2.13708962955305       -2.73485439017648
C           56.34385097671930        3.54363362263674       -3.03068109101175
C           55.54907391858588        4.28041241117492       -3.82824264608826
C           55.85808944924906        5.71097551118707       -4.19049281116117
N           56.98993259045520        6.24903276185790       -3.42158969068040