      -----------------------------------------------------------      
     |                   =====================                   |     
     |                           x T B                           |     
     |                   =====================                   |     
     |                         S. Grimme                         |     
     |          Mulliken Center for Theoretical Chemistry        |     
     |                    University of Bonn                     |     
      -----------------------------------------------------------      

   * xtb version 6.5.1 (b24c23e) compiled by 'conda@728c89f4b128' on 2022-07-12

   xtb is free software: you can redistribute it and/or modify it under
   the terms of the GNU Lesser General Public License as published by
   the Free Software Foundation, either version 3 of the License, or
   (at your option) any later version.
   
   xtb is distributed in the hope that it will be useful,
   but WITHOUT ANY WARRANTY; without even the implied warranty of
   MERCHANTABILITY or FITNESS FOR A PARTICULAR PURPOSE.  See the
   GNU Lesser General Public License for more details.
   
   Cite this work as:
   * C. Bannwarth, E. Caldeweyher, S. Ehlert, A. Hansen, P. Pracht,
     J. Seibert, S. Spicher, S. Grimme, WIREs Comput. Mol. Sci., 2020, 11,
     e01493. DOI: 10.1002/wcms.1493
   
   for GFN2-xTB:
   * C. Bannwarth, S. Ehlert and S. Grimme., J. Chem. Theory Comput., 2019,
     15, 1652-1671. DOI: 10.1021/acs.jctc.8b01176
   for GFN1-xTB:
   * S. Grimme, C. Bannwarth, P. Shushkov, J. Chem. Theory Comput., 2017,
     13, 1989-2009. DOI: 10.1021/acs.jctc.7b00118
   for GFN0-xTB:
   * P. Pracht, E. Caldeweyher, S. Ehlert, S. Grimme, ChemRxiv, 2019, preprint.
     DOI: 10.26434/chemrxiv.8326202.v1
   for GFN-FF:
   * S. Spicher and S. Grimme, Angew. Chem. Int. Ed., 2020, 59, 15665-15673.
     DOI: 10.1002/anie.202004239
   
   for ALPB and GBSA implicit solvation:
   * S. Ehlert, M. Stahn, S. Spicher, S. Grimme, J. Chem. Theory Comput.,
     2021, 17, 4250-4261. DOI: 10.1021/acs.jctc.1c00471
   
   for DFT-D4:
   * E. Caldeweyher, C. Bannwarth and S. Grimme, J. Chem. Phys., 2017,
     147, 034112. DOI: 10.1063/1.4993215
   * E. Caldeweyher, S. Ehlert, A. Hansen, H. Neugebauer, S. Spicher,
     C. Bannwarth and S. Grimme, J. Chem. Phys., 2019, 150, 154122.
     DOI: 10.1063/1.5090222
   * E. Caldeweyher, J.-M. Mewes, S. Ehlert and S. Grimme, Phys. Chem. Chem. Phys.
     2020, 22, 8499-8512. DOI: 10.1039/D0CP00502A
   
   for sTDA-xTB:
   * S. Grimme and C. Bannwarth, J. Chem. Phys., 2016, 145, 054103.
     DOI: 10.1063/1.4959605
   
   in the mass-spec context:
   * V. Asgeirsson, C. Bauer and S. Grimme, Chem. Sci., 2017, 8, 4879.
     DOI: 10.1039/c7sc00601b
   * J. Koopman and S. Grimme, ACS Omega 2019, 4, 12, 15120-15133.
     DOI: 10.1021/acsomega.9b02011
   
   for metadynamics refer to:
   * S. Grimme, J. Chem. Theory Comput., 2019, 155, 2847-2862
     DOI: 10.1021/acs.jctc.9b00143
   
   for SPH calculations refer to:
   * S. Spicher and S. Grimme, J. Chem. Theory Comput., 2021, 17, 1701-1714
     DOI: 10.1021/acs.jctc.0c01306
   
   with help from (in alphabetical order)
   P. Atkinson, C. Bannwarth, F. Bohle, G. Brandenburg, E. Caldeweyher
   M. Checinski, S. Dohm, S. Ehlert, S. Ehrlich, I. Gerasimov, C. Hölzer
   A. Katbashev, J. Koopman, C. Lavigne, S. Lehtola, F. März, M. Müller,
   F. Musil, H. Neugebauer, J. Pisarek, C. Plett, P. Pracht, F. Pultar,
   J. Seibert, P. Shushkov, S. Spicher, M. Stahn, M. Steiner, T. Strunk,
   J. Stückrath, T. Rose, and J. Unsleber
   
 * started run on 2022/07/27 at 22:03:21.206     

           -------------------------------------------------
          |                Calculation Setup                |
           -------------------------------------------------

          program call               : xtb DHP_C4_2.xyz --gfn 1 --opt -T 48
          hostname                   : cx3-14-14.cx3.hpc.ic.ac.uk
          coordinate file            : DHP_C4_2.xyz
          omp threads                :                     1

   ID    Z sym.   atoms
    1    6 C      1-5, 7-10, 12-16, 18-23, 25-28, 30-35, 60-64, 66-69, 71-75,
                  77-82, 84-87, 89-94, 119-122
    2    7 N      6, 11, 17, 24, 29, 36, 65, 70, 76, 83, 88, 95
    3    1 H      37-59, 96-118
########################################################################
[WARNING] Please study the warnings concerning your input carefully
-1- prog_main_parseArguments: Unknown option '-T' provided
########################################################################

           -------------------------------------------------
          |                 G F N 1 - x T B                 |
           -------------------------------------------------

        Reference                      10.1021/acs.jctc.7b00118
      * Hamiltonian:
        H0-scaling (s, p, d)           1.850000    2.250000    2.000000
        zeta-weighting                 0.000000
      * Dispersion:
        s8                             2.400000
        a1                             0.630000
        a2                             5.000000
        s9                             0.000000
      * Repulsion:
        kExp                           1.500000
        rExp                           1.000000
      * Coulomb:
        alpha                          2.000000
        third order                    atomic
        anisotropic                    false
      * Halogen bond correction:
        rad-scale                      1.300000
        damping                        0.440000


          ...................................................
          :                      SETUP                      :
          :.................................................:
          :  # basis functions                 396          :
          :  # atomic orbitals                 396          :
          :  # shells                          244          :
          :  # electrons                       362          :
          :  # halogen bonds                     0          :
          :  max. iterations                   250          :
          :  Hamiltonian                  GFN1-xTB          :
          :  restarted?                      false          :
          :  GBSA solvation                  false          :
          :  PC potential                    false          :
          :  electronic temp.          300.0000000     K    :
          :  accuracy                    1.0000000          :
          :  -> integral cutoff          0.2500000E+02      :
          :  -> integral neglect         0.1000000E-07      :
          :  -> SCF convergence          0.1000000E-05 Eh   :
          :  -> wf. convergence          0.2000000E-04 e    :
          :  Broyden damping             0.4000000          :
          ...................................................

 iter      E             dE          RMSdq      gap      omega  full diag
   1   -200.7405688 -0.200741E+03  0.101E+01    0.12       0.0  T
   2   -200.9527270 -0.212158E+00  0.603E+00    0.16       1.0  T
   3   -198.2466642  0.270606E+01  0.242E+00    0.11       1.0  T
   4   -196.7874785  0.145919E+01  0.226E+00    0.04       1.0  T
   5   -200.5790586 -0.379158E+01  0.121E+00    0.17       1.0  T
   6   -200.9100222 -0.330964E+00  0.655E-01    0.23       1.0  T
   7   -200.9719508 -0.619286E-01  0.459E-01    0.17       1.0  T
   8   -201.0140821 -0.421313E-01  0.181E-01    0.14       1.0  T
   9   -200.9740802  0.400019E-01  0.302E-01    0.16       1.0  T
  10   -200.9820068 -0.792659E-02  0.276E-01    0.16       1.0  T
  11   -201.0136382 -0.316314E-01  0.129E-01    0.14       1.0  T
  12   -201.0205686 -0.693041E-02  0.513E-02    0.13       1.0  T
  13   -201.0216869 -0.111831E-02  0.104E-02    0.13       1.0  T
  14   -201.0215118  0.175123E-03  0.197E-02    0.13       1.0  T
  15   -201.0216965 -0.184702E-03  0.840E-03    0.13       1.1  T
  16   -201.0217241 -0.276020E-04  0.159E-03    0.13       5.7  T
  17   -201.0217246 -0.494074E-06  0.829E-04    0.13      10.9  T
  18   -201.0217244  0.221751E-06  0.983E-04    0.13       9.2  T
  19   -201.0217249 -0.485405E-06  0.150E-04    0.13      60.2  T
  20   -201.0217248  0.306145E-07  0.277E-04    0.13      32.6  T
  21   -201.0217249 -0.379572E-07  0.744E-05    0.13     121.7  T

   *** convergence criteria satisfied after 21 iterations ***

         #    Occupation            Energy/Eh            Energy/eV
      -------------------------------------------------------------
         1        2.0000           -0.7900024             -21.4971
       ...           ...                  ...                  ...
       175        2.0000           -0.3858596             -10.4998
       176        2.0000           -0.3799132             -10.3380
       177        2.0000           -0.3703867             -10.0787
       178        2.0000           -0.3695136             -10.0550
       179        2.0000           -0.3689669             -10.0401
       180        2.0000           -0.3687935             -10.0354
       181        1.8541           -0.3572703              -9.7218 (HOMO)
       182        0.1459           -0.3524398              -9.5904 (LUMO)
       183                         -0.3302350              -8.9862
       184                         -0.3195197              -8.6946
       185                         -0.2980725              -8.1110
       186                         -0.2935403              -7.9876
       ...                                ...                  ...
       396                          1.8660533              50.7779
      -------------------------------------------------------------
                  HL-Gap            0.0048306 Eh            0.1314 eV
             Fermi-level           -0.3548551 Eh           -9.6561 eV

 SCC (total)                   0 d,  0 h,  0 min,  1.239 sec
 SCC setup                      ...        0 min,  0.005 sec (  0.383%)
 Dispersion                     ...        0 min,  0.003 sec (  0.274%)
 classical contributions        ...        0 min,  0.001 sec (  0.113%)
 integral evaluation            ...        0 min,  0.112 sec (  9.015%)
 iterations                     ...        0 min,  0.842 sec ( 67.954%)
 molecular gradient             ...        0 min,  0.267 sec ( 21.528%)
 printout                       ...        0 min,  0.009 sec (  0.731%)

         :::::::::::::::::::::::::::::::::::::::::::::::::::::
         ::                     SUMMARY                     ::
         :::::::::::::::::::::::::::::::::::::::::::::::::::::
         :: total energy            -197.769272786442 Eh    ::
         :: gradient norm              0.929716735801 Eh/a0 ::
         :: HOMO-LUMO gap              0.131446362551 eV    ::
         ::.................................................::
         :: SCC energy              -201.021724882064 Eh    ::
         :: -> electrostatic           0.168629049120 Eh    ::
         :: repulsion energy           3.349887467158 Eh    ::
         :: dispersion energy         -0.097435371536 Eh    ::
         :: halogen bond corr.         0.000000000000 Eh    ::
         :: add. restraining           0.000000000000 Eh    ::
         :: total charge               0.000000000000 e     ::
         :::::::::::::::::::::::::::::::::::::::::::::::::::::

      ----------------------------------------------------------- 
     |                   =====================                   |
     |                        A N C O P T                        |
     |                   =====================                   |
     |               Approximate Normal Coordinate               |
     |                Rational Function Optimizer                |
      ----------------------------------------------------------- 

          ...................................................
          :                      SETUP                      :
          :.................................................:
          :   optimization level            normal          :
          :   max. optcycles                   366          :
          :   ANC micro-cycles                  20          :
          :   degrees of freedom               360          :
          :.................................................:
          :   RF solver                   davidson          :
          :   write xtbopt.log                true          :
          :   linear?                        false          :
          :   energy convergence         0.5000000E-05 Eh   :
          :   grad. convergence          0.1000000E-02 Eh/α :
          :   maximium RF displ.         1.0000000          :
          :   Hlow (freq-cutoff)         0.1000000E-01      :
          :   Hmax (freq-cutoff)         5.0000000          :
          :   S6 in model hess.         20.0000000          :
          ...................................................

generating ANC from model Hessian ...
Using Lindh-Hessian (1995)
 Shifting diagonal of input Hessian by    1.0002235023284232E-002
 Lowest  eigenvalues of input Hessian
    0.010000    0.000000    0.000000    0.000000    0.000000    0.000000
    0.000000    0.010003    0.010013    0.010024    0.010129    0.010155
    0.010238    0.010316    0.010366    0.010523    0.010574    0.010599
 Highest eigenvalues
    2.138340    2.139255    2.140609    2.173585    2.896412    3.039811


........................................................................
.............................. CYCLE    1 ..............................
........................................................................
   1   -201.0217249 -0.201022E+03  0.146E-04    0.13       0.0  T
   2   -201.0217213  0.358573E-05  0.251E-03    0.13       3.6  T
   3   -201.0217249 -0.358886E-05  0.117E-04    0.13      77.4  T
   4   -201.0217249 -0.748145E-08  0.282E-05    0.13     320.6  T
   5   -201.0217249 -0.399154E-09  0.739E-06    0.13    1225.4  T
     SCC iter.                  ...        0 min,  0.192 sec
     gradient                   ...        0 min,  0.267 sec
 * total energy  :  -197.7692728 Eh     change       -0.3245077E-08 Eh
   gradient norm :     0.9297169 Eh/α   predicted     0.0000000E+00 (-100.00%)
   displ. norm   :     0.4299612 α      lambda       -0.3502481E+00
   maximum displ.:     0.1686745 α      in ANC's #359, #360, #310, ...

........................................................................
.............................. CYCLE    2 ..............................
........................................................................
   1   -201.0572009 -0.201057E+03  0.171E-01    0.34       0.0  T
   2   -201.0577076 -0.506753E-03  0.136E-01    0.31       1.0  T
   3   -201.0611334 -0.342578E-02  0.677E-02    0.32       1.0  T
   4   -201.0595899  0.154348E-02  0.835E-02    0.32       1.0  T
   5   -201.0618847 -0.229473E-02  0.474E-02    0.32       1.0  T
   6   -201.0626594 -0.774788E-03  0.171E-02    0.32       1.0  T
   7   -201.0627589 -0.994138E-04  0.609E-03    0.32       1.5  T
   8   -201.0627695 -0.106636E-04  0.156E-03    0.32       5.8  T
   9   -201.0627706 -0.105250E-05  0.445E-04    0.32      20.4  T
  10   -201.0627706 -0.431843E-07  0.228E-04    0.32      39.7  T
  11   -201.0627706 -0.121902E-07  0.771E-05    0.32     117.5  T
  12   -201.0627706 -0.204710E-08  0.226E-05    0.32     400.5  T
     SCC iter.                  ...        0 min,  0.495 sec
     gradient                   ...        0 min,  0.278 sec
 * total energy  :  -197.9988388 Eh     change       -0.2295660E+00 Eh
   gradient norm :     0.3638999 Eh/α   predicted    -0.2075001E+00 (  -9.61%)
   displ. norm   :     0.4653028 α      lambda       -0.1270387E+00
   maximum displ.:     0.1055021 α      in ANC's #360, #72, #62, ...

........................................................................
.............................. CYCLE    3 ..............................
........................................................................
   1   -201.1228136 -0.201123E+03  0.113E-01    0.67       0.0  T
   2   -201.1240565 -0.124289E-02  0.770E-02    0.63       1.0  T
   3   -201.1249721 -0.915603E-03  0.379E-02    0.64       1.0  T
   4   -201.1251819 -0.209868E-03  0.301E-02    0.64       1.0  T
   5   -201.1254218 -0.239836E-03  0.813E-03    0.64       1.1  T
   6   -201.1254279 -0.608279E-05  0.303E-03    0.64       3.0  T
   7   -201.1254309 -0.300163E-05  0.760E-04    0.64      11.9  T
   8   -201.1254310 -0.950333E-07  0.484E-04    0.64      18.7  T
   9   -201.1254310 -0.450309E-07  0.285E-04    0.64      31.8  T
  10   -201.1254310 -0.210536E-07  0.981E-05    0.64      92.2  T
  11   -201.1254310 -0.303282E-08  0.254E-05    0.64     356.5  T
     SCC iter.                  ...        0 min,  0.452 sec
     gradient                   ...        0 min,  0.284 sec
 * total energy  :  -198.0759579 Eh     change       -0.7711908E-01 Eh
   gradient norm :     0.1814119 Eh/α   predicted    -0.7727177E-01 (   0.20%)
   displ. norm   :     0.5241565 α      lambda       -0.5188677E-01
   maximum displ.:     0.2061123 α      in ANC's #72, #62, #32, ...

........................................................................
.............................. CYCLE    4 ..............................
........................................................................
   1   -201.1450671 -0.201145E+03  0.633E-02    0.85       0.0  T
   2   -201.1457031 -0.635995E-03  0.436E-02    0.83       1.0  T
   3   -201.1459099 -0.206822E-03  0.188E-02    0.84       1.0  T
   4   -201.1458230  0.868576E-04  0.195E-02    0.84       1.0  T
   5   -201.1459347 -0.111708E-03  0.488E-03    0.83       1.9  T
   6   -201.1459414 -0.662522E-05  0.915E-04    0.83       9.9  T
   7   -201.1459415 -0.135728E-06  0.495E-04    0.83      18.3  T
   8   -201.1459415 -0.557955E-07  0.191E-04    0.83      47.4  T
   9   -201.1459416 -0.700459E-08  0.857E-05    0.84     105.7  T
     SCC iter.                  ...        0 min,  0.347 sec
     gradient                   ...        0 min,  0.287 sec
 * total energy  :  -198.1031444 Eh     change       -0.2718646E-01 Eh
   gradient norm :     0.0773183 Eh/α   predicted    -0.3307108E-01 (  21.65%)
   displ. norm   :     0.5393663 α      lambda       -0.1449030E-01
   maximum displ.:     0.2359508 α      in ANC's #32, #62, #38, ...

........................................................................
.............................. CYCLE    5 ..............................
........................................................................
   1   -201.1938986 -0.201194E+03  0.244E-02    0.90       0.0  T
   2   -201.1939550 -0.564443E-04  0.139E-02    0.90       1.0  T
   3   -201.1939783 -0.232902E-04  0.777E-03    0.90       1.2  T
   4   -201.1939904 -0.120336E-04  0.539E-03    0.90       1.7  T
   5   -201.1939965 -0.611281E-05  0.191E-03    0.90       4.7  T
   6   -201.1939971 -0.632759E-06  0.470E-04    0.90      19.2  T
   7   -201.1939972 -0.572491E-07  0.188E-04    0.90      48.3  T
   8   -201.1939972 -0.483041E-08  0.933E-05    0.90      97.0  T
     SCC iter.                  ...        0 min,  0.328 sec
     gradient                   ...        0 min,  0.296 sec
 * total energy  :  -198.1145473 Eh     change       -0.1140295E-01 Eh
   gradient norm :     0.0384824 Eh/α   predicted    -0.9352905E-02 ( -17.98%)
   displ. norm   :     0.6726795 α      lambda       -0.1093757E-01
   maximum displ.:     0.2776757 α      in ANC's #32, #31, #38, ...

........................................................................
.............................. CYCLE    6 ..............................
........................................................................
   1   -201.2363786 -0.201236E+03  0.257E-02    0.94       0.0  T
   2   -201.2364301 -0.515161E-04  0.122E-02    0.94       1.0  T
   3   -201.2364398 -0.977187E-05  0.789E-03    0.94       1.1  T
   4   -201.2364560 -0.161961E-04  0.474E-03    0.94       1.9  T
   5   -201.2364596 -0.358955E-05  0.182E-03    0.94       5.0  T
   6   -201.2364604 -0.813807E-06  0.438E-04    0.94      20.7  T
   7   -201.2364605 -0.535659E-07  0.149E-04    0.94      60.7  T
   8   -201.2364605 -0.287602E-08  0.812E-05    0.94     111.5  T
     SCC iter.                  ...        0 min,  0.331 sec
     gradient                   ...        0 min,  0.270 sec
 * total energy  :  -198.1220499 Eh     change       -0.7502591E-02 Eh
   gradient norm :     0.0203548 Eh/α   predicted    -0.7943398E-02 (   5.88%)
   displ. norm   :     0.7084610 α      lambda       -0.7751805E-02
   maximum displ.:     0.4043645 α      in ANC's #32, #28, #38, ...

........................................................................
.............................. CYCLE    7 ..............................
........................................................................
   1   -201.2583810 -0.201258E+03  0.178E-02    0.96       0.0  T
   2   -201.2584060 -0.250418E-04  0.117E-02    0.96       1.0  T
   3   -201.2584192 -0.132211E-04  0.572E-03    0.96       1.6  T
   4   -201.2584180  0.118811E-05  0.471E-03    0.96       1.9  T
   5   -201.2584236 -0.557316E-05  0.157E-03    0.96       5.8  T
   6   -201.2584243 -0.670959E-06  0.358E-04    0.96      25.3  T
   7   -201.2584243 -0.389672E-07  0.125E-04    0.96      72.2  T
   8   -201.2584243 -0.367697E-08  0.524E-05    0.96     172.7  T
     SCC iter.                  ...        0 min,  0.319 sec
     gradient                   ...        0 min,  0.282 sec
 * total energy  :  -198.1245699 Eh     change       -0.2519985E-02 Eh
   gradient norm :     0.0310126 Eh/α   predicted    -0.5821278E-02 ( 131.00%)
   displ. norm   :     0.4226031 α      lambda       -0.5562165E-02
   maximum displ.:     0.2243270 α      in ANC's #31, #28, #32, ...

........................................................................
.............................. CYCLE    8 ..............................
........................................................................
   1   -201.2770950 -0.201277E+03  0.147E-02    0.98       0.0  T
   2   -201.2771039 -0.898026E-05  0.117E-02    0.98       1.0  T
   3   -201.2771154 -0.114460E-04  0.583E-03    0.98       1.6  T
   4   -201.2771088  0.658144E-05  0.483E-03    0.98       1.9  T
   5   -201.2771173 -0.844235E-05  0.898E-04    0.98      10.1  T
   6   -201.2771175 -0.197859E-06  0.154E-04    0.98      58.6  T
   7   -201.2771175 -0.696966E-08  0.453E-05    0.98     199.9  T
     SCC iter.                  ...        0 min,  0.294 sec
     gradient                   ...        0 min,  0.268 sec
 * total energy  :  -198.1280094 Eh     change       -0.3439517E-02 Eh
   gradient norm :     0.0207433 Eh/α   predicted    -0.3277772E-02 (  -4.70%)
   displ. norm   :     0.4514498 α      lambda       -0.2293881E-02
   maximum displ.:     0.1846632 α      in ANC's #28, #20, #32, ...

........................................................................
.............................. CYCLE    9 ..............................
........................................................................
   1   -201.2832102 -0.201283E+03  0.684E-03    0.97       0.0  T
   2   -201.2832135 -0.334303E-05  0.533E-03    0.97       1.7  T
   3   -201.2832202 -0.666743E-05  0.177E-03    0.97       5.1  T
   4   -201.2832202 -0.170861E-07  0.179E-03    0.97       5.1  T
   5   -201.2832210 -0.763427E-06  0.548E-04    0.97      16.5  T
   6   -201.2832210 -0.210157E-07  0.129E-04    0.97      70.0  T
   7   -201.2832210 -0.448009E-08  0.501E-05    0.97     180.9  T
     SCC iter.                  ...        0 min,  0.267 sec
     gradient                   ...        0 min,  0.274 sec
 * total energy  :  -198.1297951 Eh     change       -0.1785681E-02 Eh
   gradient norm :     0.0142558 Eh/α   predicted    -0.1380696E-02 ( -22.68%)
   displ. norm   :     0.6310033 α      lambda       -0.2495097E-02
   maximum displ.:     0.3106945 α      in ANC's #28, #20, #32, ...

........................................................................
.............................. CYCLE   10 ..............................
........................................................................
   1   -201.2891028 -0.201289E+03  0.912E-03    0.96       0.0  T
   2   -201.2891100 -0.722579E-05  0.648E-03    0.96       1.4  T
   3   -201.2891186 -0.865040E-05  0.225E-03    0.96       4.0  T
   4   -201.2891188 -0.200793E-06  0.224E-03    0.96       4.0  T
   5   -201.2891201 -0.123406E-05  0.663E-04    0.96      13.7  T
   6   -201.2891201 -0.340707E-07  0.145E-04    0.96      62.2  T
   7   -201.2891201 -0.530426E-08  0.623E-05    0.96     145.4  T
     SCC iter.                  ...        0 min,  0.292 sec
     gradient                   ...        0 min,  0.289 sec
 * total energy  :  -198.1315434 Eh     change       -0.1748307E-02 Eh
   gradient norm :     0.0122837 Eh/α   predicted    -0.1744279E-02 (  -0.23%)
   displ. norm   :     0.5929539 α      lambda       -0.1851083E-02
   maximum displ.:     0.2729336 α      in ANC's #20, #28, #7, ...

........................................................................
.............................. CYCLE   11 ..............................
........................................................................
   1   -201.2961391 -0.201296E+03  0.690E-03    0.95       0.0  T
   2   -201.2961410 -0.189045E-05  0.488E-03    0.95       1.9  T
   3   -201.2961450 -0.401750E-05  0.209E-03    0.95       4.3  T
   4   -201.2961455 -0.489920E-06  0.192E-03    0.95       4.7  T
   5   -201.2961463 -0.805352E-06  0.484E-04    0.95      18.7  T
   6   -201.2961463 -0.534576E-07  0.114E-04    0.95      79.3  T
   7   -201.2961463 -0.386842E-08  0.350E-05    0.95     258.8  T
     SCC iter.                  ...        0 min,  0.276 sec
     gradient                   ...        0 min,  0.269 sec
 * total energy  :  -198.1328422 Eh     change       -0.1298787E-02 Eh
   gradient norm :     0.0120810 Eh/α   predicted    -0.1250961E-02 (  -3.68%)
   displ. norm   :     0.5312688 α      lambda       -0.1200663E-02
   maximum displ.:     0.2674257 α      in ANC's #20, #28, #26, ...

........................................................................
.............................. CYCLE   12 ..............................
........................................................................
   1   -201.2995355 -0.201300E+03  0.397E-03    0.95       0.0  T
   2   -201.2995370 -0.147929E-05  0.219E-03    0.95       4.1  T
   3   -201.2995373 -0.355831E-06  0.108E-03    0.95       8.4  T
   4   -201.2995372  0.927057E-07  0.772E-04    0.95      11.7  T
   5   -201.2995374 -0.146825E-06  0.236E-04    0.95      38.3  T
   6   -201.2995374 -0.160146E-07  0.655E-05    0.95     138.3  T
   7   -201.2995374 -0.120190E-08  0.242E-05    0.95     374.6  T
     SCC iter.                  ...        0 min,  0.286 sec
     gradient                   ...        0 min,  0.301 sec
 * total energy  :  -198.1338358 Eh     change       -0.9936281E-03 Eh
   gradient norm :     0.0108599 Eh/α   predicted    -0.7697752E-03 ( -22.53%)
   displ. norm   :     0.5889862 α      lambda       -0.1273589E-02
   maximum displ.:     0.3178691 α      in ANC's #20, #28, #12, ...

........................................................................
.............................. CYCLE   13 ..............................
........................................................................
   1   -201.3029608 -0.201303E+03  0.532E-03    0.94       0.0  T
   2   -201.3029630 -0.224664E-05  0.376E-03    0.94       2.4  T
   3   -201.3029657 -0.267677E-05  0.174E-03    0.94       5.2  T
   4   -201.3029659 -0.172880E-06  0.127E-03    0.94       7.1  T
   5   -201.3029662 -0.310317E-06  0.447E-04    0.94      20.2  T
   6   -201.3029662 -0.442008E-07  0.137E-04    0.94      66.2  T
   7   -201.3029662 -0.692751E-08  0.416E-05    0.94     217.5  T
     SCC iter.                  ...        0 min,  0.282 sec
     gradient                   ...        0 min,  0.268 sec
 * total energy  :  -198.1348523 Eh     change       -0.1016442E-02 Eh
   gradient norm :     0.0098123 Eh/α   predicted    -0.8577032E-03 ( -15.62%)
   displ. norm   :     0.6421944 α      lambda       -0.1027281E-02
   maximum displ.:     0.3749379 α      in ANC's #20, #28, #12, ...

........................................................................
.............................. CYCLE   14 ..............................
........................................................................
   1   -201.2986520 -0.201299E+03  0.461E-03    0.94       0.0  T
   2   -201.2986536 -0.166695E-05  0.305E-03    0.94       3.0  T
   3   -201.2986550 -0.135201E-05  0.133E-03    0.94       6.8  T
   4   -201.2986551 -0.972590E-07  0.119E-03    0.94       7.6  T
   5   -201.2986554 -0.292330E-06  0.343E-04    0.94      26.4  T
   6   -201.2986554 -0.300282E-07  0.950E-05    0.94      95.3  T
   7   -201.2986554 -0.324164E-08  0.361E-05    0.94     250.6  T
     SCC iter.                  ...        0 min,  0.290 sec
     gradient                   ...        0 min,  0.282 sec
 * total energy  :  -198.1356807 Eh     change       -0.8283973E-03 Eh
   gradient norm :     0.0106092 Eh/α   predicted    -0.7254781E-03 ( -12.42%)
   displ. norm   :     0.5982633 α      lambda       -0.9114947E-03
   maximum displ.:     0.3579820 α      in ANC's #20, #22, #12, ...

........................................................................
.............................. CYCLE   15 ..............................
........................................................................
   1   -201.2986048 -0.201299E+03  0.522E-03    0.93       0.0  T
   2   -201.2986057 -0.914422E-06  0.281E-03    0.93       3.2  T
   3   -201.2986057 -0.549049E-07  0.187E-03    0.93       4.9  T
   4   -201.2986063 -0.563009E-06  0.102E-03    0.93       8.9  T
   5   -201.2986065 -0.238105E-06  0.303E-04    0.93      29.8  T
   6   -201.2986066 -0.318544E-07  0.830E-05    0.93     109.0  T
   7   -201.2986066 -0.201979E-08  0.364E-05    0.93     249.0  T
     SCC iter.                  ...        0 min,  0.294 sec
     gradient                   ...        0 min,  0.270 sec
 * total energy  :  -198.1363902 Eh     change       -0.7095596E-03 Eh
   gradient norm :     0.0102076 Eh/α   predicted    -0.6188679E-03 ( -12.78%)
   displ. norm   :     0.6563778 α      lambda       -0.8460302E-03
   maximum displ.:     0.4226583 α      in ANC's #20, #12, #19, ...

........................................................................
.............................. CYCLE   16 ..............................
........................................................................
   1   -201.2928030 -0.201293E+03  0.441E-03    0.94       0.0  T
   2   -201.2928038 -0.797789E-06  0.238E-03    0.94       3.8  T
   3   -201.2928039 -0.127122E-06  0.145E-03    0.94       6.3  T
   4   -201.2928038  0.104859E-06  0.716E-04    0.94      12.7  T
   5   -201.2928040 -0.199229E-06  0.232E-04    0.94      39.1  T
   6   -201.2928040 -0.164013E-07  0.410E-05    0.94     220.6  T
   7   -201.2928040 -0.304766E-09  0.220E-05    0.94     412.4  T
     SCC iter.                  ...        0 min,  0.275 sec
     gradient                   ...        0 min,  0.284 sec
 * total energy  :  -198.1370722 Eh     change       -0.6819422E-03 Eh
   gradient norm :     0.0082026 Eh/α   predicted    -0.6052682E-03 ( -11.24%)
   displ. norm   :     0.5502348 α      lambda       -0.7080974E-03
   maximum displ.:     0.3595654 α      in ANC's #20, #22, #19, ...

........................................................................
.............................. CYCLE   17 ..............................
........................................................................
   1   -201.2942777 -0.201294E+03  0.503E-03    0.94       0.0  T
   2   -201.2942801 -0.238687E-05  0.250E-03    0.94       3.6  T
   3   -201.2942808 -0.717485E-06  0.131E-03    0.94       6.9  T
   4   -201.2942808 -0.113711E-07  0.915E-04    0.94       9.9  T
   5   -201.2942810 -0.195925E-06  0.290E-04    0.94      31.2  T
   6   -201.2942811 -0.207590E-07  0.822E-05    0.94     110.2  T
   7   -201.2942811 -0.222016E-08  0.318E-05    0.94     285.0  T
     SCC iter.                  ...        0 min,  0.292 sec
     gradient                   ...        0 min,  0.273 sec
 * total energy  :  -198.1376507 Eh     change       -0.5785499E-03 Eh
   gradient norm :     0.0077040 Eh/α   predicted    -0.4612411E-03 ( -20.28%)
   displ. norm   :     0.5791491 α      lambda       -0.6184333E-03
   maximum displ.:     0.3872489 α      in ANC's #20, #19, #22, ...

........................................................................
.............................. CYCLE   18 ..............................
........................................................................
   1   -201.2939491 -0.201294E+03  0.449E-03    0.93       0.0  T
   2   -201.2939512 -0.202196E-05  0.256E-03    0.93       3.5  T
   3   -201.2939522 -0.105384E-05  0.120E-03    0.93       7.6  T
   4   -201.2939523 -0.945357E-07  0.872E-04    0.93      10.4  T
   5   -201.2939525 -0.148744E-06  0.272E-04    0.93      33.2  T
   6   -201.2939525 -0.148737E-07  0.989E-05    0.93      91.6  T
   7   -201.2939525 -0.368152E-08  0.347E-05    0.93     261.2  T
     SCC iter.                  ...        0 min,  0.267 sec
     gradient                   ...        0 min,  0.279 sec
 * total energy  :  -198.1381558 Eh     change       -0.5050795E-03 Eh
   gradient norm :     0.0091915 Eh/α   predicted    -0.4129346E-03 ( -18.24%)
   displ. norm   :     0.5336577 α      lambda       -0.5128317E-03
   maximum displ.:     0.3551466 α      in ANC's #20, #19, #22, ...

........................................................................
.............................. CYCLE   19 ..............................
........................................................................
   1   -201.2958411 -0.201296E+03  0.389E-03    0.93       0.0  T
   2   -201.2958422 -0.113437E-05  0.205E-03    0.93       4.4  T
   3   -201.2958426 -0.342530E-06  0.106E-03    0.93       8.6  T
   4   -201.2958425  0.566995E-07  0.809E-04    0.93      11.2  T
   5   -201.2958427 -0.160430E-06  0.162E-04    0.93      55.9  T
   6   -201.2958427 -0.681615E-08  0.643E-05    0.93     140.8  T
     SCC iter.                  ...        0 min,  0.247 sec
     gradient                   ...        0 min,  0.282 sec
 * total energy  :  -198.1385668 Eh     change       -0.4110611E-03 Eh
   gradient norm :     0.0097726 Eh/α   predicted    -0.3294417E-03 ( -19.86%)
   displ. norm   :     0.5336783 α      lambda       -0.4776261E-03
   maximum displ.:     0.3475480 α      in ANC's #20, #19, #22, ...

........................................................................
.............................. CYCLE   20 ..............................
........................................................................
   1   -201.2979312 -0.201298E+03  0.447E-03    0.93       0.0  T
   2   -201.2979327 -0.155831E-05  0.235E-03    0.93       3.8  T
   3   -201.2979330 -0.270864E-06  0.115E-03    0.93       7.8  T
   4   -201.2979329  0.957578E-07  0.639E-04    0.93      14.2  T
   5   -201.2979330 -0.940011E-07  0.232E-04    0.93      39.1  T
   6   -201.2979330 -0.253968E-07  0.639E-05    0.93     141.7  T
   7   -201.2979330 -0.114792E-08  0.230E-05    0.93     392.9  T
     SCC iter.                  ...        0 min,  0.284 sec
     gradient                   ...        0 min,  0.270 sec
 * total energy  :  -198.1389145 Eh     change       -0.3476386E-03 Eh
   gradient norm :     0.0097509 Eh/α   predicted    -0.3068324E-03 ( -11.74%)
   displ. norm   :     0.4904903 α      lambda       -0.4022488E-03
   maximum displ.:     0.3169541 α      in ANC's #20, #19, #18, ...
 * RMSD in coord.:     0.7217858 α      energy gain  -0.3696417E+00 Eh

generating ANC from model Hessian ...
Using Lindh-Hessian (1995)
 Shifting diagonal of input Hessian by    1.0000556892769876E-002
 Lowest  eigenvalues of input Hessian
    0.010000    0.000000    0.000000    0.000000    0.000000    0.000000
    0.000000    0.010005    0.010012    0.010058    0.010159    0.010172
    0.010272    0.010449    0.010576    0.010579    0.010622    0.010624
 Highest eigenvalues
    2.179105    2.185785    2.210465    2.210673    2.359459    2.877919


........................................................................
.............................. CYCLE   21 ..............................
........................................................................
   1   -201.2973196 -0.201297E+03  0.478E-03    0.92       0.0  T
   2   -201.2973213 -0.178438E-05  0.246E-03    0.92       3.7  T
   3   -201.2973217 -0.344992E-06  0.124E-03    0.92       7.3  T
   4   -201.2973216  0.100917E-06  0.681E-04    0.92      13.3  T
   5   -201.2973217 -0.114274E-06  0.297E-04    0.92      30.5  T
   6   -201.2973217 -0.366856E-07  0.690E-05    0.92     131.2  T
   7   -201.2973217 -0.107096E-08  0.301E-05    0.92     301.0  T
     SCC iter.                  ...        0 min,  0.279 sec
     gradient                   ...        0 min,  0.285 sec
 * total energy  :  -198.1391943 Eh     change       -0.2798030E-03 Eh
   gradient norm :     0.0075481 Eh/α   predicted     0.0000000E+00 (-100.00%)
   displ. norm   :     0.0716386 α      lambda       -0.1137835E-03
   maximum displ.:     0.0245976 α      in ANC's #30, #18, #28, ...

........................................................................
.............................. CYCLE   22 ..............................
........................................................................
   1   -201.2983247 -0.201298E+03  0.186E-03    0.92       0.0  T
   2   -201.2983249 -0.171367E-06  0.129E-03    0.92       7.0  T
   3   -201.2983251 -0.149859E-06  0.683E-04    0.92      13.3  T
   4   -201.2983251  0.960392E-08  0.453E-04    0.92      20.0  T
   5   -201.2983251 -0.499262E-07  0.105E-04    0.92      86.1  T
   6   -201.2983251 -0.294369E-08  0.337E-05    0.92     268.3  T
     SCC iter.                  ...        0 min,  0.251 sec
     gradient                   ...        0 min,  0.272 sec
 * total energy  :  -198.1392993 Eh     change       -0.1050425E-03 Eh
   gradient norm :     0.0034629 Eh/α   predicted    -0.7122958E-04 ( -32.19%)
   displ. norm   :     0.1696863 α      lambda       -0.1935009E-03
   maximum displ.:     0.0825283 α      in ANC's #18, #8, #5, ...

........................................................................
.............................. CYCLE   23 ..............................
........................................................................
   1   -201.2997959 -0.201300E+03  0.318E-03    0.92       0.0  T
   2   -201.2997966 -0.706543E-06  0.208E-03    0.92       4.4  T
   3   -201.2997971 -0.535096E-06  0.105E-03    0.92       8.6  T
   4   -201.2997972 -0.197612E-07  0.691E-04    0.92      13.1  T
   5   -201.2997973 -0.843669E-07  0.229E-04    0.92      39.5  T
   6   -201.2997973 -0.155389E-07  0.601E-05    0.92     150.7  T
   7   -201.2997973 -0.114230E-08  0.237E-05    0.92     381.4  T
     SCC iter.                  ...        0 min,  0.268 sec
     gradient                   ...        0 min,  0.278 sec
 * total energy  :  -198.1393909 Eh     change       -0.9154290E-04 Eh
   gradient norm :     0.0049641 Eh/α   predicted    -0.9953902E-04 (   8.73%)
   displ. norm   :     0.1343186 α      lambda       -0.1132995E-03
   maximum displ.:     0.0617079 α      in ANC's #18, #8, #5, ...

........................................................................
.............................. CYCLE   24 ..............................
........................................................................
   1   -201.2998000 -0.201300E+03  0.129E-03    0.92       0.0  T
   2   -201.2998002 -0.215856E-06  0.795E-04    0.92      11.4  T
   3   -201.2998004 -0.130964E-06  0.253E-04    0.92      35.8  T
   4   -201.2998004 -0.352608E-08  0.181E-04    0.92      50.0  T
   5   -201.2998004 -0.193063E-08  0.881E-05    0.92     102.8  T
     SCC iter.                  ...        0 min,  0.211 sec
     gradient                   ...        0 min,  0.272 sec
 * total energy  :  -198.1394631 Eh     change       -0.7227452E-04 Eh
   gradient norm :     0.0052169 Eh/α   predicted    -0.5768013E-04 ( -20.19%)
   displ. norm   :     0.1711918 α      lambda       -0.1031738E-03
   maximum displ.:     0.0910728 α      in ANC's #18, #8, #5, ...

........................................................................
.............................. CYCLE   25 ..............................
........................................................................
   1   -201.2994858 -0.201299E+03  0.153E-03    0.93       0.0  T
   2   -201.2994860 -0.163734E-06  0.109E-03    0.93       8.3  T
   3   -201.2994861 -0.141133E-06  0.472E-04    0.93      19.2  T
   4   -201.2994861  0.926261E-08  0.326E-04    0.93      27.8  T
   5   -201.2994861 -0.159719E-07  0.112E-04    0.93      81.1  T
   6   -201.2994861 -0.471641E-08  0.285E-05    0.93     317.6  T
     SCC iter.                  ...        0 min,  0.231 sec
     gradient                   ...        0 min,  0.276 sec
 * total energy  :  -198.1395505 Eh     change       -0.8731513E-04 Eh
   gradient norm :     0.0039604 Eh/α   predicted    -0.5309912E-04 ( -39.19%)
   displ. norm   :     0.3592044 α      lambda       -0.1964749E-03
   maximum displ.:     0.1864401 α      in ANC's #18, #5, #8, ...

........................................................................
.............................. CYCLE   26 ..............................
........................................................................
   1   -201.2984884 -0.201298E+03  0.323E-03    0.93       0.0  T
   2   -201.2984891 -0.665974E-06  0.214E-03    0.93       4.2  T
   3   -201.2984895 -0.390319E-06  0.101E-03    0.93       8.9  T
   4   -201.2984894  0.809460E-07  0.755E-04    0.93      12.0  T
   5   -201.2984895 -0.132260E-06  0.179E-04    0.93      50.5  T
   6   -201.2984895 -0.114596E-07  0.590E-05    0.93     153.5  T
     SCC iter.                  ...        0 min,  0.249 sec
     gradient                   ...        0 min,  0.273 sec
 * total energy  :  -198.1396986 Eh     change       -0.1481836E-03 Eh
   gradient norm :     0.0040383 Eh/α   predicted    -0.1109133E-03 ( -25.15%)
   displ. norm   :     0.3791356 α      lambda       -0.1494782E-03
   maximum displ.:     0.1888805 α      in ANC's #18, #5, #8, ...

........................................................................
.............................. CYCLE   27 ..............................
........................................................................
   1   -201.2974094 -0.201297E+03  0.328E-03    0.93       0.0  T
   2   -201.2974103 -0.889714E-06  0.185E-03    0.93       4.9  T
   3   -201.2974106 -0.267900E-06  0.869E-04    0.93      10.4  T
   4   -201.2974105  0.815113E-07  0.647E-04    0.93      14.0  T
   5   -201.2974106 -0.115245E-06  0.148E-04    0.93      61.0  T
   6   -201.2974106 -0.845972E-08  0.547E-05    0.93     165.4  T
     SCC iter.                  ...        0 min,  0.233 sec
     gradient                   ...        0 min,  0.274 sec
 * total energy  :  -198.1398161 Eh     change       -0.1174631E-03 Eh
   gradient norm :     0.0055846 Eh/α   predicted    -0.8548499E-04 ( -27.22%)
   displ. norm   :     0.4155494 α      lambda       -0.1628556E-03
   maximum displ.:     0.1951166 α      in ANC's #18, #5, #8, ...

........................................................................
.............................. CYCLE   28 ..............................
........................................................................
   1   -201.2970794 -0.201297E+03  0.382E-03    0.93       0.0  T
   2   -201.2970808 -0.138477E-05  0.194E-03    0.93       4.7  T
   3   -201.2970811 -0.298499E-06  0.856E-04    0.93      10.6  T
   4   -201.2970810  0.102166E-06  0.639E-04    0.93      14.2  T
   5   -201.2970812 -0.133745E-06  0.133E-04    0.93      68.1  T
   6   -201.2970812 -0.593602E-08  0.464E-05    0.93     195.2  T
     SCC iter.                  ...        0 min,  0.253 sec
     gradient                   ...        0 min,  0.277 sec
 * total energy  :  -198.1399446 Eh     change       -0.1285098E-03 Eh
   gradient norm :     0.0057807 Eh/α   predicted    -0.9551174E-04 ( -25.68%)
   displ. norm   :     0.3980315 α      lambda       -0.1713037E-03
   maximum displ.:     0.1638995 α      in ANC's #18, #5, #8, ...

........................................................................
.............................. CYCLE   29 ..............................
........................................................................
   1   -201.2981300 -0.201298E+03  0.411E-03    0.93       0.0  T
   2   -201.2981317 -0.161368E-05  0.198E-03    0.93       4.6  T
   3   -201.2981320 -0.332250E-06  0.847E-04    0.93      10.7  T
   4   -201.2981319  0.890429E-07  0.633E-04    0.93      14.3  T
   5   -201.2981320 -0.122632E-06  0.132E-04    0.93      68.6  T
   6   -201.2981320 -0.406990E-08  0.524E-05    0.93     172.8  T
     SCC iter.                  ...        0 min,  0.240 sec
     gradient                   ...        0 min,  0.272 sec
 * total energy  :  -198.1400747 Eh     change       -0.1301179E-03 Eh
   gradient norm :     0.0042332 Eh/α   predicted    -0.9922676E-04 ( -23.74%)
   displ. norm   :     0.3725492 α      lambda       -0.1283408E-03
   maximum displ.:     0.1484092 α      in ANC's #5, #21, #10, ...

........................................................................
.............................. CYCLE   30 ..............................
........................................................................
   1   -201.2986322 -0.201299E+03  0.398E-03    0.93       0.0  T
   2   -201.2986337 -0.150293E-05  0.187E-03    0.93       4.8  T
   3   -201.2986340 -0.299170E-06  0.802E-04    0.93      11.3  T
   4   -201.2986339  0.999500E-07  0.632E-04    0.93      14.3  T
   5   -201.2986340 -0.136992E-06  0.120E-04    0.93      75.7  T
   6   -201.2986340 -0.266363E-08  0.491E-05    0.93     184.5  T
     SCC iter.                  ...        0 min,  0.253 sec
     gradient                   ...        0 min,  0.300 sec
 * total energy  :  -198.1401713 Eh     change       -0.9656133E-04 Eh
   gradient norm :     0.0030547 Eh/α   predicted    -0.7308204E-04 ( -24.32%)
   displ. norm   :     0.3339892 α      lambda       -0.9750931E-04
   maximum displ.:     0.1405269 α      in ANC's #21, #5, #10, ...

........................................................................
.............................. CYCLE   31 ..............................
........................................................................
   1   -201.2991017 -0.201299E+03  0.346E-03    0.93       0.0  T
   2   -201.2991028 -0.111477E-05  0.158E-03    0.93       5.7  T
   3   -201.2991031 -0.240175E-06  0.688E-04    0.93      13.2  T
   4   -201.2991030  0.582449E-07  0.548E-04    0.93      16.5  T
   5   -201.2991031 -0.107999E-06  0.104E-04    0.93      86.7  T
   6   -201.2991031 -0.203701E-08  0.368E-05    0.93     246.2  T
     SCC iter.                  ...        0 min,  0.248 sec
     gradient                   ...        0 min,  0.272 sec
 * total energy  :  -198.1402465 Eh     change       -0.7524570E-04 Eh
   gradient norm :     0.0029817 Eh/α   predicted    -0.5419340E-04 ( -27.98%)
   displ. norm   :     0.3379061 α      lambda       -0.8949009E-04
   maximum displ.:     0.1520273 α      in ANC's #21, #5, #10, ...

........................................................................
.............................. CYCLE   32 ..............................
........................................................................
   1   -201.2986029 -0.201299E+03  0.326E-03    0.93       0.0  T
   2   -201.2986038 -0.966033E-06  0.155E-03    0.93       5.9  T
   3   -201.2986041 -0.253654E-06  0.673E-04    0.93      13.5  T
   4   -201.2986041  0.303141E-07  0.531E-04    0.93      17.0  T
   5   -201.2986041 -0.870978E-07  0.129E-04    0.93      70.4  T
   6   -201.2986042 -0.441190E-08  0.423E-05    0.93     213.8  T
     SCC iter.                  ...        0 min,  0.248 sec
     gradient                   ...        0 min,  0.280 sec
 * total energy  :  -198.1403176 Eh     change       -0.7106349E-04 Eh
   gradient norm :     0.0031499 Eh/α   predicted    -0.4985468E-04 ( -29.84%)
   displ. norm   :     0.3239739 α      lambda       -0.8885601E-04
   maximum displ.:     0.1500172 α      in ANC's #21, #5, #10, ...

........................................................................
.............................. CYCLE   33 ..............................
........................................................................
   1   -201.2986553 -0.201299E+03  0.267E-03    0.93       0.0  T
   2   -201.2986559 -0.584441E-06  0.134E-03    0.93       6.8  T
   3   -201.2986561 -0.227862E-06  0.570E-04    0.93      15.9  T
   4   -201.2986561 -0.397549E-08  0.444E-04    0.93      20.4  T
   5   -201.2986562 -0.481976E-07  0.133E-04    0.93      68.3  T
   6   -201.2986562 -0.523761E-08  0.393E-05    0.93     230.5  T
     SCC iter.                  ...        0 min,  0.247 sec
     gradient                   ...        0 min,  0.277 sec
 * total energy  :  -198.1403847 Eh     change       -0.6707313E-04 Eh
   gradient norm :     0.0033205 Eh/α   predicted    -0.4909565E-04 ( -26.80%)
   displ. norm   :     0.3458049 α      lambda       -0.7339931E-04
   maximum displ.:     0.1554539 α      in ANC's #5, #21, #10, ...

........................................................................
.............................. CYCLE   34 ..............................
........................................................................
   1   -201.2960313 -0.201296E+03  0.338E-03    0.93       0.0  T
   2   -201.2960321 -0.837135E-06  0.186E-03    0.93       4.9  T
   3   -201.2960324 -0.284462E-06  0.935E-04    0.93       9.7  T
   4   -201.2960324  0.241619E-07  0.546E-04    0.93      16.6  T
   5   -201.2960324 -0.452648E-07  0.185E-04    0.93      48.9  T
   6   -201.2960324 -0.153424E-07  0.560E-05    0.93     161.6  T
     SCC iter.                  ...        0 min,  0.243 sec
     gradient                   ...        0 min,  0.290 sec
 * total energy  :  -198.1404325 Eh     change       -0.4783289E-04 Eh
   gradient norm :     0.0031909 Eh/α   predicted    -0.4109247E-04 ( -14.09%)
   displ. norm   :     0.2178321 α      lambda       -0.6610521E-04
   maximum displ.:     0.1007081 α      in ANC's #5, #10, #21, ...

........................................................................
.............................. CYCLE   35 ..............................
........................................................................
   1   -201.2982352 -0.201298E+03  0.215E-03    0.93       0.0  T
   2   -201.2982354 -0.200739E-06  0.126E-03    0.93       7.2  T
   3   -201.2982354 -0.395481E-07  0.744E-04    0.93      12.2  T
   4   -201.2982354 -0.204772E-07  0.295E-04    0.93      30.7  T
   5   -201.2982354 -0.149498E-07  0.803E-05    0.93     112.7  T
   6   -201.2982354 -0.182462E-08  0.381E-05    0.93     237.4  T
     SCC iter.                  ...        0 min,  0.253 sec
     gradient                   ...        0 min,  0.274 sec
 * total energy  :  -198.1404663 Eh     change       -0.3382619E-04 Eh
   gradient norm :     0.0026514 Eh/α   predicted    -0.3462744E-04 (   2.37%)
   displ. norm   :     0.1406870 α      lambda       -0.3267247E-04
   maximum displ.:     0.0700445 α      in ANC's #5, #10, #12, ...

........................................................................
.............................. CYCLE   36 ..............................
........................................................................
   1   -201.2972458 -0.201297E+03  0.134E-03    0.93       0.0  T
   2   -201.2972459 -0.110612E-06  0.761E-04    0.93      11.9  T
   3   -201.2972460 -0.396624E-07  0.443E-04    0.93      20.4  T
   4   -201.2972460  0.238143E-08  0.301E-04    0.93      30.1  T
   5   -201.2972460 -0.227531E-07  0.951E-05    0.93      95.2  T
   6   -201.2972460 -0.377338E-08  0.207E-05    0.93     436.5  T
     SCC iter.                  ...        0 min,  0.230 sec
     gradient                   ...        0 min,  0.285 sec
 * total energy  :  -198.1404911 Eh     change       -0.2472667E-04 Eh
   gradient norm :     0.0016254 Eh/α   predicted    -0.1666414E-04 ( -32.61%)
   displ. norm   :     0.1849576 α      lambda       -0.4098323E-04
   maximum displ.:     0.0893504 α      in ANC's #10, #5, #12, ...

........................................................................
.............................. CYCLE   37 ..............................
........................................................................
   1   -201.2976838 -0.201298E+03  0.181E-03    0.93       0.0  T
   2   -201.2976841 -0.259902E-06  0.111E-03    0.93       8.2  T
   3   -201.2976843 -0.209958E-06  0.500E-04    0.93      18.1  T
   4   -201.2976843 -0.429034E-07  0.381E-04    0.93      23.8  T
   5   -201.2976844 -0.315021E-07  0.860E-05    0.93     105.3  T
   6   -201.2976844 -0.542087E-09  0.275E-05    0.93     329.0  T
     SCC iter.                  ...        0 min,  0.251 sec
     gradient                   ...        0 min,  0.272 sec
 * total energy  :  -198.1405256 Eh     change       -0.3452482E-04 Eh
   gradient norm :     0.0027779 Eh/α   predicted    -0.2080488E-04 ( -39.74%)
   displ. norm   :     0.0644707 α      lambda       -0.1640782E-04
   maximum displ.:     0.0327519 α      in ANC's #5, #10, #12, ...

........................................................................
.............................. CYCLE   38 ..............................
........................................................................
   1   -201.2980939 -0.201298E+03  0.587E-04    0.93       0.0  T
   2   -201.2980939 -0.213496E-07  0.332E-04    0.93      27.3  T
   3   -201.2980939 -0.637610E-08  0.196E-04    0.93      46.3  T
   4   -201.2980939  0.370221E-09  0.125E-04    0.93      72.6  T
     SCC iter.                  ...        0 min,  0.156 sec
     gradient                   ...        0 min,  0.298 sec
 * total energy  :  -198.1405400 Eh     change       -0.1441737E-04 Eh
   gradient norm :     0.0022947 Eh/α   predicted    -0.8239597E-05 ( -42.85%)
   displ. norm   :     0.2117666 α      lambda       -0.4805102E-04
   maximum displ.:     0.1122155 α      in ANC's #10, #5, #12, ...

........................................................................
.............................. CYCLE   39 ..............................
........................................................................
   1   -201.2987295 -0.201299E+03  0.159E-03    0.93       0.0  T
   2   -201.2987297 -0.203223E-06  0.877E-04    0.93      10.3  T
   3   -201.2987298 -0.918502E-07  0.483E-04    0.93      18.8  T
   4   -201.2987298 -0.213086E-07  0.303E-04    0.93      29.8  T
   5   -201.2987298 -0.154375E-07  0.103E-04    0.93      88.3  T
   6   -201.2987298 -0.307119E-08  0.288E-05    0.93     314.7  T
     SCC iter.                  ...        0 min,  0.249 sec
     gradient                   ...        0 min,  0.273 sec
 * total energy  :  -198.1405722 Eh     change       -0.3216162E-04 Eh
   gradient norm :     0.0013285 Eh/α   predicted    -0.2510721E-04 ( -21.93%)
   displ. norm   :     0.2268640 α      lambda       -0.1667838E-04
   maximum displ.:     0.1249993 α      in ANC's #5, #10, #12, ...

........................................................................
.............................. CYCLE   40 ..............................
........................................................................
   1   -201.2985475 -0.201299E+03  0.125E-03    0.93       0.0  T
   2   -201.2985477 -0.156900E-06  0.646E-04    0.93      14.0  T
   3   -201.2985477 -0.590231E-07  0.304E-04    0.93      29.7  T
   4   -201.2985477 -0.103536E-07  0.205E-04    0.93      44.1  T
   5   -201.2985477 -0.789706E-08  0.634E-05    0.93     142.8  T
   6   -201.2985477 -0.951331E-09  0.247E-05    0.93     366.6  T
     SCC iter.                  ...        0 min,  0.230 sec
     gradient                   ...        0 min,  0.275 sec
 * total energy  :  -198.1405877 Eh     change       -0.1550177E-04 Eh
   gradient norm :     0.0016958 Eh/α   predicted    -0.8533566E-05 ( -44.95%)
   displ. norm   :     0.1027677 α      lambda       -0.8845113E-05
   maximum displ.:     0.0589396 α      in ANC's #5, #10, #12, ...

........................................................................
.............................. CYCLE   41 ..............................
........................................................................
   1   -201.2984174 -0.201298E+03  0.829E-04    0.93       0.0  T
   2   -201.2984175 -0.669166E-07  0.386E-04    0.93      23.5  T
   3   -201.2984175 -0.104823E-07  0.169E-04    0.93      53.6  T
   4   -201.2984175  0.434392E-08  0.125E-04    0.93      72.3  T
     SCC iter.                  ...        0 min,  0.168 sec
     gradient                   ...        0 min,  0.290 sec
 * total energy  :  -198.1405984 Eh     change       -0.1074012E-04 Eh
   gradient norm :     0.0011643 Eh/α   predicted    -0.4443602E-05 ( -58.63%)
   displ. norm   :     0.1454545 α      lambda       -0.1205825E-04
   maximum displ.:     0.0846077 α      in ANC's #5, #10, #12, ...

........................................................................
.............................. CYCLE   42 ..............................
........................................................................
   1   -201.2978739 -0.201298E+03  0.111E-03    0.93       0.0  T
   2   -201.2978740 -0.112810E-06  0.558E-04    0.93      16.2  T
   3   -201.2978740 -0.176317E-07  0.251E-04    0.93      36.0  T
   4   -201.2978740  0.689846E-08  0.168E-04    0.93      53.9  T
   5   -201.2978740 -0.725694E-08  0.578E-05    0.93     156.8  T
     SCC iter.                  ...        0 min,  0.192 sec
     gradient                   ...        0 min,  0.277 sec
 * total energy  :  -198.1406113 Eh     change       -0.1291683E-04 Eh
   gradient norm :     0.0009995 Eh/α   predicted    -0.6087772E-05 ( -52.87%)
   displ. norm   :     0.1511480 α      lambda       -0.9140568E-05
   maximum displ.:     0.0897896 α      in ANC's #5, #10, #12, ...
 * RMSD in coord.:     0.4128044 α      energy gain  -0.1696844E-02 Eh

generating ANC from model Hessian ...
Using Lindh-Hessian (1995)
 Shifting diagonal of input Hessian by    1.0000155470982932E-002
 Lowest  eigenvalues of input Hessian
    0.010000    0.000000    0.000000    0.000000    0.000000    0.000000
    0.000000    0.010003    0.010014    0.010053    0.010144    0.010157
    0.010170    0.010459    0.010583    0.010583    0.010616    0.010623
 Highest eigenvalues
    2.185136    2.191150    2.212380    2.212476    2.364221    2.885101


........................................................................
.............................. CYCLE   43 ..............................
........................................................................
   1   -201.2976216 -0.201298E+03  0.111E-03    0.93       0.0  T
   2   -201.2976217 -0.102219E-06  0.494E-04    0.93      18.3  T
   3   -201.2976217 -0.173847E-07  0.257E-04    0.93      35.2  T
   4   -201.2976217  0.743623E-08  0.182E-04    0.93      49.8  T
   5   -201.2976217 -0.104275E-07  0.522E-05    0.93     173.3  T
     SCC iter.                  ...        0 min,  0.212 sec
     gradient                   ...        0 min,  0.276 sec
 * total energy  :  -198.1406204 Eh     change       -0.9078992E-05 Eh
   gradient norm :     0.0013157 Eh/α   predicted     0.0000000E+00 (-100.00%)
   displ. norm   :     0.0195663 α      lambda       -0.4189184E-05
   maximum displ.:     0.0086507 α      in ANC's #5, #31, #20, ...

........................................................................
.............................. CYCLE   44 ..............................
........................................................................
   1   -201.2979226 -0.201298E+03  0.668E-04    0.93       0.0  T
   2   -201.2979226 -0.303916E-07  0.288E-04    0.93      31.4  T
   3   -201.2979226 -0.369675E-08  0.171E-04    0.93      53.1  T
   4   -201.2979226  0.190678E-08  0.122E-04    0.93      74.2  T
     SCC iter.                  ...        0 min,  0.154 sec
     gradient                   ...        0 min,  0.293 sec
 * total energy  :  -198.1406252 Eh     change       -0.4840103E-05 Eh
   gradient norm :     0.0004972 Eh/α   predicted    -0.2429452E-05 ( -49.81%)
   displ. norm   :     0.0367020 α      lambda       -0.4449866E-05
   maximum displ.:     0.0179806 α      in ANC's #5, #8, #31, ...

   *** GEOMETRY OPTIMIZATION CONVERGED AFTER 44 ITERATIONS ***

------------------------------------------------------------------------
 total energy gain   :        -0.3713525 Eh     -233.0272 kcal/mol
 total RMSD          :         0.9030948 a0        0.4779 Å
 total power (kW/mol):       -22.1587670 (step)  -32.2507 (real)
------------------------------------------------------------------------

 ANCopt (total)                0 d,  0 h,  0 min, 30.232 sec
 optimizer setup                ...        0 min,  0.000 sec (  0.001%)
 model hessian                  ...        0 min,  0.153 sec (  0.507%)
 ANC generation                 ...        0 min,  0.071 sec (  0.234%)
 coordinate transformation      ...        0 min,  0.012 sec (  0.040%)
 single point calculation       ...        0 min, 29.933 sec ( 99.014%)
 optimization log               ...        0 min,  0.030 sec (  0.100%)
 hessian update                 ...        0 min,  0.008 sec (  0.026%)
 rational function              ...        0 min,  0.019 sec (  0.063%)

================
 final structure:
================
122
 xtb: 6.5.1 (b24c23e)
C           10.57843507624171        0.07356511016791        0.10474883303523
C           11.18114448746466        1.25846196842580        0.50701267962104
C           10.52187447986335        2.44061306648219        0.94689793910772
C           11.47756069018719        3.37534268873679        1.23112196956764
C           12.75193423802645        2.79731232886511        0.96740859717551
N           12.52201150003261        1.51836285569844        0.54363728589786
C           14.01043537412692        3.38818270940677        1.12478423079678
C           14.03570690490712        4.80592458967745        1.56148475813426
C           13.48242553775498        5.77940411152162        0.82270309518391
C           13.48413786049811        7.22289642865976        1.25483648176695
N           14.46854584058173        7.45640179875131        2.31468295515526
C           14.85104759584437        6.43515666950990        3.14573908212320
C           14.69555073074556        5.14102656214214        2.81533097607075
C           15.22889260999581        2.74203765572986        0.90163178983643
C           16.52320813790908        3.38466015842949        1.03746169654039
C           17.44863852287505        2.44845479202796        0.74136853239257
N           15.38949213091422        1.44677451499418        0.51299242693188
C           16.71812231153406        1.23911243819403        0.41475733899013
C           17.36061121520505        0.03816915815536        0.05195828135751
C           16.73139356015431       -1.16309790473483       -0.32827210216176
C           17.38350461371083       -2.37181195436124       -0.68808067799390
C           16.42239518736230       -3.28971140468646       -1.01100976446900
C           15.15292462533422       -2.66674107726715       -0.86249953713709
N           15.39158009765553       -1.38470313166617       -0.44193065510031
C           13.89521464834665       -3.24437088948351       -1.07066746745110
C           13.88109296775286       -4.64606298703082       -1.55354660458335
C           13.31284136203063       -5.63267535128073       -0.84419922565771
C           13.27828313861345       -7.05910552106659       -1.32764197773445
N           14.25356122413396       -7.27876469801631       -2.39915054257314
C           14.65337416815371       -6.23816777836842       -3.19749218611287
C           14.52806431049625       -4.95315387820196       -2.82198826711402
C           12.67553064542762       -2.59504885393939       -0.85494558870427
C           11.37286173626116       -3.18763893464730       -1.11393939672723
C           10.45541418639114       -2.25991540126381       -0.77289121699768
C           11.19628860195306       -1.09537437752936       -0.32195131477437
N           12.52905595069008       -1.33008869395756       -0.39191010165604
H            9.49305491292061        0.07221788894948        0.12147755834477
H            9.45227144774972        2.54723954892465        1.03473786188448
H           11.32057107851469        4.37582896620706        1.60043997365560
H           13.25229261964930        0.86019007884833        0.29312344156612
H           12.99321659884925        5.57201513307233       -0.12195892558944
H           12.47591078382640        7.51955220945612        1.60079847638646
H           13.73940498956616        7.87172825674174        0.40618758200536
H           14.40652316370525        8.37302116786237        2.73376071383867
H           15.36446638306964        6.75120612565972        4.04826737831995
H           15.04866455714433        4.34835506427955        3.45943176020604
H           16.68026047710530        4.41452700126402        1.31476925233698
H           18.52275801480025        2.54364351665222        0.73003449487668
H           18.45238022646579       -2.51262071076155       -0.69308341335456
H           16.57536059560461       -4.31114846306580       -1.31921648202617
H           14.66454520997251       -0.70703147772199       -0.23746902444223
H           12.83527854177455       -5.44750683904432        0.11081926471055
H           12.26225179994880       -7.31871244728344       -1.67995302862250
H           13.52066948023834       -7.74368428927238       -0.50376668173170
H           14.16617400673267       -8.17786641296789       -2.85056839373910
H           15.15455536774089       -6.53377308420973       -4.11374131474856
H           14.89309548673820       -4.14707950352810       -3.44261282897861
H           11.20718402835804       -4.17508595921333       -1.51386331127420
H            9.37949300551712       -2.32423579320116       -0.82196185137346
C           30.74937253562362       -0.11703150811603        0.04579991507738
C           30.14641202119891       -1.33609996084894       -0.23593116172949
C           30.80494817012347       -2.57284147861604       -0.48559683249715
C           29.84858000175040       -3.51684130240590       -0.73484743579257
C           28.57455822444267       -2.88618174440643       -0.65277104751927
N           28.80528667123975       -1.57589716065907       -0.33972393747497
C           27.31570886552145       -3.47099440824488       -0.82876999687339
C           27.29004492260417       -4.90624399015716       -1.20418353476509
C           27.83965280908965       -5.34401196440847       -2.34684937761514
C           27.83775792546423       -6.79864261971862       -2.73966119438885
N           26.85578491834080       -7.55583480324806       -1.95916893568476
C           26.47775221830587       -7.12609003047674       -0.71317577090114
C           26.63393918984645       -5.85199870408956       -0.31266789404755
C           26.09742062721059       -2.80422053860813       -0.67760928529195
C           24.80307913950707       -3.42229210603851       -0.89994010187295
C           23.87762951804379       -2.47044916199719       -0.65905022492649
N           25.93678044818041       -1.49828115092196       -0.32646346385484
C           24.60817392320958       -1.27009960481715       -0.30064940624987
C           23.96565776196665       -0.05804418894662        0.02299490657282
C           24.59507291563186        1.16317171559032        0.33258687869097
C           23.94364242611312        2.38042247984187        0.66367010794990
C           24.90533741720240        3.32998213741049        0.87349044494027
C           26.17450385379509        2.72141621856065        0.67201916822832
N           25.93507674410197        1.41047239858772        0.35339280927156
C           27.43251071164131        3.32115566424160        0.80021646319124
C           27.44689055077254        4.76659542215766        1.13005088300307
C           28.01285913935138        5.22967392050932        2.25460808670846
C           28.04671938143261        6.69630352572051        2.59738531112393
N           27.07243186933091        7.44839152582467        1.80197900269756
C           26.67555345596300        6.98665725629871        0.57341326904239
C           26.80203885717339        5.69726511949245        0.21364738312503
C           28.65206654144890        2.65563461688820        0.64062103117578
C           29.95466226496819        3.29591532514477        0.73272493982053
C           30.87216806245845        2.32824202955301        0.53157706949955
C           30.13138621888758        1.10093851907259        0.30048200374916
N           28.79859374464261        1.33688446716568        0.36606278714531
H           31.83476971048259       -0.12434855550474        0.05931569304957
H           31.87452522724270       -2.71016740078153       -0.46865824667555
H           30.00495277753802       -4.56187450131791       -0.94810327020531
H           28.07555112756500       -0.88406771261466       -0.20517230104399
H           28.32599995350983       -4.66969068522791       -3.04213845822990
H           28.84653438990770       -7.23249150260829       -2.60459662958669
H           27.57970189840770       -6.90361415078359       -3.80196053325173
H           26.91816250032192       -8.55570533840314       -2.08597507736405
H           25.96662118965600       -7.87050290913694       -0.11094649995153
H           26.28387481372472       -5.51777087940882        0.65358860256870
H           24.64627814215951       -4.44405817902819       -1.20587856277099
H           22.80348905301249       -2.54525448621145       -0.71868517870839
H           22.87483237676713        2.50361647230979        0.73301862275376
H           24.75280682680634        4.36058251961749        1.14976950813172
H           26.66138424283381        0.72598447190306        0.17018657398842
H           28.48884023901800        4.56801147810176        2.96878097125249
H           29.06290052617643        7.10303393431949        2.43681380004374
H           27.80264742541676        6.84252783439669        3.65813920689935
H           27.15896218215467        8.45030550684711        1.89408525115899
H           26.17550079817177        7.72154774457906       -0.04943644352183
H           26.43924193061342        5.34056092267614       -0.73993157684757
H           30.12008540767417        4.34567794566110        0.91459582876544
H           31.94806977935313        2.40894611533660        0.52287679237692
C           19.98854009838677       -0.00152062893540        0.05162885229188
C           18.76651586318311        0.02419352361830        0.05465069210643
C           21.33771319867519       -0.02158137998037        0.04665983273707
C           22.55973722943510       -0.04797782035292        0.03424186542357

 Bond Distances (Angstroems)
 ---------------------------
C1-C2=1.3889         C1-C35=1.3893        C1-H37=1.0855        C2-C1=1.3889         C2-C3=1.4232         C2-N6=1.3663         
C3-C2=1.4232         C3-C4=1.3667         C3-H38=1.0785        C4-C3=1.3667         C4-C5=1.4240         C4-H39=1.0780        
C5-C4=1.4240         C5-N6=1.3668         C5-C7=1.3992         N6-C2=1.3663         N6-C5=1.3668         N6-H40=1.0145        
C7-C5=1.3992         C7-C8=1.4837         C7-C14=1.3971        C8-C7=1.4837         C8-C9=1.3415         C8-C13=1.4560        
C9-C8=1.3415         C9-C10=1.5068        C9-H41=1.0838        C10-C9=1.5068        C10-N11=1.4652       C10-H42=1.1064       
C10-H43=1.0983       N11-C10=1.4652       N11-C12=1.3711       N11-H44=1.0098       C12-N11=1.3711       C12-C13=1.3447       
C12-H45=1.0854       C13-C8=1.4560        C13-C12=1.3447       C13-H46=1.0807       C14-C7=1.3971        C14-C15=1.4514       
C14-N17=1.3618       C15-C14=1.4514       C15-C16=1.3493       C15-H47=1.0780       C16-C15=1.3493       C16-C18=1.4501       
C16-H48=1.0784       N17-C14=1.3618       N17-C18=1.3483       C18-C16=1.4501       C18-N17=1.3483       C18-C19=1.4095       
C19-C18=1.4095       C19-C20=1.4084       C19-C120=1.4060      C20-C19=1.4084       C20-C21=1.4198       C20-N24=1.3628       
C21-C20=1.4198       C21-C22=1.3677       C21-H49=1.0781       C22-C21=1.3677       C22-C23=1.4219       C22-H50=1.0778       
C23-C22=1.4219       C23-N24=1.3702       C23-C25=1.3996       N24-C20=1.3628       N24-C23=1.3702       N24-H51=1.0147       
C25-C23=1.3996       C25-C26=1.4826       C25-C32=1.3985       C26-C25=1.4826       C26-C27=1.3414       C26-C31=1.4566       
C27-C26=1.3414       C27-C28=1.5065       C27-H52=1.0837       C28-C27=1.5065       C28-N29=1.4655       C28-H53=1.1063       
C28-H54=1.0983       N29-C28=1.4655       N29-C30=1.3711       N29-H55=1.0099       C30-N29=1.3711       C30-C31=1.3446       
C30-H56=1.0854       C31-C26=1.4566       C31-C30=1.3446       C31-H57=1.0808       C32-C25=1.3985       C32-C33=1.4544       
C32-N36=1.3550       C33-C32=1.4544       C33-C34=1.3486       C33-H58=1.0782       C34-C33=1.3486       C34-C35=1.4520       
C34-H59=1.0790       C35-C1=1.3893        C35-C34=1.4520       C35-N36=1.3551       N36-C32=1.3550       N36-C35=1.3551       
H37-C1=1.0855        H38-C3=1.0785        H39-C4=1.0780        H40-N6=1.0145        H41-C9=1.0838        H42-C10=1.1064       
H43-C10=1.0983       H44-N11=1.0098       H45-C12=1.0854       H46-C13=1.0807       H47-C15=1.0780       H48-C16=1.0784       
H49-C21=1.0781       H50-C22=1.0778       H51-N24=1.0147       H52-C27=1.0837       H53-C28=1.1063       H54-C28=1.0983       
H55-N29=1.0099       H56-C30=1.0854       H57-C31=1.0808       H58-C33=1.0782       H59-C34=1.0790       C60-C61=1.3889       
C60-C94=1.3893       C60-H96=1.0855       C61-C60=1.3889       C61-C62=1.4232       C61-N65=1.3663       C62-C61=1.4232       
C62-C63=1.3667       C62-H97=1.0785       C63-C62=1.3667       C63-C64=1.4239       C63-H98=1.0780       C64-C63=1.4239       
C64-N65=1.3668       C64-C66=1.3992       N65-C61=1.3663       N65-C64=1.3668       N65-H99=1.0145       C66-C64=1.3992       
C66-C67=1.4838       C66-C73=1.3970       C67-C66=1.4838       C67-C68=1.3414       C67-C72=1.4559       C68-C67=1.3414       
C68-C69=1.5067       C68-H100=1.0838      C69-C68=1.5067       C69-N70=1.4652       C69-H101=1.1064      C69-H102=1.0982      
N70-C69=1.4652       N70-C71=1.3712       N70-H103=1.0098      C71-N70=1.3712       C71-C72=1.3447       C71-H104=1.0854      
C72-C67=1.4559       C72-C71=1.3447       C72-H105=1.0807      C73-C66=1.3970       C73-C74=1.4515       C73-N76=1.3618       
C74-C73=1.4515       C74-C75=1.3493       C74-H106=1.0780      C75-C74=1.3493       C75-C77=1.4502       C75-H107=1.0784      
N76-C73=1.3618       N76-C77=1.3483       C77-C75=1.4502       C77-N76=1.3483       C77-C78=1.4095       C78-C77=1.4095       
C78-C79=1.4083       C78-C122=1.4060      C79-C78=1.4083       C79-C80=1.4197       C79-N83=1.3628       C80-C79=1.4197       
C80-C81=1.3677       C80-H108=1.0781      C81-C80=1.3677       C81-C82=1.4219       C81-H109=1.0778      C82-C81=1.4219       
C82-N83=1.3702       C82-C84=1.3995       N83-C79=1.3628       N83-C82=1.3702       N83-H110=1.0147      C84-C82=1.3995       
C84-C85=1.4827       C84-C91=1.3985       C85-C84=1.4827       C85-C86=1.3414       C85-C90=1.4566       C86-C85=1.3414       
C86-C87=1.5065       C86-H111=1.0837      C87-C86=1.5065       C87-N88=1.4655       C87-H112=1.1063      C87-H113=1.0982      
N88-C87=1.4655       N88-C89=1.3712       N88-H114=1.0099      C89-N88=1.3712       C89-C90=1.3446       C89-H115=1.0854      
C90-C85=1.4566       C90-C89=1.3446       C90-H116=1.0808      C91-C84=1.3985       C91-C92=1.4544       C91-N95=1.3550       
C92-C91=1.4544       C92-C93=1.3486       C92-H117=1.0782      C93-C92=1.3486       C93-C94=1.4520       C93-H118=1.0790      
C94-C60=1.3893       C94-C93=1.4520       C94-N95=1.3551       N95-C91=1.3550       N95-C94=1.3551       H96-C60=1.0855       
H97-C62=1.0785       H98-C63=1.0780       H99-N65=1.0145       H100-C68=1.0838      H101-C69=1.1064      H102-C69=1.0982      
H103-N70=1.0098      H104-C71=1.0854      H105-C72=1.0807      H106-C74=1.0780      H107-C75=1.0784      H108-C80=1.0781      
H109-C81=1.0778      H110-N83=1.0147      H111-C86=1.0837      H112-C87=1.1063      H113-C87=1.0982      H114-N88=1.0099      
H115-C89=1.0854      H116-C90=1.0808      H117-C92=1.0782      H118-C93=1.0790      C119-C120=1.2223     C119-C121=1.3493     
C120-C19=1.4060      C120-C119=1.2223     C121-C119=1.3493     C121-C122=1.2224     C122-C78=1.4060      C122-C121=1.2224     
 C  H  Rav=1.0853 sigma=0.0094  Rmin=1.0778  Rmax=1.1064    38
 C  C  Rav=1.4057 sigma=0.0577  Rmin=1.2223  Rmax=1.5068    65
 N  H  Rav=1.0122 sigma=0.0024  Rmin=1.0098  Rmax=1.0147     8
 N  C  Rav=1.3799 sigma=0.0388  Rmin=1.3483  Rmax=1.4655    24

 selected bond angles (degree)
 --------------------
C35-C1-C2=127.86               H37-C1-C2=115.50               H37-C1-C35=116.64              C3-C2-C1=126.66                
N6-C2-C1=126.58                N6-C2-C3=106.76                C4-C3-C2=107.97                H38-C3-C2=124.52               
H38-C3-C4=127.51               C5-C4-C3=108.04                H39-C4-C3=127.17               H39-C4-C5=124.79               
N6-C5-C4=106.66                C7-C5-C4=127.79                C7-C5-N6=125.54                C5-N6-C2=110.57                
H40-N6-C2=125.20               H40-N6-C5=124.23               C8-C7-C5=116.87                C14-C7-C5=124.83               
C14-C7-C8=118.30               C9-C8-C7=121.62                C13-C8-C7=118.76               C13-C8-C9=119.61               
C10-C9-C8=122.46               H41-C9-C8=121.82               H41-C9-C10=115.71              N11-C10-C9=111.15              
H42-C10-C9=110.21              H42-C10-N11=110.08             H43-C10-C9=110.16              H43-C10-N11=107.98             
H43-C10-H42=107.16             

 selected dihedral angles (degree)
 ---------------------------------
C3-C2-C1-C35=180.36           C3-C2-C1-H37=  0.88           N6-C2-C1-C35=  1.08           N6-C2-C1-H37=181.60           
C4-C3-C2-C1=180.76            C4-C3-C2-N6=  0.16            H38-C3-C2-C1=  1.05           H38-C3-C2-N6=180.44           
C5-C4-C3-C2=  0.30            C5-C4-C3-H38=180.01           H39-C4-C3-C2=180.90           H39-C4-C3-H38=  0.60          
N6-C5-C4-C3=359.34            N6-C5-C4-H39=178.77           C7-C5-C4-C3=180.42            C7-C5-C4-H39=359.84           
C5-N6-C2-C1=178.81            C5-N6-C2-C3=359.41            H40-N6-C2-C1=358.80           H40-N6-C2-C3=179.41           
C2-N6-C5-C4=  0.77            C2-N6-C5-C7=179.73            H40-N6-C5-C4=180.78           H40-N6-C5-C7=359.73           
C8-C7-C5-C4=357.06            C8-C7-C5-N6=178.33            C14-C7-C5-C4=177.06           C14-C7-C5-N6=358.32           
C9-C8-C7-C5=298.58            C9-C8-C7-C14=118.59           C13-C8-C7-C5=119.43           C13-C8-C7-C14=299.44          
[...]
   116H     0.03081  0.08916   0.969  0.000  0.000
   117H     0.02647  0.08501   0.974  0.000  0.000
   118H     0.02753  0.08393   0.972  0.000  0.000
   119C    -0.02055 -0.02142   1.075  2.946  0.000
   120C    -0.03330 -0.03496   1.102  2.931  0.000
   121C    -0.02056 -0.02143   1.075  2.946  0.000
   122C    -0.03332 -0.03497   1.102  2.931  0.000

Wiberg/Mayer (AO) data.
largest (>0.10) Wiberg bond orders for each atom

 ---------------------------------------------------------------------------
     #   Z sym  total        # sym  WBO       # sym  WBO       # sym  WBO
 ---------------------------------------------------------------------------
     1   6 C    3.922 --    35 C    1.363     2 C    1.347    37 H    0.971
     2   6 C    3.904 --     1 C    1.347     3 C    1.230     6 N    1.170
     3   6 C    3.953 --     4 C    1.594     2 C    1.230    38 H    0.977
     4   6 C    3.960 --     3 C    1.594     5 C    1.236    39 H    0.975
     5   6 C    3.896 --     7 C    1.304     4 C    1.236     6 N    1.175
     6   7 N    3.468 --     5 C    1.175     2 C    1.170    40 H    0.873
     7   6 C    3.940 --    14 C    1.334     5 C    1.304     8 C    1.026
     8   6 C    3.988 --     9 C    1.767    13 C    1.098     7 C    1.026
     9   6 C    3.970 --     8 C    1.767    10 C    1.013    41 H    0.972
    10   6 C    3.961 --     9 C    1.013    43 H    0.976    42 H    0.966
                            11 N    0.949
    11   7 N    3.247 --    12 C    1.160    10 C    0.949    44 H    0.928
                            13 C    0.127
    12   6 C    3.958 --    13 C    1.692    11 N    1.160    45 H    0.971
    13   6 C    3.968 --    12 C    1.692     8 C    1.098    46 H    0.974
                            11 N    0.127
    14   6 C    3.914 --     7 C    1.334    17 N    1.286    15 C    1.127
    15   6 C    3.965 --    16 C    1.709    14 C    1.127    47 H    0.973
    16   6 C    3.964 --    15 C    1.709    18 C    1.129    48 H    0.974
    17   7 N    3.021 --    18 C    1.344    14 C    1.286
    18   6 C    3.909 --    17 N    1.344    19 C    1.255    16 C    1.129
    19   6 C    3.935 --    18 C    1.255    20 C    1.249   120 C    1.190
    20   6 C    3.886 --    21 C    1.251    19 C    1.249    24 N    1.190
    21   6 C    3.959 --    22 C    1.581    20 C    1.251    49 H    0.975
    22   6 C    3.955 --    21 C    1.581    23 C    1.244    50 H    0.974
    23   6 C    3.897 --    25 C    1.306    22 C    1.244    24 N    1.165
    24   7 N    3.474 --    20 C    1.190    23 C    1.165    51 H    0.873
    25   6 C    3.926 --    32 C    1.323    23 C    1.306    26 C    1.029
    26   6 C    3.988 --    27 C    1.766    31 C    1.097    25 C    1.029
    27   6 C    3.970 --    26 C    1.766    28 C    1.013    52 H    0.972
    28   6 C    3.961 --    27 C    1.013    54 H    0.976    53 H    0.966
                            29 N    0.949
    29   7 N    3.246 --    30 C    1.160    28 C    0.949    55 H    0.928
                            31 C    0.127
    30   6 C    3.958 --    31 C    1.693    29 N    1.160    56 H    0.971
    31   6 C    3.967 --    30 C    1.693    26 C    1.097    57 H    0.974
                            29 N    0.127
    32   6 C    3.929 --    25 C    1.323    36 N    1.314    33 C    1.119
    33   6 C    3.967 --    34 C    1.720    32 C    1.119    58 H    0.974
    34   6 C    3.966 --    33 C    1.720    35 C    1.118    59 H    0.976
    35   6 C    3.932 --     1 C    1.363    36 N    1.303    34 C    1.118
    36   7 N    3.010 --    32 C    1.314    35 C    1.303
    37   1 H    1.002 --     1 C    0.971
    38   1 H    0.998 --     3 C    0.977
    39   1 H    1.007 --     4 C    0.975
    40   1 H    0.986 --     6 N    0.873
    41   1 H    1.003 --     9 C    0.972
    42   1 H    1.008 --    10 C    0.966
    43   1 H    1.019 --    10 C    0.976
    44   1 H    0.964 --    11 N    0.928
    45   1 H    1.001 --    12 C    0.971
    46   1 H    1.003 --    13 C    0.974
    47   1 H    1.006 --    15 C    0.973
    48   1 H    1.003 --    16 C    0.974
    49   1 H    1.003 --    21 C    0.975
    50   1 H    1.006 --    22 C    0.974
    51   1 H    0.988 --    24 N    0.873
    52   1 H    1.004 --    27 C    0.972
    53   1 H    1.007 --    28 C    0.966
    54   1 H    1.019 --    28 C    0.976
    55   1 H    0.964 --    29 N    0.928
    56   1 H    1.001 --    30 C    0.971
    57   1 H    1.003 --    31 C    0.974
    58   1 H    1.007 --    33 C    0.974
    59   1 H    0.999 --    34 C    0.976
    60   6 C    3.922 --    94 C    1.363    61 C    1.347    96 H    0.971
    61   6 C    3.904 --    60 C    1.347    62 C    1.230    65 N    1.170
    62   6 C    3.953 --    63 C    1.594    61 C    1.230    97 H    0.977
    63   6 C    3.960 --    62 C    1.594    64 C    1.236    98 H    0.975
    64   6 C    3.896 --    66 C    1.304    63 C    1.236    65 N    1.175
    65   7 N    3.468 --    64 C    1.175    61 C    1.170    99 H    0.873
    66   6 C    3.940 --    73 C    1.335    64 C    1.304    67 C    1.026
    67   6 C    3.988 --    68 C    1.768    72 C    1.098    66 C    1.026
    68   6 C    3.970 --    67 C    1.768    69 C    1.013   100 H    0.972
    69   6 C    3.962 --    68 C    1.013   102 H    0.976   101 H    0.966
                            70 N    0.949
    70   7 N    3.247 --    71 C    1.160    69 C    0.949   103 H    0.928
                            72 C    0.127
    71   6 C    3.958 --    72 C    1.692    70 N    1.160   104 H    0.971
    72   6 C    3.968 --    71 C    1.692    67 C    1.098   105 H    0.974
                            70 N    0.127
    73   6 C    3.914 --    66 C    1.335    76 N    1.286    74 C    1.127
    74   6 C    3.965 --    75 C    1.709    73 C    1.127   106 H    0.973
    75   6 C    3.964 --    74 C    1.709    77 C    1.129   107 H    0.974
    76   7 N    3.021 --    77 C    1.344    73 C    1.286
    77   6 C    3.909 --    76 N    1.344    78 C    1.255    75 C    1.129
    78   6 C    3.935 --    77 C    1.255    79 C    1.249   122 C    1.190
    79   6 C    3.886 --    80 C    1.251    78 C    1.249    83 N    1.190
    80   6 C    3.959 --    81 C    1.581    79 C    1.251   108 H    0.975
    81   6 C    3.955 --    80 C    1.581    82 C    1.244   109 H    0.974
    82   6 C    3.897 --    84 C    1.306    81 C    1.244    83 N    1.165
    83   7 N    3.474 --    79 C    1.190    82 C    1.165   110 H    0.873
    84   6 C    3.926 --    91 C    1.323    82 C    1.306    85 C    1.028
    85   6 C    3.988 --    86 C    1.767    90 C    1.097    84 C    1.028
    86   6 C    3.970 --    85 C    1.767    87 C    1.013   111 H    0.972
    87   6 C    3.961 --    86 C    1.013   113 H    0.976   112 H    0.966
                            88 N    0.949
    88   7 N    3.246 --    89 C    1.160    87 C    0.949   114 H    0.928
                            90 C    0.127
    89   6 C    3.958 --    90 C    1.693    88 N    1.160   115 H    0.971
    90   6 C    3.967 --    89 C    1.693    85 C    1.097   116 H    0.974
                            88 N    0.127
    91   6 C    3.929 --    84 C    1.323    95 N    1.314    92 C    1.119
    92   6 C    3.967 --    93 C    1.720    91 C    1.119   117 H    0.974
    93   6 C    3.966 --    92 C    1.720    94 C    1.118   118 H    0.976
    94   6 C    3.932 --    60 C    1.363    95 N    1.303    93 C    1.118
    95   7 N    3.010 --    91 C    1.314    94 C    1.303
    96   1 H    1.002 --    60 C    0.971
    97   1 H    0.998 --    62 C    0.977
    98   1 H    1.007 --    63 C    0.975
    99   1 H    0.986 --    65 N    0.873
   100   1 H    1.003 --    68 C    0.972
   101   1 H    1.008 --    69 C    0.966
   102   1 H    1.019 --    69 C    0.976
   103   1 H    0.964 --    70 N    0.928
   104   1 H    1.001 --    71 C    0.971
   105   1 H    1.003 --    72 C    0.974
   106   1 H    1.006 --    74 C    0.973
   107   1 H    1.003 --    75 C    0.974
   108   1 H    1.003 --    80 C    0.975
   109   1 H    1.006 --    81 C    0.974
   110   1 H    0.988 --    83 N    0.873
   111   1 H    1.003 --    86 C    0.972
   112   1 H    1.007 --    87 C    0.966
   113   1 H    1.019 --    87 C    0.976
   114   1 H    0.964 --    88 N    0.928
   115   1 H    1.001 --    89 C    0.971
   116   1 H    1.003 --    90 C    0.974
   117   1 H    1.007 --    92 C    0.974
   118   1 H    0.999 --    93 C    0.976
   119   6 C    3.932 --   120 C    2.473   121 C    1.310
   120   6 C    3.925 --   119 C    2.473    19 C    1.190   122 C    0.199
   121   6 C    3.932 --   122 C    2.473   119 C    1.310
   122   6 C    3.925 --   121 C    2.473    78 C    1.190   120 C    0.199
 ---------------------------------------------------------------------------

Topologies differ in total number of bonds
Writing topology from bond orders to xtbtopo.mol

 dipole moment from electron density (au)
     X       Y       Z   
  -0.0007   0.0532  -0.1843  total (Debye):    0.488

           -------------------------------------------------
          |                Geometry Summary                 |
           -------------------------------------------------

      molecular mass/u    :      983.1328106
   center of mass at/Å    :       20.6633533      -0.0018145       0.0076382
  moments of inertia/u·Å² :        0.1773009E+05   0.4591790E+05   0.6305552E+05
rotational constants/cm⁻¹ :        0.9507920E-03   0.3671255E-03   0.2673459E-03

 * 118 selected distances

     #   Z          #   Z                                           value/Å
     1   6 C        2   6 C                                       1.3889045
     2   6 C        3   6 C                                       1.4232419
     3   6 C        4   6 C                                       1.3666892
     4   6 C        5   6 C                                       1.4239706
     2   6 C        6   7 N                                       1.3663142
     5   6 C        6   7 N                                       1.3668060
     5   6 C        7   6 C                                       1.3991856
     8   6 C        9   6 C                                       1.3414847
    10   6 C       11   7 N                                       1.4652163
    11   7 N       12   6 C                                       1.3710959
    12   6 C       13   6 C                                       1.3446642
     7   6 C       14   6 C                                       1.3971180
    14   6 C       15   6 C                                       1.4514360
    15   6 C       16   6 C                                       1.3492863
    14   6 C       17   7 N                                       1.3618149
    16   6 C       18   6 C                                       1.4501166
    17   7 N       18   6 C                                       1.3483442
    18   6 C       19   6 C                                       1.4094965
    19   6 C       20   6 C                                       1.4083795
    20   6 C       21   6 C                                       1.4197539
    21   6 C       22   6 C                                       1.3676821
    22   6 C       23   6 C                                       1.4218661
    20   6 C       24   7 N                                       1.3627647
    23   6 C       24   7 N                                       1.3702030
    23   6 C       25   6 C                                       1.3995802
    26   6 C       27   6 C                                       1.3414499
    28   6 C       29   7 N                                       1.4654516 (max)
    29   7 N       30   6 C                                       1.3711463
    30   6 C       31   6 C                                       1.3446066
    25   6 C       32   6 C                                       1.3984936
    33   6 C       34   6 C                                       1.3485901
     1   6 C       35   6 C                                       1.3893293
    34   6 C       35   6 C                                       1.4520323
    32   6 C       36   7 N                                       1.3549839
    35   6 C       36   7 N                                       1.3550846
     1   6 C       37   1 H                                       1.0855100
     3   6 C       38   1 H                                       1.0784878
     4   6 C       39   1 H                                       1.0779678
     6   7 N       40   1 H                                       1.0145242
     9   6 C       41   1 H                                       1.0838460
    10   6 C       42   1 H                                       1.1064431
    10   6 C       43   1 H                                       1.0983393
    11   7 N       44   1 H                                       1.0097843 (min)
    12   6 C       45   1 H                                       1.0853772
    13   6 C       46   1 H                                       1.0806866
    15   6 C       47   1 H                                       1.0780496
    16   6 C       48   1 H                                       1.0783887
    21   6 C       49   1 H                                       1.0781222
    22   6 C       50   1 H                                       1.0778329
    24   7 N       51   1 H                                       1.0147036
    27   6 C       52   1 H                                       1.0837039
    28   6 C       53   1 H                                       1.1062725
    28   6 C       54   1 H                                       1.0982577
    29   7 N       55   1 H                                       1.0098508
    30   6 C       56   1 H                                       1.0853929
    31   6 C       57   1 H                                       1.0808232
    33   6 C       58   1 H                                       1.0781651
    34   6 C       59   1 H                                       1.0789586
    60   6 C       61   6 C                                       1.3889068
    61   6 C       62   6 C                                       1.4232121
    62   6 C       63   6 C                                       1.3667121
    63   6 C       64   6 C                                       1.4239382
    61   6 C       65   7 N                                       1.3663430
    64   6 C       65   7 N                                       1.3667773
    64   6 C       66   6 C                                       1.3991725
    67   6 C       68   6 C                                       1.3414154
    69   6 C       70   7 N                                       1.4651893
    70   7 N       71   6 C                                       1.3711632
    71   6 C       72   6 C                                       1.3446598
    66   6 C       73   6 C                                       1.3970195
    73   6 C       74   6 C                                       1.4514695
    74   6 C       75   6 C                                       1.3492554
    73   6 C       76   7 N                                       1.3618321
    75   6 C       77   6 C                                       1.4501675
    76   7 N       77   6 C                                       1.3483059
    77   6 C       78   6 C                                       1.4094862
    78   6 C       79   6 C                                       1.4083250
    79   6 C       80   6 C                                       1.4197456
    80   6 C       81   6 C                                       1.3676790
    81   6 C       82   6 C                                       1.4218745
    79   6 C       83   7 N                                       1.3627917
    82   6 C       83   7 N                                       1.3701906
    82   6 C       84   6 C                                       1.3995369
    85   6 C       86   6 C                                       1.3414139
    87   6 C       88   7 N                                       1.4654501
    88   7 N       89   6 C                                       1.3711620
    89   6 C       90   6 C                                       1.3446049
    84   6 C       91   6 C                                       1.3984655
    92   6 C       93   6 C                                       1.3485805
    60   6 C       94   6 C                                       1.3893241
    93   6 C       94   6 C                                       1.4520458
    91   6 C       95   7 N                                       1.3549741
    94   6 C       95   7 N                                       1.3551042
    60   6 C       96   1 H                                       1.0855061
    62   6 C       97   1 H                                       1.0784900
    63   6 C       98   1 H                                       1.0779727
    65   7 N       99   1 H                                       1.0145178
    68   6 C      100   1 H                                       1.0838219
    69   6 C      101   1 H                                       1.1063894
    69   6 C      102   1 H                                       1.0982222
    70   7 N      103   1 H                                       1.0098079
    71   6 C      104   1 H                                       1.0853966
    72   6 C      105   1 H                                       1.0806966
    74   6 C      106   1 H                                       1.0780496
    75   6 C      107   1 H                                       1.0783924
    80   6 C      108   1 H                                       1.0781192
    81   6 C      109   1 H                                       1.0778372
    83   7 N      110   1 H                                       1.0146975
    86   6 C      111   1 H                                       1.0836966
    87   6 C      112   1 H                                       1.1062717
    87   6 C      113   1 H                                       1.0982494
    88   7 N      114   1 H                                       1.0098529
    89   6 C      115   1 H                                       1.0853841
    90   6 C      116   1 H                                       1.0808203
    92   6 C      117   1 H                                       1.0781668
    93   6 C      118   1 H                                       1.0789595
   119   6 C      120   6 C                                       1.2222986
   121   6 C      122   6 C                                       1.2223723

 * 4 distinct bonds (by element types)

   Z      Z             #   av. dist./Å        max./Å        min./Å
   1 H    6 C          38     1.0852912     1.1064431     1.0778329
   6 C    6 C          48     1.3858133     1.4520458     1.2222986
   1 H    7 N           8     1.0122174     1.0147036     1.0097843
   6 C    7 N          24     1.3799379     1.4654516     1.3483059


optimized geometry written to: xtbopt.xyz


           -------------------------------------------------
          | TOTAL ENERGY             -198.140625250271 Eh   |
          | GRADIENT NORM               0.000496498026 Eh/α |
          | HOMO-LUMO GAP               0.927379430766 eV   |
           -------------------------------------------------

------------------------------------------------------------------------
 * finished run on 2022/07/27 at 22:03:53.383     
------------------------------------------------------------------------
 total:
 * wall-time:     0 d,  0 h,  0 min, 32.177 sec
 *  cpu-time:     0 d,  0 h,  0 min, 31.972 sec
 * ratio c/w:     0.994 speedup
 SCF:
 * wall-time:     0 d,  0 h,  0 min,  1.240 sec
 *  cpu-time:     0 d,  0 h,  0 min,  1.233 sec
 * ratio c/w:     0.995 speedup
 ANC optimizer:
 * wall-time:     0 d,  0 h,  0 min, 30.774 sec
 *  cpu-time:     0 d,  0 h,  0 min, 30.613 sec
 * ratio c/w:     0.995 speedup

