122
 energy: -197.769272789687 gnorm: 0.929716856904 xtb: 6.5.1 (b24c23e)
C           10.38066100000000       -0.02586300000000        0.07728400000000
C           11.11453700000000        1.19719600000000        0.70844600000000
C           10.52046700000000        2.21770000000000        1.41546700000000
C           11.54555200000000        3.13932300000000        1.75475100000000
C           12.72997000000000        2.65447700000000        1.23383600000000
N           12.46275800000000        1.44192500000000        0.64867000000000
C           14.15011200000000        3.35940000000000        1.27153100000000
C           14.14184600000000        4.79402900000000        1.59209900000000
C           13.83226800000000        5.68597600000000        0.62648900000000
C           13.76333600000000        7.16692300000000        0.83257200000000
N           14.21013400000000        7.55613600000000        2.16818400000000
C           14.44878400000000        6.62618800000000        3.15336100000000
C           14.44263700000000        5.30768700000000        2.92297600000000
C           15.27611100000000        2.66000400000000        0.96801800000000
C           16.57552900000000        3.29778500000000        0.93857500000000
C           17.47836700000000        2.39112900000000        0.58286700000000
N           15.47397300000000        1.34738900000000        0.62856600000000
C           16.80298900000000        1.12393500000000        0.37688900000000
C           17.46930500000000        0.00022100000000        0.00006300000000
C           16.69146600000000       -1.36962700000000       -0.19695700000000
C           17.23131700000000       -2.63709000000000       -0.09759100000000
C           16.20530100000000       -3.56441300000000       -0.40787000000000
C           15.06396500000000       -2.83863500000000       -0.67797600000000
N           15.35676300000000       -1.50731900000000       -0.49217000000000
C           13.65074300000000       -3.42139600000000       -1.10199700000000
C           13.66062500000000       -4.75574600000000       -1.71527500000000
C           13.26908200000000       -5.82686500000000       -0.99065800000000
C           13.19848000000000       -7.22603100000000       -1.51825700000000
N           13.75618100000000       -7.33588200000000       -2.86544000000000
C           14.06013500000000       -6.21774400000000       -3.61005000000000
C           14.04203100000000       -4.97876100000000       -3.10393700000000
C           12.52937700000000       -2.67935600000000       -0.90577700000000
C           11.20902400000000       -3.14342600000000       -1.29298000000000
C           10.32285600000000       -2.21022500000000       -0.95689400000000
C           11.04364800000000       -1.11455200000000       -0.35595200000000
N           12.36473300000000       -1.43731100000000       -0.35877600000000
H            9.30347600000000        0.02510500000000       -0.02441900000000
H            9.47001600000000        2.29708600000000        1.64863100000000
H           11.42927600000000        4.06542000000000        2.29711800000000
H           13.15766100000000        0.81958100000000        0.24374700000000
H           13.60504700000000        5.31682700000000       -0.37008200000000
H           12.73161900000000        7.50501500000000        0.68453400000000
H           14.39188900000000        7.67104000000000        0.09111000000000
H           13.90795100000000        8.46680300000000        2.48929600000000
H           14.65472700000000        7.03157300000000        4.13775600000000
H           14.65021400000000        4.58109000000000        3.70127500000000
H           16.77875600000000        4.33158200000000        1.15609700000000
H           18.52977200000000        2.58615600000000        0.47487100000000
H           18.25409200000000       -2.87235200000000        0.15597500000000
H           16.29019600000000       -4.64048400000000       -0.43910800000000
H           14.67393500000000       -0.75455800000000       -0.51598900000000
H           12.96037500000000       -5.67213700000000        0.04063300000000
H           12.15350200000000       -7.55471100000000       -1.53088400000000
H           13.75401600000000       -7.89660700000000       -0.85455900000000
H           13.43131700000000       -8.12884600000000       -3.40403200000000
H           14.32266300000000       -6.40506500000000       -4.64546400000000
H           14.29300800000000       -4.10596000000000       -3.69775000000000
H           10.98531500000000       -4.07808000000000       -1.77433400000000
H            9.26015500000000       -2.25261300000000       -1.11282300000000
C           30.94708800000000       -0.01831700000000        0.07943400000000
C           30.21321200000000       -1.39036000000000       -0.02889800000000
C           30.80728200000000       -2.63026000000000        0.03400400000000
C           29.78219700000000       -3.59229100000000       -0.16347300000000
C           28.59777900000000       -2.90569000000000       -0.35057500000000
N           28.86499000000000       -1.56682200000000       -0.20869400000000
C           27.17763700000000       -3.52460100000000       -0.69011700000000
C           27.18590300000000       -4.91271700000000       -1.17391000000000
C           27.49548100000000       -5.16170400000000       -2.46463800000000
C           27.56441200000000       -6.52883500000000       -3.07013600000000
N           27.11761500000000       -7.56360400000000       -2.14029900000000
C           26.87896500000000       -7.29263800000000       -0.81291300000000
C           26.88511200000000       -6.05074400000000       -0.31369300000000
C           26.05163800000000       -2.77027200000000       -0.57937900000000
C           24.75221900000000       -3.29673500000000       -0.94058300000000
C           23.84938199999999       -2.33876500000000       -0.76495100000000
N           25.85377600000000       -1.47588800000000       -0.17594800000000
C           24.52476000000000       -1.15333600000000       -0.27203600000000
C           23.85844400000000        0.00022100000000        0.00006300000000
C           24.63628300000000        1.26816300000000        0.55470100000000
C           24.09643200000000        2.29287000000000        1.30723800000000
C           25.12244800000000        3.24445600000000        1.53236800000000
C           26.26378400000000        2.77007000000000        0.92026600000000
N           25.97098600000000        1.54078400000000        0.37640900000000
C           27.67700600000000        3.48880500000000        0.86711700000000
C           27.66712400000000        4.94599600000000        1.04930900000000
C           28.05866700000000        5.47427200000000        2.22968500000000
C           28.12926900000000        6.94138100000000        2.51885200000000
N           27.57156800000000        7.74485000000000        1.43192800000000
C           27.26761399999999        7.18715500000000        0.20977600000000
C           27.28571800000000        5.86749500000000       -0.01321500000000
C           28.79837200000000        2.75479300000000        0.64272500000000
C           30.11872500000000        3.35325700000000        0.55829800000000
C           31.00489300000000        2.38307200000000        0.35200000000000
C           30.28410100000000        1.13521000000000        0.28513500000000
N           28.96301500000000        1.41097700000000        0.45286500000000
H           32.02427200000000       -0.00802000000000       -0.03385800000000
H           31.85773300000000       -2.82062500000000        0.19030100000000
H           29.89847300000000       -4.66517300000000       -0.19072900000000
H           28.17008800000000       -0.82451700000000       -0.22475100000000
H           27.72270200000000       -4.32269700000000       -3.11693600000000
H           28.59613000000000       -6.73811100000000       -3.37415100000000
H           26.93586000000000       -6.56639700000000       -3.96595400000000
H           27.41979800000000       -8.50674700000000       -2.34744400000000
H           26.67302200000000       -8.15602000000000       -0.19006200000000
H           26.67753500000000       -5.84353700000000        0.73070000000000
H           24.54899300000000       -4.28990900000000       -1.30066100000000
H           22.79797700000000       -2.44757200000000       -0.95952800000000
H           23.07365700000000        2.35913700000000        1.64672700000000
H           25.03755200000000        4.17536200000000        2.07303300000000
H           26.65381400000000        0.91364600000000       -0.04062100000000
H           28.36737400000000        4.79917900000000        3.02451200000000
H           29.17424700000000        7.22734800000000        2.68137400000000
H           27.57373300000000        7.16139000000000        3.43633000000000
H           27.89643200000000        8.70260600000000        1.39221600000000
H           27.00508600000000        7.89212000000000       -0.57137500000000
H           27.03474100000000        5.43879900000000       -0.97790000000000
H           30.34243400000000        4.40125000000000        0.64191400000000
H           32.06759400000000        2.50128500000000        0.24183600000000
C           19.92661200000000        0.01265800000000        0.00250400000000
C           18.67434100000000       -0.00652300000000       -0.00184400000000
C           21.24028000000000        0.01189200000000        0.00443700000000
C           22.74341400000000       -0.00652300000000       -0.00184400000000
122
 energy: -197.998838825873 gnorm: 0.363899898022 xtb: 6.5.1 (b24c23e)
C           10.40531949413415        0.00140239355882        0.09100795928152
C           11.11107405108006        1.18257866374655        0.70213372803003
C           10.52499984772836        2.22296114168907        1.41349956659783
C           11.54445884257324        3.13922265286322        1.74912394700221
C           12.74569210654281        2.65643999145734        1.23438237823768
N           12.46305273046614        1.44228645023258        0.64578683425961
C           14.11939168491759        3.33724849549241        1.27235894228528
C           14.13385944078124        4.78948674737953        1.58880122088032
C           13.83199097094319        5.67840924712967        0.62580913102275
C           13.76360831921363        7.16453047119895        0.83402047772036
N           14.21340942969121        7.55437090568134        2.17146943826391
C           14.44478806161906        6.62323967923640        3.15273044727260
C           14.44321509475109        5.29910722902213        2.92129713120964
C           15.27310791657197        2.66012456453597        0.96854906375441
C           16.57392554031764        3.30907657870790        0.94154929502250
C           17.47968235312366        2.39377855933338        0.58276672668340
N           15.45908709104673        1.34181532626467        0.62394027411382
C           16.76758970940219        1.14283869850579        0.38081648671119
C           17.41920109934004       -0.03018157567437        0.00731773693784
C           16.68304700908125       -1.36498961990719       -0.19402786770535
C           17.22711901590237       -2.63806445685150       -0.10339879310710
C           16.20534023160657       -3.56166313484956       -0.41220674888304
C           15.04675345658011       -2.84220493528793       -0.68112730947098
N           15.35241950233159       -1.50937469093944       -0.49615376510389
C           13.68295025117200       -3.40179698785536       -1.09479543661715
C           13.66338297569038       -4.75329615139617       -1.70799240988607
C           13.26890684632020       -5.81956165649059       -0.98782073095172
C           13.19899961924619       -7.22308708542233       -1.51883882787999
N           13.75943262624940       -7.33366088760620       -2.86793608966445
C           14.05507324777897       -6.21450776810721       -3.60937052195844
C           14.04506942728728       -4.97142058750803       -3.09974740993624
C           12.52990623025505       -2.67350655134899       -0.90600570421952
C           11.20795463333354       -3.15154797492009       -1.29643861302655
C           10.31743022054726       -2.21373767660533       -0.95944046623100
C           11.05172853584362       -1.11521237010147       -0.35830868974554
N           12.37649734939813       -1.43100065869848       -0.35559026918488
H            9.31887016211750        0.03611324102289       -0.01451463357141
H            9.47369617244093        2.30014051775032        1.64950175291849
H           11.42773995275450        4.06341677808401        2.29574893798032
H           13.15684484662709        0.82045774422406        0.24377695192669
H           13.60301214153865        5.31964974917910       -0.37179019772358
H           12.72929571241341        7.50696285438973        0.68307070019788
H           14.39223071512970        7.67254846029249        0.09035730969660
H           13.90911418251993        8.46509302997792        2.48742647269339
H           14.65467241168986        7.03241020583816        4.13614465235637
H           14.65159225407086        4.58129546853287        3.70291623852573
H           16.77581459067843        4.34024417842904        1.15881211838190
H           18.53446495937105        2.57941558763072        0.47259495058712
H           18.25073377653454       -2.87214999368181        0.15411422404141
H           16.29199834236940       -4.63788105184609       -0.43915668877140
H           14.67411097810847       -0.75605505031535       -0.51693274070393
H           12.95945275289122       -5.67548870468508        0.04180702348415
H           12.15107024044225       -7.55669034515647       -1.53018727283010
H           13.75409716223751       -7.89829774241983       -0.85418249649458
H           13.43266822707668       -8.12819099464662       -3.40172193307528
H           14.32224043339236       -6.40613209182897       -4.64413315942586
H           14.29564515739077       -4.10609816915200       -3.69885668525519
H           10.98821658987840       -4.08615157733434       -1.77708790550203
H            9.25415182542939       -2.25092902496588       -1.11242063668285
C           30.92253804036000       -0.04855498635631        0.07670868462389
C           30.21661588073975       -1.37475416941324       -0.02654381741643
C           30.80270881877431       -2.63364039023508        0.02962116372784
C           29.78319208375117       -3.58930299295290       -0.16823255920217
C           28.58213479950008       -2.90781322426818       -0.35115130824383
N           28.86477431164780       -1.56557100475837       -0.21135812762732
C           27.20847122349405       -3.50640993829084       -0.67778894566122
C           27.19391284042324       -4.90717600928790       -1.17434150596993
C           27.49575903552624       -5.15490353475445       -2.46125100011288
C           27.56413892795629       -6.52756338699703       -3.06763876906731
N           27.11435243816786       -7.56382342980142       -2.13654809667799
C           26.88297348113699       -7.28980493231087       -0.81191917197206
C           26.88454183484571       -6.04256464666647       -0.31057617702916
C           26.05481897491452       -2.77175530873956       -0.57914130520347
C           24.75476676149085       -3.30870490110619       -0.94415093808593
C           23.84903171645500       -2.34104821991859       -0.76671957824955
N           25.86848972425949       -1.46884017760619       -0.17645064274488
C           24.56294755656034       -1.17526597171962       -0.28010724527001
C           23.90379777747448        0.02148097825965        0.02130482655340
C           24.64751324107592        1.26596565677472        0.55660638385188
C           24.10107235651012        2.29674694682806        1.30322551659638
C           25.12319329703232        3.24476105346504        1.52739761818529
C           26.28121407934238        2.77545916462496        0.91981716335479
N           25.97659981114288        1.54574585547410        0.37394953059804
C           27.64555049545272        3.46865076430654        0.86289204475531
C           27.66447219729053        4.94017697174533        1.05416154249410
C           28.05885130559074        5.46660885357960        2.22825412594837
C           28.12875332224334        6.93920004552262        2.51680914276882
N           27.56831412482093        7.74428655489968        1.42863917967195
C           27.27265827934416        7.18406780214177        0.20864191390611
C           27.28265719396424        5.85908619356619       -0.01353043327043
C           28.79789236014680        2.75009700552535        0.63959296789584
C           30.11988293433654        3.36200442644544        0.55963518510624
C           31.01030589790025        2.38743578285646        0.35169714391401
C           30.27599623367048        1.13698032142916        0.28349140624389
N           28.95119352413244        1.40379806245726        0.45222349079341
H           32.00892695205057       -0.02255843333224       -0.03127844050979
H           31.85402369996159       -2.82366075674735        0.18943001543663
H           29.89998499425588       -4.66278739102876       -0.19085586822919
H           28.17104752079958       -0.82521080365969       -0.22518751973410
H           27.72473858618514       -4.32418645524218       -3.11988342154748
H           28.59844602769400       -6.73898183683662       -3.37641258636730
H           26.93551676893247       -6.56727210689324       -3.96737622179324
H           27.41862321343194       -8.50430519586205       -2.34812786976335
H           26.67307479756317       -8.15586508702942       -0.19188041432997
H           26.67615995766694       -5.84457339833058        0.73199311175953
H           24.55206102257609       -4.29901023305125       -1.30299957692862
H           22.79361839707755       -2.44000590436494       -0.95764111411327
H           23.07701285479136        2.35961238218987        1.64474246800566
H           25.03581303433742        4.17334117865641        2.07162384411466
H           26.65404427878769        0.91562764284927       -0.04065999244221
H           28.36830079194524        4.80141414394797        3.02726845080002
H           29.17668134121736        7.22867032581121        2.68301095529660
H           27.57365189408336        7.16263105681600        3.43754327748986
H           27.89508234906206        8.70083566875014        1.39383444353356
H           27.00551115611936        7.89234174127561       -0.56968829674850
H           27.03210766782772        5.43951039943731       -0.97877360746714
H           30.33957600510089        4.40957892381509        0.64382146717126
H           32.07359454039295        2.49964819931709        0.24129095634160
C           19.97818569567908        0.00707602848337       -0.00052765977661
C           18.72251531699146       -0.02420571023785       -0.00912664315455
C           21.27098136200158        0.01742798391991        0.00393627092239
C           22.60526634202167        0.01366132684356        0.00188344837993
122
 energy: -198.075957902060 gnorm: 0.181411900210 xtb: 6.5.1 (b24c23e)
C           10.45030462511643        0.03640979285598        0.10980952954544
C           11.11446638099063        1.16663773037821        0.69396961417818
C           10.53497071093637        2.23302954968435        1.40657245719598
C           11.54282248922697        3.13885692219729        1.73678054532375
C           12.76635247206684        2.65593674424287        1.23271632772008
N           12.46861181625686        1.44034968916204        0.64401357658941
C           14.07569808313908        3.30314868089282        1.27226788564965
C           14.11521725960009        4.77553852094213        1.58643266042176
C           13.82832944497216        5.66583407849075        0.62416151959640
C           13.76441908190632        7.15809585477245        0.83479810615626
N           14.21746898202703        7.54700697541127        2.17372028860041
C           14.43834826906119        6.61276522246961        3.15027469087654
C           14.44060347138081        5.28418884389522        2.91797641972476
C           15.26609051174121        2.65604751243473        0.96437833030260
C           16.56783597489694        3.31536688151893        0.94305540250597
C           17.47937452207308        2.39243840641941        0.58109902045126
N           15.44588684372513        1.33555617907030        0.61088670525981
C           16.74833293513543        1.14687690374259        0.37924894252946
C           17.39118285139025       -0.07318538365530        0.02489896890338
C           16.67935985050346       -1.34849600271668       -0.18659491813084
C           17.22060663913138       -2.63862308801896       -0.11631453341694
C           16.20806354213433       -3.55336742781622       -0.42389029637618
C           15.02701749794412       -2.83995020772236       -0.68691954149295
N           15.34802688325734       -1.50621879750241       -0.49575385106668
C           13.72716052154288       -3.37108714280929       -1.08388917766129
C           13.67546989748592       -4.74436236946799       -1.69361447189178
C           13.27059775748812       -5.80769981170418       -0.98107511956694
C           13.19837241101588       -7.21558927085229       -1.51827270812813
N           13.76313373543087       -7.32632799216606       -2.86814829856733
C           14.04695278959589       -6.20470293998388       -3.60562642090301
C           14.05101339413209       -4.95941050763450       -3.09068664524330
C           12.53643510422929       -2.66382694269665       -0.90993501882695
C           11.21330778477360       -3.15781143829272       -1.29921231439472
C           10.31810107494249       -2.21369878637094       -0.96092384385715
C           11.06717937130514       -1.11251274610051       -0.36264332820822
N           12.39204212034989       -1.42316835601350       -0.35744718588699
H            9.35732859155326        0.05836536358621        0.01031653320127
H            9.48369963686563        2.30659688267450        1.64968086152900
H           11.42504432873978        4.05884763217272        2.29130049901140
H           13.16056055408962        0.81887553337128        0.24336187633316
H           13.59630187316618        5.32370756567959       -0.37696987462262
H           12.72861032968869        7.50794838134799        0.68160729537705
H           14.39236012380153        7.67228315967270        0.09074860083182
H           13.91260049613698        8.45946149388347        2.48351835610799
H           14.65430162748665        7.02871499680141        4.13142636422408
H           14.65400566424807        4.57847860621660        3.70622363117645
H           16.76542907920199        4.34909777349780        1.16365369000305
H           18.53775764728276        2.56640723587851        0.46939484198109
H           18.24237422482291       -2.87349338307824        0.14892219145626
H           16.29523680690226       -4.63045353186464       -0.44091139571162
H           14.67196724821404       -0.75373612928754       -0.51621362648392
H           12.95756758221840       -5.68093748769151        0.04761040751089
H           12.14907186874361       -7.55741343933041       -1.52948150111053
H           13.75285914865830       -7.89723850514866       -0.85484236086133
H           13.43641067338865       -8.12468808513310       -3.39620213670207
H           14.31966252780534       -6.40344774798335       -4.63931292674011
H           14.30198441887031       -4.10361735040018       -3.69953461557095
H           10.99800228978264       -4.09672167590774       -1.77862431916211
H            9.25084293346231       -2.24519796475521       -1.10888304872677
C           30.87756231723875       -0.08824882948866        0.07425674559662
C           30.21326243124954       -1.35687185633240       -0.02510205104613
C           30.79273188287474       -2.63852860944098        0.01839065917952
C           29.78458891514660       -3.58237516247425       -0.17848313013167
C           28.56123804842104       -2.90615584338369       -0.35214483409305
N           28.85918024690649       -1.56286691721969       -0.21186245684506
C           27.25061376717340       -3.47558475524156       -0.65957435716235
C           27.21209563480933       -4.89319946268445       -1.16878723272390
C           27.49930962569469       -5.14304087334201       -2.45578530078398
C           27.56331364188429       -6.52231625523182       -3.06346833447604
N           27.11029537092628       -7.55863682634184       -2.13073344556657
C           26.88945227220053       -7.27937779599270       -0.80845856696641
C           26.88712202104909       -6.02780738328800       -0.30554434950475
C           26.05965960421627       -2.76345328426806       -0.58005121975559
C           24.75939109045387       -3.31392200517004       -0.94608411576538
C           23.84593516855942       -2.33975067784887       -0.76790221262064
N           25.87432598896244       -1.45269405922295       -0.18413975648793
C           24.57055166436392       -1.17416242344504       -0.28175456595918
C           23.90955236412907        0.04761968178139        0.05830567316508
C           24.64171352296646        1.24480920488990        0.55098659266752
C           24.10500468036606        2.30365501261054        1.29226301870553
C           25.11928211915214        3.24286800383417        1.51282389653319
C           26.29876614400231        2.77423296911422        0.91283480688144
N           25.97514060875793        1.53980963868313        0.37162873467252
C           27.60001365899894        3.43601079445239        0.85587873511399
C           27.65203482019497        4.92461388934344        1.06166519206432
C           28.05709550159084        5.45279659792962        2.22764748440773
C           28.12933671029090        6.93242760754801        2.51331467409616
N           27.56461102074919        7.73811496580750        1.42459117219559
C           27.28081668651592        7.17367973880056        0.20666642238712
C           27.27670205959629        5.84397791065919       -0.01215400600228
C           28.79092221849578        2.74373147838716        0.63106975356146
C           30.11423309176083        3.36873188659372        0.56061176508289
C           31.00954039019095        2.38819859653867        0.35043091452502
C           30.26056399265979        1.13698621471121        0.27840034275042
N           28.93567845123614        1.39805062096154        0.44655536790200
H           31.97049189108340       -0.05457377966858       -0.02191254492291
H           31.84400476685635       -2.82928838249560        0.18615818133088
H           29.90252765864475       -4.65647361476836       -0.19223110372107
H           28.16727100566295       -0.82355601839900       -0.22469470354565
H           27.73142433282193       -4.32481268331202       -3.12640813903713
H           28.59910443443804       -6.73897834730987       -3.37811600851320
H           26.93540880600198       -6.56720106247964       -3.96684103334549
H           27.41513215130665       -8.49736543837650       -2.34846122083759
H           26.67347455475640       -8.15008272049047       -0.19393752767869
H           26.67371349092582       -5.84383138971819        0.73631452706368
H           24.56268603970285       -4.30887440170639       -1.30348162032769
H           22.78827075974816       -2.42944738715379       -0.95458744884516
H           23.08409700418485        2.36468509662609        1.64207038162091
H           25.03278031582538        4.16742161878570        2.06607537420001
H           26.65234438075221        0.91146349706895       -0.04152378237287
H           28.37018106888697        4.80292935556938        3.03504696685744
H           29.17864342467654        7.22884984313437        2.68396851609387
H           27.57488811363111        7.16205895272252        3.43641421575756
H           27.89133918260149        8.69490887007231        1.39668342355328
H           27.00809833576828        7.88746574134683       -0.56698461675819
H           27.02573509083656        5.43772484192873       -0.98066677814427
H           30.32957611901188        4.41932821552462        0.64811767692976
H           32.07682479470634        2.49294839893920        0.24128869635075
C           20.01105615816789       -0.00148880370299       -0.00636636056146
C           18.75928958045136       -0.05027439919331       -0.01308356386071
C           21.35015458325591        0.02677819725036        0.00273324267209
C           22.53853944547262        0.04007440631671        0.01585757348189
122
 energy: -198.103144365437 gnorm: 0.077318339812 xtb: 6.5.1 (b24c23e)
C           10.49937843614151        0.06025228017045        0.12490278375937
C           11.13175646746637        1.16032449833524        0.69101314237669
C           10.54795873171202        2.24613516414141        1.39543260368542
C           11.54182211279331        3.14275250960805        1.72098065340957
C           12.78091639357219        2.65362998009456        1.23006476495790
N           12.48379454137300        1.43641342317393        0.64752074063732
C           14.04134138566407        3.27884577610582        1.27062964161680
C           14.09058045493577        4.75917818806646        1.58543084886695
C           13.81810880263107        5.65144274421967        0.62140803529965
C           13.76460086223664        7.14709459936295        0.83396802784531
N           14.22112066179458        7.53177860582764        2.17329514881677
C           14.43040054991894        6.59414053437680        3.14708256836227
C           14.43103015511655        5.26432718279395        2.91494462903363
C           15.25168342080663        2.65346871556785        0.95469717856605