      -----------------------------------------------------------      
     |                   =====================                   |     
     |                           x T B                           |     
     |                   =====================                   |     
     |                         S. Grimme                         |     
     |          Mulliken Center for Theoretical Chemistry        |     
     |                    University of Bonn                     |     
      -----------------------------------------------------------      

   * xtb version 6.5.1 (b24c23e) compiled by 'conda@728c89f4b128' on 2022-07-12

   xtb is free software: you can redistribute it and/or modify it under
   the terms of the GNU Lesser General Public License as published by
   the Free Software Foundation, either version 3 of the License, or
   (at your option) any later version.
   
   xtb is distributed in the hope that it will be useful,
   but WITHOUT ANY WARRANTY; without even the implied warranty of
   MERCHANTABILITY or FITNESS FOR A PARTICULAR PURPOSE.  See the
   GNU Lesser General Public License for more details.
   
   Cite this work as:
   * C. Bannwarth, E. Caldeweyher, S. Ehlert, A. Hansen, P. Pracht,
     J. Seibert, S. Spicher, S. Grimme, WIREs Comput. Mol. Sci., 2020, 11,
     e01493. DOI: 10.1002/wcms.1493
   
   for GFN2-xTB:
   * C. Bannwarth, S. Ehlert and S. Grimme., J. Chem. Theory Comput., 2019,
     15, 1652-1671. DOI: 10.1021/acs.jctc.8b01176
   for GFN1-xTB:
   * S. Grimme, C. Bannwarth, P. Shushkov, J. Chem. Theory Comput., 2017,
     13, 1989-2009. DOI: 10.1021/acs.jctc.7b00118
   for GFN0-xTB:
   * P. Pracht, E. Caldeweyher, S. Ehlert, S. Grimme, ChemRxiv, 2019, preprint.
     DOI: 10.26434/chemrxiv.8326202.v1
   for GFN-FF:
   * S. Spicher and S. Grimme, Angew. Chem. Int. Ed., 2020, 59, 15665-15673.
     DOI: 10.1002/anie.202004239
   
   for ALPB and GBSA implicit solvation:
   * S. Ehlert, M. Stahn, S. Spicher, S. Grimme, J. Chem. Theory Comput.,
     2021, 17, 4250-4261. DOI: 10.1021/acs.jctc.1c00471
   
   for DFT-D4:
   * E. Caldeweyher, C. Bannwarth and S. Grimme, J. Chem. Phys., 2017,
     147, 034112. DOI: 10.1063/1.4993215
   * E. Caldeweyher, S. Ehlert, A. Hansen, H. Neugebauer, S. Spicher,
     C. Bannwarth and S. Grimme, J. Chem. Phys., 2019, 150, 154122.
     DOI: 10.1063/1.5090222
   * E. Caldeweyher, J.-M. Mewes, S. Ehlert and S. Grimme, Phys. Chem. Chem. Phys.
     2020, 22, 8499-8512. DOI: 10.1039/D0CP00502A
   
   for sTDA-xTB:
   * S. Grimme and C. Bannwarth, J. Chem. Phys., 2016, 145, 054103.
     DOI: 10.1063/1.4959605
   
   in the mass-spec context:
   * V. Asgeirsson, C. Bauer and S. Grimme, Chem. Sci., 2017, 8, 4879.
     DOI: 10.1039/c7sc00601b
   * J. Koopman and S. Grimme, ACS Omega 2019, 4, 12, 15120-15133.
     DOI: 10.1021/acsomega.9b02011
   
   for metadynamics refer to:
   * S. Grimme, J. Chem. Theory Comput., 2019, 155, 2847-2862
     DOI: 10.1021/acs.jctc.9b00143
   
   for SPH calculations refer to:
   * S. Spicher and S. Grimme, J. Chem. Theory Comput., 2021, 17, 1701-1714
     DOI: 10.1021/acs.jctc.0c01306
   
   with help from (in alphabetical order)
   P. Atkinson, C. Bannwarth, F. Bohle, G. Brandenburg, E. Caldeweyher
   M. Checinski, S. Dohm, S. Ehlert, S. Ehrlich, I. Gerasimov, C. Hölzer
   A. Katbashev, J. Koopman, C. Lavigne, S. Lehtola, F. März, M. Müller,
   F. Musil, H. Neugebauer, J. Pisarek, C. Plett, P. Pracht, F. Pultar,
   J. Seibert, P. Shushkov, S. Spicher, M. Stahn, M. Steiner, T. Strunk,
   J. Stückrath, T. Rose, and J. Unsleber
   
 * started run on 2022/07/29 at 22:51:41.067     

           -------------------------------------------------
          |                Calculation Setup                |
           -------------------------------------------------

          program call               : xtb Co_C2Py_C2_2.xyz --gfn 1 --opt -T 48
          hostname                   : cx3-14-28.cx3.hpc.ic.ac.uk
          coordinate file            : Co_C2Py_C2_2.xyz
          omp threads                :                     1

   ID    Z sym.   atoms
    1   27 Co     1, 59
    2    6 C      2-6, 8-13, 15-19, 21-26, 28-33, 35-40, 60-64, 66-71, 73-77,
                  79-84, 86-91, 93-98, 117, 118
    3    7 N      7, 14, 20, 27, 34, 41, 65, 72, 78, 85, 92, 99
    4    1 H      42-58, 100-116
########################################################################
[WARNING] Please study the warnings concerning your input carefully
-1- prog_main_parseArguments: Unknown option '-T' provided
########################################################################

           -------------------------------------------------
          |                 G F N 1 - x T B                 |
           -------------------------------------------------

        Reference                      10.1021/acs.jctc.7b00118
      * Hamiltonian:
        H0-scaling (s, p, d)           1.850000    2.250000    2.000000
        zeta-weighting                 0.000000
      * Dispersion:
        s8                             2.400000
        a1                             0.630000
        a2                             5.000000
        s9                             0.000000
      * Repulsion:
        kExp                           1.500000
        rExp                           1.000000
      * Coulomb:
        alpha                          2.000000
        third order                    atomic
        anisotropic                    false
      * Halogen bond correction:
        rad-scale                      1.300000
        damping                        0.440000


          ...................................................
          :                      SETUP                      :
          :.................................................:
          :  # basis functions                 416          :
          :  # atomic orbitals                 414          :
          :  # shells                          238          :
          :  # electrons                       392          :
          :  # halogen bonds                     0          :
          :  max. iterations                   250          :
          :  Hamiltonian                  GFN1-xTB          :
          :  restarted?                      false          :
          :  GBSA solvation                  false          :
          :  PC potential                    false          :
          :  electronic temp.          300.0000000     K    :
          :  accuracy                    1.0000000          :
          :  -> integral cutoff          0.2500000E+02      :
          :  -> integral neglect         0.1000000E-07      :
          :  -> SCF convergence          0.1000000E-05 Eh   :
          :  -> wf. convergence          0.2000000E-04 e    :
          :  Broyden damping             0.4000000          :
          ...................................................

 iter      E             dE          RMSdq      gap      omega  full diag
   1   -213.7181306 -0.213718E+03  0.111E+01    0.28       0.0  T
   2   -185.4518854  0.282662E+02  0.120E+01    0.05       1.0  T
   3   -206.3927412 -0.209409E+02  0.738E+00    0.00       1.0  T
   4   -191.2568338  0.151359E+02  0.710E+00    0.03       1.0  T
   5   -204.4358008 -0.131790E+02  0.522E+00    0.27       1.0  T
   6   -213.4107013 -0.897490E+01  0.339E+00    0.20       1.0  T
   7   -213.7738289 -0.363128E+00  0.301E+00    0.29       1.0  T
   8   -213.9273254 -0.153497E+00  0.268E+00    0.26       1.0  T
   9   -214.0217839 -0.944585E-01  0.244E+00    0.26       1.0  T
  10   -214.1652435 -0.143460E+00  0.210E+00    0.24       1.0  T
  11   -214.3921777 -0.226934E+00  0.138E+00    0.20       1.0  T
  12   -214.2534049  0.138773E+00  0.118E+00    0.06       1.0  T
  13   -214.5725534 -0.319148E+00  0.552E-01    0.03       1.0  T
  14   -214.6305392 -0.579858E-01  0.260E-01    0.02       1.0  T
  15   -214.5902263  0.403129E-01  0.449E-01    0.01       1.0  T
  16   -214.4837107  0.106516E+00  0.739E-01    0.04       1.0  T
  17   -214.6365549 -0.152844E+00  0.238E-01    0.07       1.0  T
  18   -214.6421174 -0.556245E-02  0.159E-01    0.02       1.0  T
  19   -214.6239653  0.181520E-01  0.276E-01    0.02       1.0  T
  20   -214.6473686 -0.234033E-01  0.132E-02    0.03       1.0  T
  21   -214.6452224  0.214626E-02  0.907E-02    0.03       1.0  T
  22   -214.6464121 -0.118972E-02  0.576E-02    0.03       1.0  T
  23   -214.6474413 -0.102926E-02  0.633E-03    0.03       1.5  T
  24   -214.6474458 -0.450305E-05  0.387E-03    0.03       2.4  T
  25   -214.6474462 -0.409888E-06  0.329E-03    0.03       2.8  T
  26   -214.6474450  0.122468E-05  0.334E-03    0.03       2.8  T
  27   -214.6474486 -0.356118E-05  0.682E-04    0.03      13.5  T
  28   -214.6474485  0.661478E-07  0.730E-04    0.03      12.6  T
  29   -214.6474486 -0.123131E-06  0.414E-04    0.03      22.2  T
  30   -214.6474487 -0.455803E-07  0.548E-05    0.03     168.1  T
  31   -214.6474487  0.407226E-09  0.622E-05    0.03     147.9  T

   *** convergence criteria satisfied after 31 iterations ***

         #    Occupation            Energy/Eh            Energy/eV
      -------------------------------------------------------------
         1        2.0000           -0.7790496             -21.1990
       ...           ...                  ...                  ...
       190        2.0000           -0.3948529             -10.7445
       191        2.0000           -0.3940511             -10.7227
       192        2.0000           -0.3937425             -10.7143
       193        2.0000           -0.3936206             -10.7110
       194        1.8828           -0.3846066             -10.4657
       195        1.5761           -0.3832166             -10.4279
       196        1.5514           -0.3831476             -10.4260 (HOMO)
       197        0.9898           -0.3819495             -10.3934 (LUMO)
       198                         -0.3542664              -9.6401
       199                         -0.3426419              -9.3238
       200                         -0.3417254              -9.2988
       201                         -0.3224141              -8.7733
       ...                                ...                  ...
       414                          1.6141449              43.9231
      -------------------------------------------------------------
                  HL-Gap            0.0011981 Eh            0.0326 eV
             Fermi-level           -0.3819689 Eh          -10.3939 eV

 SCC (total)                   0 d,  0 h,  0 min,  1.640 sec
 SCC setup                      ...        0 min,  0.005 sec (  0.278%)
 Dispersion                     ...        0 min,  0.003 sec (  0.196%)
 classical contributions        ...        0 min,  0.001 sec (  0.082%)
 integral evaluation            ...        0 min,  0.112 sec (  6.805%)
 iterations                     ...        0 min,  1.251 sec ( 76.299%)
 molecular gradient             ...        0 min,  0.259 sec ( 15.764%)
 printout                       ...        0 min,  0.009 sec (  0.574%)

         :::::::::::::::::::::::::::::::::::::::::::::::::::::
         ::                     SUMMARY                     ::
         :::::::::::::::::::::::::::::::::::::::::::::::::::::
         :: total energy            -211.110919008792 Eh    ::
         :: gradient norm              0.493567626775 Eh/a0 ::
         :: HOMO-LUMO gap              0.032600685956 eV    ::
         ::.................................................::
         :: SCC energy              -214.647448688495 Eh    ::
         :: -> electrostatic           0.178068256018 Eh    ::
         :: repulsion energy           3.636321682007 Eh    ::
         :: dispersion energy         -0.099792002304 Eh    ::
         :: halogen bond corr.         0.000000000000 Eh    ::
         :: add. restraining           0.000000000000 Eh    ::
         :: total charge              -0.000000000000 e     ::
         :::::::::::::::::::::::::::::::::::::::::::::::::::::

      ----------------------------------------------------------- 
     |                   =====================                   |
     |                        A N C O P T                        |
     |                   =====================                   |
     |               Approximate Normal Coordinate               |
     |                Rational Function Optimizer                |
      ----------------------------------------------------------- 

          ...................................................
          :                      SETUP                      :
          :.................................................:
          :   optimization level            normal          :
          :   max. optcycles                   354          :
          :   ANC micro-cycles                  20          :
          :   degrees of freedom               348          :
          :.................................................:
          :   RF solver                   davidson          :
          :   write xtbopt.log                true          :
          :   linear?                        false          :
          :   energy convergence         0.5000000E-05 Eh   :
          :   grad. convergence          0.1000000E-02 Eh/α :
          :   maximium RF displ.         1.0000000          :
          :   Hlow (freq-cutoff)         0.1000000E-01      :
          :   Hmax (freq-cutoff)         5.0000000          :
          :   S6 in model hess.         20.0000000          :
          ...................................................

generating ANC from model Hessian ...
Using Lindh-Hessian (1995)
 Shifting diagonal of input Hessian by    1.0007420617397657E-002
 Lowest  eigenvalues of input Hessian
    0.010000    0.000000    0.000000    0.000000    0.000000    0.000000
    0.000000    0.010031    0.010031    0.010039    0.010047    0.010080
    0.010080    0.010188    0.010221    0.010254    0.010342    0.010348
 Highest eigenvalues
    2.256194    2.591494    2.591494    2.592939    2.592940    3.095981


........................................................................
.............................. CYCLE    1 ..............................
........................................................................
   1   -214.6474487 -0.214647E+03  0.175E-05    0.03       0.0  T
   2   -214.6474484  0.324207E-06  0.106E-03    0.03       8.7  T
   3   -214.6474487 -0.322372E-06  0.854E-05    0.03     107.8  T
   4   -214.6474487 -0.177724E-08  0.213E-05    0.03     431.5  T
     SCC iter.                  ...        0 min,  0.164 sec
     gradient                   ...        0 min,  0.275 sec
 * total energy  :  -211.1109190 Eh     change       -0.1003798E-08 Eh
   gradient norm :     0.4935678 Eh/α   predicted     0.0000000E+00 (-100.00%)
   displ. norm   :     0.4404761 α      lambda       -0.1464874E+00
   maximum displ.:     0.1167524 α      in ANC's #105, #109, #134, ...

........................................................................
.............................. CYCLE    2 ..............................
........................................................................
   1   -214.6607945 -0.214661E+03  0.251E-01    0.00       0.0  T
   2   -214.4314936  0.229301E+00  0.118E+00    0.24       1.0  T
   3   -214.6731804 -0.241687E+00  0.495E-02    0.00       1.0  T
   4   -214.6735334 -0.353052E-03  0.244E-02    0.00       1.0  T
   5   -214.6457743  0.277591E-01  0.313E-01    0.02       1.0  T
   6   -214.6705840 -0.248097E-01  0.104E-01    0.01       1.0  T
   7   -214.6735802 -0.299614E-02  0.140E-02    0.00       1.0  T
   8   -214.6736238 -0.436272E-04  0.325E-03    0.00       2.8  T
   9   -214.6736272 -0.339644E-05  0.114E-03    0.00       8.1  T
  10   -214.6736275 -0.293588E-06  0.596E-04    0.00      15.4  T
  11   -214.6736275  0.101542E-08  0.623E-04    0.00      14.8  T
  12   -214.6736275 -0.542287E-07  0.269E-04    0.00      34.2  T
  13   -214.6736276 -0.135265E-07  0.336E-05    0.00     274.4  T
  14   -214.6736276 -0.156803E-09  0.167E-05    0.00     550.7  T
     SCC iter.                  ...        0 min,  0.555 sec
     gradient                   ...        0 min,  0.275 sec
 * total energy  :  -211.2214856 Eh     change       -0.1105666E+00 Eh
   gradient norm :     0.2493073 Eh/α   predicted    -0.8745932E-01 ( -20.90%)
   displ. norm   :     0.4822191 α      lambda       -0.8382098E-01
   maximum displ.:     0.1358122 α      in ANC's #91, #105, #109, ...

........................................................................
.............................. CYCLE    3 ..............................
........................................................................
   1   -214.7255197 -0.214726E+03  0.196E-01    0.00       0.0  T
   2   -214.5031345  0.222385E+00  0.115E+00    0.29       1.0  T
   3   -214.7325111 -0.229377E+00  0.727E-02    0.00       1.0  T
   4   -214.7325647 -0.536219E-04  0.953E-02    0.00       1.0  T
   5   -214.7148015  0.177632E-01  0.264E-01    0.02       1.0  T
   6   -214.7296526 -0.148511E-01  0.130E-01    0.01       1.0  T
   7   -214.7343578 -0.470519E-02  0.138E-02    0.00       1.0  T
   8   -214.7343987 -0.409294E-04  0.312E-03    0.00       3.0  T
   9   -214.7344006 -0.190936E-05  0.992E-04    0.00       9.3  T
  10   -214.7344003  0.294132E-06  0.199E-03    0.00       4.6  T
  11   -214.7344009 -0.568136E-06  0.860E-04    0.00      10.7  T
  12   -214.7344010 -0.122879E-06  0.118E-04    0.00      77.9  T
  13   -214.7344010 -0.262207E-08  0.318E-05    0.00     289.1  T
     SCC iter.                  ...        0 min,  0.529 sec
     gradient                   ...        0 min,  0.277 sec
 * total energy  :  -211.2766861 Eh     change       -0.5520051E-01 Eh
   gradient norm :     0.0766536 Eh/α   predicted    -0.5165617E-01 (  -6.42%)
   displ. norm   :     0.4622302 α      lambda       -0.1992636E-01
   maximum displ.:     0.1442441 α      in ANC's #91, #105, #72, ...

........................................................................
.............................. CYCLE    4 ..............................
........................................................................
   1   -214.7801287 -0.214780E+03  0.111E-01    0.00       0.0  T
   2   -214.6006721  0.179457E+00  0.102E+00    0.16       1.0  T
   3   -214.7817112 -0.181039E+00  0.564E-02    0.00       1.0  T
   4   -214.7822133 -0.502063E-03  0.335E-02    0.00       1.0  T
   5   -214.7816569  0.556375E-03  0.566E-02    0.00       1.0  T
   6   -214.7748514  0.680556E-02  0.165E-01    0.01       1.0  T
   7   -214.7824586 -0.760722E-02  0.532E-03    0.00       1.7  T
   8   -214.7824631 -0.455750E-05  0.212E-03    0.00       4.3  T
   9   -214.7824639 -0.760870E-06  0.951E-04    0.00       9.7  T
  10   -214.7824641 -0.196292E-06  0.293E-04    0.00      31.4  T
  11   -214.7824641 -0.273516E-08  0.279E-04    0.00      33.0  T
  12   -214.7824641 -0.958627E-08  0.149E-04    0.00      61.6  T
  13   -214.7824641 -0.322123E-08  0.598E-05    0.00     154.0  T
     SCC iter.                  ...        0 min,  0.538 sec
     gradient                   ...        0 min,  0.283 sec
 * total energy  :  -211.2902512 Eh     change       -0.1356503E-01 Eh
   gradient norm :     0.0367458 Eh/α   predicted    -0.1209193E-01 ( -10.86%)
   displ. norm   :     0.4754158 α      lambda       -0.8255553E-02
   maximum displ.:     0.1467822 α      in ANC's #34, #25, #74, ...

........................................................................
.............................. CYCLE    5 ..............................
........................................................................
   1   -214.8018251 -0.214802E+03  0.127E-01    0.00       0.0  T
   2   -214.5912008  0.210624E+00  0.110E+00    0.21       1.0  T
   3   -214.8032995 -0.212099E+00  0.842E-02    0.00       1.0  T
   4   -214.8039382 -0.638775E-03  0.561E-02    0.00       1.0  T
   5   -214.7896287  0.143096E-01  0.229E-01    0.02       1.0  T
   6   -214.8042463 -0.146176E-01  0.367E-02    0.00       1.0  T
   7   -214.8044792 -0.232916E-03  0.369E-03    0.00       2.5  T
   8   -214.8044808 -0.159517E-05  0.143E-03    0.00       6.5  T
   9   -214.8044811 -0.342651E-06  0.640E-04    0.00      14.4  T
  10   -214.8044812 -0.312667E-07  0.491E-04    0.00      18.7  T
  11   -214.8044812 -0.162499E-07  0.350E-04    0.00      26.3  T
  12   -214.8044812 -0.166313E-07  0.171E-04    0.00      53.7  T
  13   -214.8044812 -0.473074E-08  0.348E-05    0.00     264.3  T
     SCC iter.                  ...        0 min,  0.534 sec
     gradient                   ...        0 min,  0.278 sec
 * total energy  :  -211.2963276 Eh     change       -0.6076425E-02 Eh
   gradient norm :     0.0279204 Eh/α   predicted    -0.5060742E-02 ( -16.72%)
   displ. norm   :     0.4846562 α      lambda       -0.4660917E-02
   maximum displ.:     0.1891970 α      in ANC's #25, #34, #74, ...

........................................................................
.............................. CYCLE    6 ..............................
........................................................................
   1   -214.8125467 -0.214813E+03  0.119E-01    0.00       0.0  T
   2   -214.6066702  0.205877E+00  0.109E+00    0.19       1.0  T
   3   -214.8135411 -0.206871E+00  0.879E-02    0.00       1.0  T
   4   -214.8142865 -0.745369E-03  0.564E-02    0.00       1.0  T
   5   -214.8013742  0.129123E-01  0.218E-01    0.02       1.0  T
   6   -214.8146889 -0.133147E-01  0.284E-02    0.00       1.0  T
   7   -214.8148239 -0.134979E-03  0.340E-03    0.00       2.7  T
   8   -214.8148260 -0.214301E-05  0.880E-04    0.00      10.5  T
   9   -214.8148262 -0.125178E-06  0.610E-04    0.00      15.1  T
  10   -214.8148262 -0.448859E-07  0.325E-04    0.00      28.3  T
  11   -214.8148262 -0.161307E-07  0.138E-04    0.00      66.6  T
  12   -214.8148262 -0.788702E-09  0.110E-04    0.00      83.5  T
     SCC iter.                  ...        0 min,  0.492 sec
     gradient                   ...        0 min,  0.289 sec
 * total energy  :  -211.2996028 Eh     change       -0.3275180E-02 Eh
   gradient norm :     0.0188498 Eh/α   predicted    -0.2877867E-02 ( -12.13%)
   displ. norm   :     0.4039577 α      lambda       -0.1947207E-02
   maximum displ.:     0.2004866 α      in ANC's #25, #34, #24, ...

........................................................................
.............................. CYCLE    7 ..............................
........................................................................
   1   -214.8211617 -0.214821E+03  0.596E-02    0.00       0.0  T
   2   -214.7193029  0.101859E+00  0.759E-01    0.08       1.0  T
   3   -214.8213154 -0.102013E+00  0.502E-02    0.00       1.0  T
   4   -214.8198668  0.144858E-02  0.842E-02    0.01       1.0  T
   5   -214.8213945 -0.152762E-02  0.420E-02    0.00       1.0  T
   6   -214.8216108 -0.216371E-03  0.274E-02    0.00       1.0  T
   7   -214.8216967 -0.859128E-04  0.153E-02    0.00       1.0  T
   8   -214.8217357 -0.389680E-04  0.289E-03    0.00       3.2  T
   9   -214.8217371 -0.139059E-05  0.358E-04    0.00      25.7  T
  10   -214.8217371 -0.207263E-07  0.107E-04    0.00      86.0  T
  11   -214.8217371 -0.167762E-08  0.629E-05    0.00     146.4  T
     SCC iter.                  ...        0 min,  0.458 sec
     gradient                   ...        0 min,  0.271 sec
 * total energy  :  -211.3009669 Eh     change       -0.1364181E-02 Eh
   gradient norm :     0.0117668 Eh/α   predicted    -0.1132482E-02 ( -16.98%)
   displ. norm   :     0.3531623 α      lambda       -0.9619667E-03
   maximum displ.:     0.2064286 α      in ANC's #25, #24, #34, ...

........................................................................
.............................. CYCLE    8 ..............................
........................................................................
   1   -214.8274666 -0.214827E+03  0.791E-03    0.01       0.0  T
   2   -214.8274705 -0.397417E-05  0.390E-03    0.01       2.4  T
   3   -214.8267620  0.708518E-03  0.499E-02    0.01       1.0  T
   4   -214.8274114 -0.649366E-03  0.151E-02    0.01       1.0  T
   5   -214.8274580 -0.465866E-04  0.102E-02    0.01       1.0  T
   6   -214.8274765 -0.185300E-04  0.101E-03    0.01       9.1  T
   7   -214.8274764  0.807929E-07  0.109E-03    0.01       8.5  T
   8   -214.8274766 -0.218640E-06  0.154E-04    0.01      59.7  T
   9   -214.8274767 -0.414053E-08  0.920E-05    0.01     100.0  T
     SCC iter.                  ...        0 min,  0.380 sec
     gradient                   ...        0 min,  0.275 sec
 * total energy  :  -211.3016556 Eh     change       -0.6886971E-03 Eh
   gradient norm :     0.0073202 Eh/α   predicted    -0.5409758E-03 ( -21.45%)
   displ. norm   :     0.3386260 α      lambda       -0.6081566E-03
   maximum displ.:     0.2147662 α      in ANC's #25, #24, #28, ...

........................................................................
.............................. CYCLE    9 ..............................
........................................................................
   1   -214.8307517 -0.214831E+03  0.362E-02    0.01       0.0  T
   2   -214.8240579  0.669374E-02  0.193E-01    0.00       1.0  T
   3   -214.8309624 -0.690446E-02  0.365E-03    0.01       2.5  T
   4   -214.8259062  0.505614E-02  0.133E-01    0.01       1.0  T
   5   -214.8309624 -0.505617E-02  0.410E-03    0.01       2.2  T
   6   -214.8309615  0.960103E-06  0.504E-03    0.01       1.8  T
   7   -214.8309656 -0.416650E-05  0.111E-03    0.01       8.3  T
   8   -214.8309656  0.154171E-07  0.112E-03    0.01       8.2  T
   9   -214.8309658 -0.215937E-06  0.188E-04    0.01      48.9  T
  10   -214.8309658 -0.557378E-08  0.572E-05    0.01     160.9  T
     SCC iter.                  ...        0 min,  0.419 sec
     gradient                   ...        0 min,  0.270 sec
 * total energy  :  -211.3020802 Eh     change       -0.4245938E-03 Eh
   gradient norm :     0.0065923 Eh/α   predicted    -0.3389523E-03 ( -20.17%)
   displ. norm   :     0.2731847 α      lambda       -0.3493303E-03
   maximum displ.:     0.1672722 α      in ANC's #25, #24, #28, ...

........................................................................
.............................. CYCLE   10 ..............................
........................................................................
   1   -214.8314267 -0.214831E+03  0.363E-02    0.01       0.0  T
   2   -214.8247575  0.666920E-02  0.193E-01    0.00       1.0  T
   3   -214.8316077 -0.685018E-02  0.111E-02    0.01       1.0  T
   4   -214.8297943  0.181341E-02  0.802E-02    0.01       1.0  T
   5   -214.8316391 -0.184486E-02  0.503E-03    0.01       1.8  T
   6   -214.8316400 -0.861493E-06  0.408E-03    0.01       2.3  T
   7   -214.8316428 -0.276188E-05  0.302E-04    0.01      30.5  T
   8   -214.8316427  0.361291E-07  0.647E-04    0.01      14.2  T
   9   -214.8316428 -0.745553E-07  0.981E-05    0.01      93.9  T
  10   -214.8316428 -0.169686E-08  0.176E-05    0.01     523.0  T
     SCC iter.                  ...        0 min,  0.406 sec
     gradient                   ...        0 min,  0.277 sec
 * total energy  :  -211.3023214 Eh     change       -0.2411863E-03 Eh
   gradient norm :     0.0062447 Eh/α   predicted    -0.1877124E-03 ( -22.17%)
   displ. norm   :     0.2448439 α      lambda       -0.2324748E-03
   maximum displ.:     0.1369212 α      in ANC's #25, #23, #24, ...

........................................................................
.............................. CYCLE   11 ..............................
........................................................................
   1   -214.8302608 -0.214830E+03  0.174E-02    0.01       0.0  T
   2   -214.8276142  0.264654E-02  0.121E-01    0.01       1.0  T
   3   -214.8303047 -0.269048E-02  0.591E-03    0.01       1.6  T
   4   -214.8303076 -0.284076E-05  0.393E-03    0.01       2.3  T
   5   -214.8299321  0.375409E-03  0.364E-02    0.01       1.0  T
   6   -214.8303093 -0.377120E-03  0.261E-03    0.01       3.5  T
   7   -214.8303102 -0.909191E-06  0.113E-03    0.01       8.1  T
   8   -214.8303104 -0.208578E-06  0.125E-04    0.01      73.4  T
   9   -214.8303104 -0.240343E-08  0.424E-05    0.01     217.2  T
     SCC iter.                  ...        0 min,  0.356 sec
     gradient                   ...        0 min,  0.283 sec
 * total energy  :  -211.3024777 Eh     change       -0.1562438E-03 Eh
   gradient norm :     0.0051817 Eh/α   predicted    -0.1232158E-03 ( -21.14%)
   displ. norm   :     0.2277977 α      lambda       -0.1629550E-03
   maximum displ.:     0.1036771 α      in ANC's #25, #23, #28, ...

........................................................................
.............................. CYCLE   12 ..............................
........................................................................
   1   -214.8282271 -0.214828E+03  0.628E-03    0.01       0.0  T
   2   -214.8277090  0.518018E-03  0.536E-02    0.01       1.0  T
   3   -214.8281938 -0.484767E-03  0.123E-02    0.01       1.0  T
   4   -214.8271247  0.106905E-02  0.622E-02    0.01       1.0  T
   5   -214.8282328 -0.110803E-02  0.196E-03    0.01       4.7  T
   6   -214.8282333 -0.554089E-06  0.108E-03    0.01       8.5  T
   7   -214.8282335 -0.154300E-06  0.581E-04    0.01      15.9  T
   8   -214.8282335 -0.515586E-07  0.107E-04    0.01      86.1  T
   9   -214.8282335 -0.203352E-08  0.213E-05    0.01     431.6  T
     SCC iter.                  ...        0 min,  0.368 sec
     gradient                   ...        0 min,  0.277 sec
 * total energy  :  -211.3025855 Eh     change       -0.1078336E-03 Eh
   gradient norm :     0.0045469 Eh/α   predicted    -0.8570606E-04 ( -20.52%)
   displ. norm   :     0.2128726 α      lambda       -0.1329840E-03
   maximum displ.:     0.1114825 α      in ANC's #23, #25, #31, ...

........................................................................
.............................. CYCLE   13 ..............................
........................................................................
   1   -214.8262633 -0.214826E+03  0.226E-02    0.01       0.0  T
   2   -214.8131352  0.131281E-01  0.270E-01    0.02       1.0  T
   3   -214.8262876 -0.131525E-01  0.181E-02    0.01       1.0  T
   4   -214.8195668  0.672088E-02  0.154E-01    0.02       1.0  T
   5   -214.8263289 -0.676215E-02  0.982E-03    0.01       1.0  T
   6   -214.8263384 -0.952364E-05  0.640E-03    0.01       1.4  T
   7   -214.8263416 -0.313814E-05  0.477E-03    0.01       1.9  T
   8   -214.8263450 -0.347133E-05  0.144E-03    0.01       6.4  T
   9   -214.8263454 -0.332737E-06  0.111E-04    0.01      82.7  T
  10   -214.8263454 -0.393129E-09  0.101E-04    0.01      91.6  T
     SCC iter.                  ...        0 min,  0.400 sec
     gradient                   ...        0 min,  0.279 sec
 * total energy  :  -211.3026719 Eh     change       -0.8639829E-04 Eh
   gradient norm :     0.0045957 Eh/α   predicted    -0.6950560E-04 ( -19.55%)
   displ. norm   :     0.1790826 α      lambda       -0.1042095E-03
   maximum displ.:     0.0950402 α      in ANC's #23, #8, #6, ...

........................................................................
.............................. CYCLE   14 ..............................
........................................................................
   1   -214.8255278 -0.214826E+03  0.269E-02    0.00       0.0  T
   2   -214.8046059  0.209219E-01  0.341E-01    0.02       1.0  T
   3   -214.8255726 -0.209667E-01  0.207E-02    0.00       1.0  T
   4   -214.8245070  0.106558E-02  0.635E-02    0.01       1.0  T
   5   -214.8256209 -0.111385E-02  0.121E-02    0.01       1.0  T
   6   -214.8256340 -0.130888E-04  0.836E-03    0.01       1.1  T
   7   -214.8256412 -0.722171E-05  0.513E-03    0.01       1.8  T
   8   -214.8256454 -0.422199E-05  0.127E-03    0.01       7.2  T
   9   -214.8256457 -0.262871E-06  0.354E-05    0.01     260.3  T
  10   -214.8256457 -0.537739E-10  0.260E-05    0.01     353.6  T
     SCC iter.                  ...        0 min,  0.413 sec
     gradient                   ...        0 min,  0.279 sec
 * total energy  :  -211.3027468 Eh     change       -0.7494204E-04 Eh
   gradient norm :     0.0043832 Eh/α   predicted    -0.5377969E-04 ( -28.24%)
   displ. norm   :     0.1907227 α      lambda       -0.9668412E-04
   maximum displ.:     0.0957103 α      in ANC's #23, #8, #6, ...

........................................................................
.............................. CYCLE   15 ..............................
........................................................................
   1   -214.8258372 -0.214826E+03  0.199E-02    0.00       0.0  T
   2   -214.8150394  0.107978E-01  0.245E-01    0.01       1.0  T
   3   -214.8258675 -0.108281E-01  0.144E-02    0.00       1.0  T
   4   -214.8248907  0.976815E-03  0.597E-02    0.01       1.0  T
   5   -214.8258869 -0.996238E-03  0.935E-03    0.00       1.0  T
   6   -214.8258955 -0.857223E-05  0.637E-03    0.00       1.4  T
   7   -214.8258995 -0.400791E-05  0.402E-03    0.00       2.3  T
   8   -214.8259020 -0.254564E-05  0.107E-03    0.00       8.6  T
   9   -214.8259022 -0.186314E-06  0.111E-04    0.00      82.8  T
  10   -214.8259022 -0.218046E-08  0.213E-05    0.00     431.6  T
     SCC iter.                  ...        0 min,  0.418 sec
     gradient                   ...        0 min,  0.279 sec
 * total energy  :  -211.3028202 Eh     change       -0.7338557E-04 Eh
   gradient norm :     0.0039247 Eh/α   predicted    -0.5010261E-04 ( -31.73%)
   displ. norm   :     0.2516120 α      lambda       -0.1040998E-03
   maximum displ.:     0.1125844 α      in ANC's #23, #8, #6, ...

........................................................................
.............................. CYCLE   16 ..............................
........................................................................
   1   -214.8267794 -0.214827E+03  0.799E-03    0.00       0.0  T
   2   -214.8254105  0.136891E-02  0.867E-02    0.01       1.0  T
   3   -214.8267488 -0.133825E-02  0.124E-02    0.00       1.0  T
   4   -214.8264548  0.293948E-03  0.343E-02    0.00       1.0  T
   5   -214.8267876 -0.332781E-03  0.382E-03    0.00       2.4  T
   6   -214.8267892 -0.159390E-05  0.245E-03    0.00       3.8  T
   7   -214.8267900 -0.765041E-06  0.116E-03    0.00       7.9  T
   8   -214.8267902 -0.221148E-06  0.175E-04    0.00      52.7  T
   9   -214.8267902 -0.400127E-08  0.925E-05    0.00      99.5  T
     SCC iter.                  ...        0 min,  0.373 sec
     gradient                   ...        0 min,  0.276 sec
 * total energy  :  -211.3028982 Eh     change       -0.7800054E-04 Eh
   gradient norm :     0.0039153 Eh/α   predicted    -0.5534552E-04 ( -29.04%)
   displ. norm   :     0.2699218 α      lambda       -0.9403499E-04
   maximum displ.:     0.1156261 α      in ANC's #8, #23, #6, ...

........................................................................
.............................. CYCLE   17 ..............................
........................................................................
   1   -214.8281225 -0.214828E+03  0.737E-03    0.00       0.0  T
   2   -214.8273824  0.740133E-03  0.639E-02    0.00       1.0  T
   3   -214.8280890 -0.706604E-03  0.124E-02    0.00       1.0  T
   4   -214.8280310  0.579924E-04  0.188E-02    0.00       1.0  T
   5   -214.8281312 -0.100151E-03  0.755E-04    0.00      12.2  T
   6   -214.8281312 -0.362499E-07  0.682E-04    0.00      13.5  T
   7   -214.8281313 -0.446258E-07  0.492E-04    0.00      18.7  T
   8   -214.8281313 -0.419690E-07  0.390E-05    0.00     236.1  T
   9   -214.8281313 -0.224276E-09  0.292E-05    0.00     315.2  T
     SCC iter.                  ...        0 min,  0.365 sec
     gradient                   ...        0 min,  0.277 sec
 * total energy  :  -211.3029691 Eh     change       -0.7091670E-04 Eh
   gradient norm :     0.0039182 Eh/α   predicted    -0.5044853E-04 ( -28.86%)
   displ. norm   :     0.2668253 α      lambda       -0.8279712E-04
   maximum displ.:     0.1183056 α      in ANC's #8, #6, #18, ...

........................................................................
.............................. CYCLE   18 ..............................
........................................................................
   1   -214.8294262 -0.214829E+03  0.149E-02    0.00       0.0  T
   2   -214.8269678  0.245841E-02  0.116E-01    0.00       1.0  T
   3   -214.8290259 -0.205808E-02  0.391E-02    0.01       1.0  T
   4   -214.8294367 -0.410867E-03  0.100E-02    0.00       1.0  T
   5   -214.8294626 -0.258986E-04  0.119E-03    0.00       7.8  T
   6   -214.8294624  0.186648E-06  0.153E-03    0.00       6.0  T
   7   -214.8294627 -0.244003E-06  0.828E-04    0.00      11.1  T
   8   -214.8294628 -0.128849E-06  0.612E-05    0.00     150.4  T
   9   -214.8294628  0.572783E-09  0.915E-05    0.00     100.6  T
     SCC iter.                  ...        0 min,  0.374 sec
     gradient                   ...        0 min,  0.277 sec
 * total energy  :  -211.3030301 Eh     change       -0.6091336E-04 Eh
   gradient norm :     0.0032143 Eh/α   predicted    -0.4434847E-04 ( -27.19%)
   displ. norm   :     0.2236583 α      lambda       -0.6108301E-04
   maximum displ.:     0.1023128 α      in ANC's #8, #6, #18, ...

........................................................................
.............................. CYCLE   19 ..............................
........................................................................
   1   -214.8302268 -0.214830E+03  0.136E-02    0.01       0.0  T
   2   -214.8281336  0.209317E-02  0.107E-01    0.00       1.0  T
   3   -214.8287316 -0.598018E-03  0.730E-02    0.01       1.0  T
   4   -214.8302462 -0.151458E-02  0.684E-03    0.01       1.3  T
   5   -214.8302571 -0.109060E-04  0.152E-03    0.01       6.1  T
   6   -214.8302573 -0.168552E-06  0.128E-03    0.01       7.2  T
   7   -214.8302573 -0.775180E-07  0.996E-04    0.01       9.2  T
   8   -214.8302575 -0.168652E-06  0.309E-05    0.01     298.1  T
   9   -214.8302575  0.257046E-09  0.570E-05    0.01     161.6  T
     SCC iter.                  ...        0 min,  0.372 sec
     gradient                   ...        0 min,  0.278 sec
 * total energy  :  -211.3030736 Eh     change       -0.4356340E-04 Eh
   gradient norm :     0.0024052 Eh/α   predicted    -0.3207289E-04 ( -26.38%)
   displ. norm   :     0.1895008 α      lambda       -0.4571708E-04
   maximum displ.:     0.0865673 α      in ANC's #8, #6, #18, ...

........................................................................
.............................. CYCLE   20 ..............................
........................................................................
   1   -214.8301367 -0.214830E+03  0.652E-03    0.01       0.0  T
   2   -214.8295038  0.632803E-03  0.576E-02    0.01       1.0  T
   3   -214.8269117  0.259216E-02  0.106E-01    0.01       1.0  T
   4   -214.8301399 -0.322817E-02  0.412E-03    0.01       2.2  T
   5   -214.8301435 -0.365473E-05  0.109E-03    0.01       8.4  T
   6   -214.8301437 -0.219022E-06  0.661E-04    0.01      13.9  T
   7   -214.8301438 -0.208976E-07  0.535E-04    0.01      17.2  T
   8   -214.8301438 -0.467478E-07  0.592E-05    0.01     155.4  T
   9   -214.8301438 -0.742915E-09  0.158E-05    0.01     582.0  T
     SCC iter.                  ...        0 min,  0.369 sec
     gradient                   ...        0 min,  0.277 sec
 * total energy  :  -211.3031037 Eh     change       -0.3007568E-04 Eh
   gradient norm :     0.0023918 Eh/α   predicted    -0.2368233E-04 ( -21.26%)
   displ. norm   :     0.1612636 α      lambda       -0.3526582E-04
   maximum displ.:     0.0718006 α      in ANC's #8, #18, #6, ...
 * RMSD in coord.:     0.3758676 α      energy gain  -0.1921847E+00 Eh

generating ANC from model Hessian ...
Using Lindh-Hessian (1995)
 Shifting diagonal of input Hessian by    1.0091448441168969E-002
 Lowest  eigenvalues of input Hessian
    0.010000    0.010051    0.010071    0.000000    0.000000    0.000000
    0.000000    0.000000    0.000000    0.010095    0.010136    0.010165
    0.010193    0.010237    0.010293    0.010357    0.010390    0.010445
 Highest eigenvalues
    2.151651    2.639458    2.645462    2.645681    2.645705    2.645719


........................................................................
.............................. CYCLE   21 ..............................
........................................................................
   1   -214.8292585 -0.214829E+03  0.231E-03    0.01       0.0  T
   2   -214.8291159  0.142606E-03  0.250E-02    0.01       1.0  T
   3   -214.8281070  0.100888E-02  0.634E-02    0.01       1.0  T
   4   -214.8292580 -0.115105E-02  0.252E-03    0.01       3.7  T
   5   -214.8292592 -0.117333E-05  0.800E-04    0.01      11.5  T
   6   -214.8292593 -0.357279E-07  0.729E-04    0.01      12.6  T
   7   -214.8292593 -0.833259E-07  0.265E-04    0.01      34.7  T
   8   -214.8292594 -0.118015E-07  0.561E-05    0.01     164.2  T
   9   -214.8292594 -0.893436E-09  0.910E-06    0.01    1011.4  T
     SCC iter.                  ...        0 min,  0.367 sec
     gradient                   ...        0 min,  0.276 sec
 * total energy  :  -211.3031272 Eh     change       -0.2347463E-04 Eh
   gradient norm :     0.0027377 Eh/α   predicted     0.0000000E+00 (-100.00%)
   displ. norm   :     0.0228240 α      lambda       -0.1484520E-04
   maximum displ.:     0.0088137 α      in ANC's #18, #25, #10, ...

........................................................................
.............................. CYCLE   22 ..............................
........................................................................
   1   -214.8289186 -0.214829E+03  0.493E-03    0.01       0.0  T
   2   -214.8284775  0.441059E-03  0.493E-02    0.01       1.0  T
   3   -214.8289040 -0.426465E-03  0.824E-03    0.01       1.1  T
   4   -214.8289029  0.107498E-05  0.846E-03    0.01       1.1  T
   5   -214.8289222 -0.192619E-04  0.159E-03    0.01       5.8  T
   6   -214.8289225 -0.296515E-06  0.966E-04    0.01       9.5  T
   7   -214.8289226 -0.102936E-06  0.526E-04    0.01      17.5  T
   8   -214.8289226 -0.457632E-07  0.607E-05    0.01     151.6  T
   9   -214.8289226 -0.646395E-09  0.110E-05    0.01     837.0  T
     SCC iter.                  ...        0 min,  0.359 sec
     gradient                   ...        0 min,  0.269 sec
 * total energy  :  -211.3031408 Eh     change       -0.1361739E-04 Eh
   gradient norm :     0.0018721 Eh/α   predicted    -0.8439718E-05 ( -38.02%)
   displ. norm   :     0.1147156 α      lambda       -0.3576688E-04
   maximum displ.:     0.0498670 α      in ANC's #18, #25, #10, ...

........................................................................
.............................. CYCLE   23 ..............................
........................................................................
   1   -214.8275629 -0.214828E+03  0.206E-02    0.01       0.0  T
   2   -214.8164268  0.111361E-01  0.248E-01    0.02       1.0  T
   3   -214.8268481 -0.104213E-01  0.530E-02    0.01       1.0  T
   4   -214.8273897 -0.541527E-03  0.304E-02    0.01       1.0  T
   5   -214.8276206 -0.230969E-03  0.843E-03    0.01       1.1  T
   6   -214.8276277 -0.708909E-05  0.572E-03    0.01       1.6  T
   7   -214.8276313 -0.356103E-05  0.329E-03    0.01       2.8  T
   8   -214.8276330 -0.176996E-05  0.589E-04    0.01      15.6  T
   9   -214.8276331 -0.571946E-07  0.139E-04    0.01      66.3  T
  10   -214.8276331 -0.269782E-08  0.772E-05    0.01     119.2  T
     SCC iter.                  ...        0 min,  0.401 sec
     gradient                   ...        0 min,  0.274 sec
 * total energy  :  -211.3031658 Eh     change       -0.2504048E-04 Eh
   gradient norm :     0.0027643 Eh/α   predicted    -0.1798841E-04 ( -28.16%)
   displ. norm   :     0.0363682 α      lambda       -0.1381655E-04
   maximum displ.:     0.0181166 α      in ANC's #18, #25, #9, ...

........................................................................
.............................. CYCLE   24 ..............................
........................................................................
   1   -214.8276664 -0.214828E+03  0.122E-03    0.01       0.0  T
   2   -214.8276420  0.244099E-04  0.116E-02    0.01       1.0  T
   3   -214.8276547 -0.126822E-04  0.646E-03    0.01       1.4  T
   4   -214.8276665 -0.118332E-04  0.820E-04    0.01      11.2  T
   5   -214.8276667 -0.118381E-06  0.278E-04    0.01      33.1  T
   6   -214.8276667  0.568861E-08  0.284E-04    0.01      32.4  T
   7   -214.8276667 -0.161654E-07  0.112E-04    0.01      82.4  T
   8   -214.8276667 -0.266598E-08  0.361E-05    0.01     255.1  T
     SCC iter.                  ...        0 min,  0.326 sec
     gradient                   ...        0 min,  0.274 sec
 * total energy  :  -211.3031770 Eh     change       -0.1118968E-04 Eh
   gradient norm :     0.0022622 Eh/α   predicted    -0.6918553E-05 ( -38.17%)
   displ. norm   :     0.1408118 α      lambda       -0.4409860E-04
   maximum displ.:     0.0722869 α      in ANC's #18, #9, #10, ...

........................................................................
.............................. CYCLE   25 ..............................
........................................................................
   1   -214.8276982 -0.214828E+03  0.111E-03    0.01       0.0  T
   2   -214.8276797  0.184542E-04  0.807E-03    0.01       1.1  T
   3   -214.8276539  0.258344E-04  0.124E-02    0.01       1.0  T
   4   -214.8276973 -0.434509E-04  0.241E-03    0.01       3.8  T
   5   -214.8276983 -0.960590E-06  0.786E-04    0.01      11.7  T
   6   -214.8276984 -0.847386E-07  0.296E-04    0.01      31.1  T
   7   -214.8276984 -0.186536E-07  0.164E-04    0.01      56.1  T
   8   -214.8276984 -0.629532E-08  0.533E-05    0.01     172.6  T
     SCC iter.                  ...        0 min,  0.322 sec
     gradient                   ...        0 min,  0.277 sec
 * total energy  :  -211.3032012 Eh     change       -0.2417581E-04 Eh
   gradient norm :     0.0020408 Eh/α   predicted    -0.2249085E-04 (  -6.97%)
   displ. norm   :     0.1044850 α      lambda       -0.2395134E-04
   maximum displ.:     0.0561897 α      in ANC's #18, #9, #10, ...

........................................................................
.............................. CYCLE   26 ..............................
........................................................................
   1   -214.8275361 -0.214828E+03  0.199E-03    0.01       0.0  T
   2   -214.8274669  0.691548E-04  0.191E-02    0.01       1.0  T
   3   -214.8272992  0.167737E-03  0.288E-02    0.01       1.0  T
   4   -214.8275354 -0.236214E-03  0.223E-03    0.01       4.1  T
   5   -214.8275367 -0.132790E-05  0.468E-04    0.01      19.7  T
   6   -214.8275368 -0.459366E-07  0.213E-04    0.01      43.2  T
   7   -214.8275368  0.925431E-08  0.260E-04    0.01      35.4  T
   8   -214.8275368 -0.157142E-07  0.855E-05    0.01     107.7  T
   9   -214.8275368 -0.216136E-08  0.723E-06    0.01    1273.5  T
     SCC iter.                  ...        0 min,  0.365 sec
     gradient                   ...        0 min,  0.281 sec
 * total energy  :  -211.3032161 Eh     change       -0.1486244E-04 Eh
   gradient norm :     0.0021524 Eh/α   predicted    -0.1210687E-04 ( -18.54%)
   displ. norm   :     0.0960293 α      lambda       -0.1773658E-04
   maximum displ.:     0.0537582 α      in ANC's #18, #9, #10, ...

........................................................................
.............................. CYCLE   27 ..............................
........................................................................
   1   -214.8275537 -0.214828E+03  0.243E-03    0.01       0.0  T
   2   -214.8274571  0.966693E-04  0.230E-02    0.01       1.0  T
   3   -214.8274543  0.279010E-05  0.187E-02    0.01       1.0  T
   4   -214.8275537 -0.994160E-04  0.197E-03    0.01       4.7  T
   5   -214.8275547 -0.103372E-05  0.298E-04    0.01      30.8  T
   6   -214.8275547 -0.183960E-07  0.171E-04    0.01      53.9  T
   7   -214.8275547  0.316371E-08  0.187E-04    0.01      49.1  T
     SCC iter.                  ...        0 min,  0.290 sec
     gradient                   ...        0 min,  0.282 sec
 * total energy  :  -211.3032306 Eh     change       -0.1450855E-04 Eh
   gradient norm :     0.0015869 Eh/α   predicted    -0.8950177E-05 ( -38.31%)
   displ. norm   :     0.1827808 α      lambda       -0.2075359E-04
   maximum displ.:     0.1060322 α      in ANC's #18, #9, #10, ...

........................................................................
.............................. CYCLE   28 ..............................
........................................................................
   1   -214.8277573 -0.214828E+03  0.534E-03    0.01       0.0  T
   2   -214.8273694  0.387889E-03  0.463E-02    0.01       1.0  T
   3   -214.8277310 -0.361648E-03  0.104E-02    0.01       1.0  T
   4   -214.8277439 -0.128713E-04  0.803E-03    0.01       1.1  T
   5   -214.8277619 -0.180231E-04  0.395E-04    0.01      23.3  T
   6   -214.8277618  0.170058E-06  0.870E-04    0.01      10.6  T
   7   -214.8277619 -0.190968E-06  0.270E-04    0.01      34.1  T
   8   -214.8277620 -0.138784E-07  0.879E-05    0.01     104.7  T
   9   -214.8277620 -0.140872E-08  0.533E-05    0.01     172.8  T
     SCC iter.                  ...        0 min,  0.371 sec
     gradient                   ...        0 min,  0.282 sec
 * total energy  :  -211.3032478 Eh     change       -0.1720248E-04 Eh
   gradient norm :     0.0016198 Eh/α   predicted    -0.1053562E-04 ( -38.76%)
   displ. norm   :     0.0680155 α      lambda       -0.6046928E-05
   maximum displ.:     0.0431442 α      in ANC's #18, #9, #10, ...

........................................................................
.............................. CYCLE   29 ..............................
........................................................................
   1   -214.8278977 -0.214828E+03  0.781E-04    0.01       0.0  T
   2   -214.8278902  0.743890E-05  0.636E-03    0.01       1.4  T
   3   -214.8278974 -0.715115E-05  0.122E-03    0.01       7.6  T
   4   -214.8278638  0.335706E-04  0.109E-02    0.01       1.0  T
   5   -214.8278977 -0.339242E-04  0.485E-04    0.01      19.0  T
   6   -214.8278978 -0.277685E-07  0.319E-04    0.01      28.9  T
   7   -214.8278978 -0.115812E-07  0.185E-04    0.01      49.6  T
   8   -214.8278978 -0.546277E-08  0.193E-05    0.01     477.8  T
     SCC iter.                  ...        0 min,  0.330 sec
     gradient                   ...        0 min,  0.284 sec
 * total energy  :  -211.3032551 Eh     change       -0.7347649E-05 Eh
   gradient norm :     0.0012945 Eh/α   predicted    -0.3032364E-05 ( -58.73%)
   displ. norm   :     0.1028972 α      lambda       -0.1430035E-04
   maximum displ.:     0.0663650 α      in ANC's #18, #9, #10, ...

........................................................................
.............................. CYCLE   30 ..............................
........................................................................
   1   -214.8284998 -0.214828E+03  0.361E-03    0.01       0.0  T
   2   -214.8282793  0.220478E-03  0.346E-02    0.01       1.0  T
   3   -214.8282932 -0.139063E-04  0.270E-02    0.01       1.0  T
   4   -214.8284958 -0.202525E-03  0.482E-03    0.01       1.9  T
   5   -214.8285016 -0.586084E-05  0.163E-03    0.01       5.6  T
   6   -214.8285019 -0.284654E-06  0.109E-03    0.01       8.4  T
   7   -214.8285021 -0.156945E-06  0.489E-04    0.01      18.8  T
   8   -214.8285021 -0.387517E-07  0.302E-05    0.01     304.6  T
   9   -214.8285021 -0.254772E-09  0.176E-05    0.01     524.3  T
     SCC iter.                  ...        0 min,  0.348 sec
     gradient                   ...        0 min,  0.265 sec
 * total energy  :  -211.3032669 Eh     change       -0.1179450E-04 Eh
   gradient norm :     0.0012839 Eh/α   predicted    -0.7184305E-05 ( -39.09%)
   displ. norm   :     0.0747434 α      lambda       -0.8325828E-05
   maximum displ.:     0.0506626 α      in ANC's #18, #9, #7, ...

........................................................................
.............................. CYCLE   31 ..............................
........................................................................
   1   -214.8284288 -0.214828E+03  0.243E-03    0.01       0.0  T
   2   -214.8283153  0.113447E-03  0.244E-02    0.01       1.0  T
   3   -214.8279915  0.323820E-03  0.390E-02    0.01       1.0  T
   4   -214.8284277 -0.436187E-03  0.279E-03    0.01       3.3  T
   5   -214.8284295 -0.185142E-05  0.108E-03    0.01       8.5  T
   6   -214.8284297 -0.141164E-06  0.681E-04    0.01      13.5  T
   7   -214.8284297 -0.430717E-07  0.389E-04    0.01      23.7  T
   8   -214.8284297 -0.358575E-07  0.660E-05    0.01     139.5  T
   9   -214.8284297 -0.124032E-08  0.122E-05    0.01     753.6  T
     SCC iter.                  ...        0 min,  0.346 sec
     gradient                   ...        0 min,  0.266 sec
 * total energy  :  -211.3032759 Eh     change       -0.9007865E-05 Eh
   gradient norm :     0.0012601 Eh/α   predicted    -0.4175209E-05 ( -53.65%)
   displ. norm   :     0.0780599 α      lambda       -0.6895939E-05
   maximum displ.:     0.0535386 α      in ANC's #18, #9, #7, ...

........................................................................
.............................. CYCLE   32 ..............................
........................................................................
   1   -214.8280092 -0.214828E+03  0.213E-03    0.01       0.0  T
   2   -214.8279329  0.762498E-04  0.203E-02    0.01       1.0  T
   3   -214.8278660  0.668862E-04  0.224E-02    0.01       1.0  T
   4   -214.8280093 -0.143237E-03  0.173E-03    0.01       5.3  T
   5   -214.8280098 -0.543123E-06  0.730E-04    0.01      12.6  T
   6   -214.8280099 -0.416145E-07  0.542E-04    0.01      17.0  T
   7   -214.8280099 -0.397616E-07  0.230E-04    0.01      40.0  T
   8   -214.8280099 -0.869849E-08  0.262E-05    0.01     350.9  T
   9   -214.8280099 -0.145604E-09  0.330E-06    0.01    2791.9  T
     SCC iter.                  ...        0 min,  0.349 sec
     gradient                   ...        0 min,  0.265 sec
 * total energy  :  -211.3032847 Eh     change       -0.8811719E-05 Eh
   gradient norm :     0.0009004 Eh/α   predicted    -0.3459518E-05 ( -60.74%)
   displ. norm   :     0.1180898 α      lambda       -0.1056533E-04
   maximum displ.:     0.0786515 α      in ANC's #18, #9, #7, ...

........................................................................
.............................. CYCLE   33 ..............................
........................................................................
   1   -214.8276163 -0.214828E+03  0.303E-03    0.01       0.0  T
   2   -214.8274638  0.152435E-03  0.287E-02    0.01       1.0  T
   3   -214.8273487  0.115112E-03  0.306E-02    0.01       1.0  T
   4   -214.8276149 -0.266186E-03  0.349E-03    0.01       2.6  T
   5   -214.8276175 -0.261979E-05  0.111E-03    0.01       8.3  T
   6   -214.8276176 -0.100591E-06  0.807E-04    0.01      11.4  T
   7   -214.8276177 -0.797526E-07  0.411E-04    0.01      22.4  T
   8   -214.8276177 -0.283326E-07  0.729E-05    0.01     126.4  T
   9   -214.8276177 -0.121184E-08  0.962E-06    0.01     957.0  T
     SCC iter.                  ...        0 min,  0.345 sec
     gradient                   ...        0 min,  0.265 sec
 * total energy  :  -211.3032977 Eh     change       -0.1296253E-04 Eh
   gradient norm :     0.0007999 Eh/α   predicted    -0.5316932E-05 ( -58.98%)
   displ. norm   :     0.1741153 α      lambda       -0.1352205E-04
   maximum displ.:     0.1137422 α      in ANC's #18, #9, #7, ...

........................................................................
.............................. CYCLE   34 ..............................
........................................................................
   1   -214.8272557 -0.214827E+03  0.416E-03    0.01       0.0  T
   2   -214.8269495  0.306235E-03  0.410E-02    0.01       1.0  T
   3   -214.8271008 -0.151326E-03  0.235E-02    0.01       1.0  T
   4   -214.8272545 -0.153630E-03  0.426E-03    0.01       2.2  T
   5   -214.8272581 -0.362096E-05  0.157E-03    0.01       5.9  T
   6   -214.8272583 -0.180160E-06  0.117E-03    0.01       7.9  T
   7   -214.8272584 -0.174768E-06  0.563E-04    0.01      16.3  T
   8   -214.8272585 -0.513631E-07  0.744E-05    0.01     123.7  T
   9   -214.8272585 -0.100388E-08  0.149E-05    0.01     618.3  T
     SCC iter.                  ...        0 min,  0.342 sec
     gradient                   ...        0 min,  0.269 sec
 * total energy  :  -211.3033138 Eh     change       -0.1611528E-04 Eh
   gradient norm :     0.0012722 Eh/α   predicted    -0.6854326E-05 ( -57.47%)
   displ. norm   :     0.2100060 α      lambda       -0.1359968E-04
   maximum displ.:     0.1359576 α      in ANC's #18, #9, #7, ...

........................................................................
.............................. CYCLE   35 ..............................
........................................................................
   1   -214.8267645 -0.214827E+03  0.439E-03    0.01       0.0  T
   2   -214.8263590  0.405449E-03  0.461E-02    0.01       1.0  T
   3   -214.8253519  0.100711E-02  0.702E-02    0.01       1.0  T
   4   -214.8267638 -0.141185E-02  0.413E-03    0.01       2.2  T
   5   -214.8267671 -0.328681E-05  0.170E-03    0.01       5.4  T
   6   -214.8267673 -0.229944E-06  0.122E-03    0.01       7.5  T
   7   -214.8267675 -0.230704E-06  0.451E-04    0.01      20.4  T
   8   -214.8267676 -0.403068E-07  0.676E-05    0.01     136.2  T
   9   -214.8267676 -0.757325E-09  0.320E-05    0.01     287.5  T
     SCC iter.                  ...        0 min,  0.350 sec
     gradient                   ...        0 min,  0.251 sec
 * total energy  :  -211.3033308 Eh     change       -0.1698695E-04 Eh
   gradient norm :     0.0014238 Eh/α   predicted    -0.6936762E-05 ( -59.16%)
   displ. norm   :     0.2372782 α      lambda       -0.1401617E-04
   maximum displ.:     0.1531506 α      in ANC's #18, #9, #7, ...

........................................................................
.............................. CYCLE   36 ..............................
........................................................................
   1   -214.8265938 -0.214827E+03  0.383E-03    0.01       0.0  T
   2   -214.8263211  0.272697E-03  0.386E-02    0.01       1.0  T
   3   -214.8264750 -0.153915E-03  0.206E-02    0.01       1.0  T
   4   -214.8265937 -0.118690E-03  0.339E-03    0.01       2.7  T
   5   -214.8265956 -0.186877E-05  0.188E-03    0.01       4.9  T
   6   -214.8265959 -0.385673E-06  0.112E-03    0.01       8.2  T
   7   -214.8265961 -0.184625E-06  0.349E-04    0.01      26.3  T
   8   -214.8265962 -0.202565E-07  0.481E-05    0.01     191.3  T
   9   -214.8265962 -0.381391E-09  0.955E-06    0.01     963.5  T
     SCC iter.                  ...        0 min,  0.341 sec
     gradient                   ...        0 min,  0.266 sec
 * total energy  :  -211.3033482 Eh     change       -0.1737070E-04 Eh
   gradient norm :     0.0010600 Eh/α   predicted    -0.7188146E-05 ( -58.62%)
   displ. norm   :     0.2463838 α      lambda       -0.1287764E-04
   maximum displ.:     0.1591741 α      in ANC's #18, #9, #7, ...

........................................................................
.............................. CYCLE   37 ..............................
........................................................................
   1   -214.8266055 -0.214827E+03  0.288E-03    0.01       0.0  T
   2   -214.8263991  0.206362E-03  0.316E-02    0.01       1.0  T
   3   -214.8252126  0.118651E-02  0.696E-02    0.01       1.0  T
   4   -214.8266030 -0.139040E-02  0.385E-03    0.01       2.4  T
   5   -214.8266062 -0.318164E-05  0.187E-03    0.01       4.9  T
   6   -214.8266067 -0.448615E-06  0.111E-03    0.01       8.3  T
   7   -214.8266068 -0.136502E-06  0.585E-04    0.01      15.7  T
   8   -214.8266069 -0.727753E-07  0.110E-04    0.01      83.5  T
   9   -214.8266069 -0.329811E-08  0.181E-05    0.01     509.1  T
     SCC iter.                  ...        0 min,  0.331 sec
     gradient                   ...        0 min,  0.273 sec
 * total energy  :  -211.3033634 Eh     change       -0.1527193E-04 Eh
   gradient norm :     0.0005815 Eh/α   predicted    -0.6615628E-05 ( -56.68%)
   displ. norm   :     0.2043147 α      lambda       -0.8769192E-05
   maximum displ.:     0.1327727 α      in ANC's #18, #9, #7, ...

........................................................................
.............................. CYCLE   38 ..............................
........................................................................
   1   -214.8266003 -0.214827E+03  0.144E-03    0.01       0.0  T
   2   -214.8265697  0.305805E-04  0.128E-02    0.01       1.0  T
   3   -214.8265532  0.164797E-04  0.128E-02    0.01       1.0  T
   4   -214.8265992 -0.459929E-04  0.228E-03    0.01       4.0  T
   5   -214.8266004 -0.120762E-05  0.108E-03    0.01       8.5  T
   6   -214.8266006 -0.122210E-06  0.666E-04    0.01      13.8  T
   7   -214.8266006 -0.646961E-07  0.261E-04    0.01      35.2  T
   8   -214.8266006 -0.117248E-07  0.509E-05    0.01     180.7  T
   9   -214.8266006 -0.673424E-09  0.118E-05    0.01     779.2  T
     SCC iter.                  ...        0 min,  0.333 sec
     gradient                   ...        0 min,  0.284 sec
 * total energy  :  -211.3033736 Eh     change       -0.1019975E-04 Eh
   gradient norm :     0.0004597 Eh/α   predicted    -0.4470024E-05 ( -56.18%)
   displ. norm   :     0.1442492 α      lambda       -0.5705011E-05
   maximum displ.:     0.0952427 α      in ANC's #18, #9, #7, ...

........................................................................
.............................. CYCLE   39 ..............................
........................................................................
   1   -214.8268774 -0.214827E+03  0.616E-04    0.01       0.0  T
   2   -214.8268634  0.139227E-04  0.713E-03    0.01       1.3  T
   3   -214.8268576  0.587868E-05  0.836E-03    0.01       1.1  T
   4   -214.8268770 -0.194086E-04  0.142E-03    0.01       6.5  T
   5   -214.8268773 -0.377786E-06  0.604E-04    0.01      15.2  T
   6   -214.8268774 -0.451850E-07  0.314E-04    0.01      29.4  T
   7   -214.8268774 -0.148088E-07  0.936E-05    0.01      98.4  T
   8   -214.8268774 -0.181905E-08  0.710E-06    0.01    1296.5  T
     SCC iter.                  ...        0 min,  0.343 sec
     gradient                   ...        0 min,  0.279 sec
 * total energy  :  -211.3033804 Eh     change       -0.6760582E-05 Eh
   gradient norm :     0.0005693 Eh/α   predicted    -0.2882744E-05 ( -57.36%)
   displ. norm   :     0.1110215 α      lambda       -0.4838950E-05
   maximum displ.:     0.0735372 α      in ANC's #18, #9, #16, ...

........................................................................
.............................. CYCLE   40 ..............................
........................................................................
   1   -214.8270760 -0.214827E+03  0.666E-04    0.01       0.0  T
   2   -214.8270546  0.214068E-04  0.918E-03    0.01       1.0  T
   3   -214.8269950  0.595545E-04  0.168E-02    0.01       1.0  T
   4   -214.8270759 -0.808943E-04  0.748E-04    0.01      12.3  T
   5   -214.8270760 -0.104156E-06  0.472E-04    0.01      19.5  T
   6   -214.8270760 -0.160990E-07  0.349E-04    0.01      26.4  T
   7   -214.8270761 -0.187638E-07  0.121E-04    0.01      76.1  T
   8   -214.8270761 -0.236940E-08  0.669E-06    0.01    1375.6  T
     SCC iter.                  ...        0 min,  0.311 sec
     gradient                   ...        0 min,  0.263 sec
 * total energy  :  -211.3033865 Eh     change       -0.6124629E-05 Eh
   gradient norm :     0.0004882 Eh/α   predicted    -0.2436806E-05 ( -60.21%)
   displ. norm   :     0.1276239 α      lambda       -0.6023489E-05
   maximum displ.:     0.0828209 α      in ANC's #18, #9, #16, ...

........................................................................
.............................. CYCLE   41 ..............................
........................................................................
   1   -214.8269573 -0.214827E+03  0.158E-03    0.01       0.0  T
   2   -214.8268306  0.126632E-03  0.227E-02    0.01       1.0  T
   3   -214.8263296  0.501044E-03  0.468E-02    0.01       1.0  T
   4   -214.8269555 -0.625884E-03  0.282E-03    0.01       3.3  T
   5   -214.8269576 -0.207418E-05  0.807E-04    0.01      11.4  T
   6   -214.8269576 -0.816814E-07  0.600E-04    0.01      15.3  T
   7   -214.8269576 -0.284959E-08  0.468E-04    0.01      19.7  T
   8   -214.8269577 -0.582212E-07  0.952E-05    0.01      96.7  T
   9   -214.8269577 -0.257737E-08  0.181E-05    0.01     508.8  T
     SCC iter.                  ...        0 min,  0.389 sec
     gradient                   ...        0 min,  0.286 sec
 * total energy  :  -211.3033943 Eh     change       -0.7780610E-05 Eh
   gradient norm :     0.0004453 Eh/α   predicted    -0.3036640E-05 ( -60.97%)
   displ. norm   :     0.1749040 α      lambda       -0.8036041E-05
   maximum displ.:     0.1113913 α      in ANC's #18, #16, #9, ...

........................................................................
.............................. CYCLE   42 ..............................
........................................................................
   1   -214.8268078 -0.214827E+03  0.326E-03    0.01       0.0  T
   2   -214.8265805  0.227303E-03  0.338E-02    0.01       1.0  T
   3   -214.8254081  0.117239E-02  0.697E-02    0.01       1.0  T
   4   -214.8268051 -0.139692E-02  0.417E-03    0.01       2.2  T
   5   -214.8268092 -0.414160E-05  0.133E-03    0.01       6.9  T
   6   -214.8268094 -0.200239E-06  0.103E-03    0.01       9.0  T
   7   -214.8268094 -0.138537E-07  0.768E-04    0.01      12.0  T
   8   -214.8268096 -0.160474E-06  0.121E-04    0.01      75.8  T
   9   -214.8268096 -0.398293E-08  0.330E-05    0.01     279.3  T
     SCC iter.                  ...        0 min,  0.392 sec
     gradient                   ...        0 min,  0.263 sec
 * total energy  :  -211.3034042 Eh     change       -0.9937694E-05 Eh
   gradient norm :     0.0004990 Eh/α   predicted    -0.4075257E-05 ( -58.99%)
   displ. norm   :     0.2123083 α      lambda       -0.8795584E-05
   maximum displ.:     0.1336237 α      in ANC's #18, #16, #9, ...
 * RMSD in coord.:     0.2466823 α      energy gain  -0.3005438E-03 Eh

generating ANC from model Hessian ...
Using Lindh-Hessian (1995)
 Shifting diagonal of input Hessian by    1.0041241275192965E-002
 Lowest  eigenvalues of input Hessian
    0.010000    0.010018    0.010022    0.000000    0.000000    0.000000
    0.000000    0.000000    0.000000    0.010086    0.010093    0.010127
    0.010148    0.010227    0.010286    0.010312    0.010348    0.010398
 Highest eigenvalues
    2.148087    2.638922    2.645250    2.645398    2.645488    2.645502


........................................................................
.............................. CYCLE   43 ..............................
........................................................................
   1   -214.8265546 -0.214827E+03  0.450E-03    0.01       0.0  T
   2   -214.8261987  0.355841E-03  0.441E-02    0.01       1.0  T
   3   -214.8263337 -0.134970E-03  0.279E-02    0.01       1.0  T
   4   -214.8265524 -0.218662E-03  0.475E-03    0.01       1.9  T
   5   -214.8265574 -0.500216E-05  0.168E-03    0.01       5.5  T
   6   -214.8265575 -0.168423E-06  0.138E-03    0.01       6.7  T
   7   -214.8265577 -0.209171E-06  0.628E-04    0.01      14.7  T
   8   -214.8265578 -0.102881E-06  0.107E-04    0.01      86.3  T
   9   -214.8265578 -0.255324E-08  0.486E-05    0.01     189.3  T
     SCC iter.                  ...        0 min,  0.377 sec
     gradient                   ...        0 min,  0.257 sec
 * total energy  :  -211.3034148 Eh     change       -0.1057310E-04 Eh
   gradient norm :     0.0007145 Eh/α   predicted     0.0000000E+00 (-100.00%)
   displ. norm   :     0.0187048 α      lambda       -0.2772445E-05
   maximum displ.:     0.0066759 α      in ANC's #21, #26, #10, ...

........................................................................
.............................. CYCLE   44 ..............................
........................................................................
   1   -214.8265953 -0.214827E+03  0.996E-04    0.01       0.0  T
   2   -214.8265591  0.362348E-04  0.124E-02    0.01       1.0  T
   3   -214.8263270  0.232103E-03  0.306E-02    0.01       1.0  T
   4   -214.8265953 -0.268267E-03  0.105E-03    0.01       8.7  T
   5   -214.8265955 -0.204735E-06  0.317E-04    0.01      29.1  T
   6   -214.8265955 -0.145124E-07  0.193E-04    0.01      47.6  T
   7   -214.8265955 -0.218162E-08  0.143E-04    0.01      64.3  T
     SCC iter.                  ...        0 min,  0.291 sec
     gradient                   ...        0 min,  0.253 sec
 * total energy  :  -211.3034180 Eh     change       -0.3151002E-05 Eh
   gradient norm :     0.0004322 Eh/α   predicted    -0.1477798E-05 ( -53.10%)
   displ. norm   :     0.0592381 α      lambda       -0.5954697E-05
   maximum displ.:     0.0218877 α      in ANC's #21, #10, #26, ...

   *** GEOMETRY OPTIMIZATION CONVERGED AFTER 44 ITERATIONS ***

------------------------------------------------------------------------
 total energy gain   :        -0.1924990 Eh     -120.7949 kcal/mol
 total RMSD          :         0.5148095 a0        0.2724 Å
 total power (kW/mol):       -11.4864983 (step)  -14.6605 (real)
------------------------------------------------------------------------

 ANCopt (total)                0 d,  0 h,  0 min, 34.474 sec
 optimizer setup                ...        0 min,  0.000 sec (  0.001%)
 model hessian                  ...        0 min,  0.086 sec (  0.250%)
 ANC generation                 ...        0 min,  0.060 sec (  0.174%)
 coordinate transformation      ...        0 min,  0.006 sec (  0.017%)
 single point calculation       ...        0 min, 34.278 sec ( 99.432%)
 optimization log               ...        0 min,  0.021 sec (  0.061%)
 hessian update                 ...        0 min,  0.005 sec (  0.015%)
 rational function              ...        0 min,  0.014 sec (  0.039%)

================
 final structure:
================
118
 xtb: 6.5.1 (b24c23e)
Co          17.46508284900689        0.08898276479478        0.01829508847727
C           14.08051430098951        0.21536225800041       -0.02750065633324
C           14.74659142746659        0.84950559105894        0.99918076580604
C           14.09465080256550        1.53959411461583        2.07028247850667
C           15.06697088795405        2.16455082541660        2.77662999339618
C           16.30538726032131        1.85864339843093        2.12817650892007
N           16.10840597437513        1.01603305383132        1.07130016271000
C           17.51654391440239        2.47518616685328        2.44364329099611
C           17.53713007169191        3.45738799059398        3.45664536376667
C           17.54613462963691        4.30483266076541        4.32502366865306
C           17.55074163762716        5.29776756752787        5.33151271978673
C           18.72971853508416        5.95792326418455        5.69673500249738
C           18.67737799592320        6.92493167191535        6.68488503262669
N           17.55404356907851        7.26349345400232        7.31252321570586
C           16.42916422809159        6.63985246930691        6.97174435583588
C           16.37371861643350        5.65904631220976        5.99753430325541
C           18.69997455902208        2.16556528845213        1.77619543205268
C           19.94492175514032        2.81449465697590        2.03889426697402
C           20.88625177726816        2.14364150861951        1.33155139624976
N           18.86487875819686        1.13933823884120        0.88156351487067
C           20.21365241349204        1.08569325168993        0.64794738365393
C           20.87626353870527        0.05729287199077       -0.02876995295103
C           20.17300272161158       -0.96173464580228       -0.67872687589637
C           20.80162945676617       -2.05677173072008       -1.34503245495095
C           19.82607029720184       -2.72641706902713       -2.00580755665738
C           18.60550823198765       -2.03440261112684       -1.73857404931348
N           18.81955415199587       -0.98161049019302       -0.88617055681900
C           17.40349343511573       -2.32108838314463       -2.38278596676721
C           17.37786735223583       -3.34016215124994       -3.35855108292676
C           17.36091510579732       -4.22029240228347       -4.19370790524248
C           17.34160056780794       -5.24867249113878       -5.16373442103587
C           18.50237650340717       -5.96053341529533       -5.48823382850893
C           18.43045643013829       -6.96078140032786       -6.44135219908367
N           17.30446372751400       -7.28484835523238       -7.07188467345696
C           16.19692867762167       -6.61218267834334       -6.76973568235811
C           16.16182368265061       -5.59490552327911       -5.83261960658186
C           16.22535306259574       -1.63246131360987       -2.09307754421121
C           14.97871625060247       -1.88064712914683       -2.75034503100230
C           14.04183007590601       -1.15863497079872       -2.09051005376515
C           14.72201143469182       -0.47747187984569       -1.03096874167759
N           16.07152816348719       -0.73494424661521       -1.07515847443144
H           12.99756586498722        0.25393378803890       -0.03977192310809
H           13.02916188468310        1.54146153745929        2.23627688064713
H           14.97280198372912        2.79312530720552        3.64764274819272
H           19.66656255888875        5.71307820348855        5.21103264789383
H           19.57671631783034        7.45300401202774        6.98847143139544
H           15.53108481679730        6.94116250424152        7.50325996859925
H           15.43566786816995        5.17675857785985        5.75050991443684
H           20.06762618446812        3.66379642543097        2.69145725543858
H           21.94567201923519        2.32953444268565        1.27996370267255
H           21.85665761655149       -2.26979748447878       -1.31187383804079
H           19.91121353902177       -3.60066200487152       -2.63080981558863
H           19.44051640338932       -5.72924940336101       -4.99836976026709
H           19.31527657537550       -7.52948897045907       -6.71245892067937
H           15.29635210560450       -6.90251975679533       -7.30309886979146
H           15.23746570373418       -5.07290085854169       -5.61677461055627
H           14.85520504044685       -2.53671292985775       -3.59708456841449
H           12.98151139235927       -1.09398618008400       -2.27586417386155
Co          28.32101857672700       -0.06199961179182       -0.06580354466072
C           31.70552781111077       -0.08672953191537       -0.20025040248500
C           31.03982761278473       -1.29357871016197       -0.21717733493629
C           31.69209547797743       -2.56684520519605       -0.26018800064326
C           30.71989751347259       -3.49408831127028       -0.43336187871990
C           29.48124526249946       -2.78090189102930       -0.50274185082821
N           29.67801725576692       -1.44133021061989       -0.32221279360227
C           28.26981713340293       -3.36827897503986       -0.86878059664991
C           28.24892941899497       -4.74184075791085       -1.19160725093850
C           28.24064021656055       -5.92208890810649       -1.47330456656565
C           28.23682503083698       -7.29584462334140       -1.80759318651851
C           27.05882655502736       -7.94971157245239       -2.18682145828815
C           27.11317719318820       -9.29407009063901       -2.50960116316151
N           28.23748429209925      -10.00489839207536       -2.47805222185714
C           29.36146884977643       -9.39084365834852       -2.11734333500528
C           29.41488899702761       -8.05133282755964       -1.77547835498757
C           27.08637355878612       -2.63654522505262       -0.94536579095720
C           25.84137262377354       -3.19539973088448       -1.36689126460016
C           24.90000121008875       -2.24405085188842       -1.15432084320926
N           26.92143262680647       -1.34191343500839       -0.52409740212684
C           25.57259946328103       -1.11406171150964       -0.59782650552601
C           24.90986945920743       -0.00532969772334       -0.06301748257625
C           25.61303688686003        1.07530737330975        0.47851587905564
C           24.98446765676946        2.20872463474683        1.07723106031384
C           25.96009972941783        3.11925357949294        1.31359113109803
C           27.18061467469831        2.53506142782037        0.85628053271532
N           26.96648716874428        1.26350381840913        0.38931865919990
C           28.38251049431685        3.23531012775128        0.77157988550899
C           28.40767746369337        4.59566208780061        1.14586861426129
C           28.42366058225022        5.76441756424135        1.47169474467226
C           28.44132896654651        7.12504346831894        1.85546407594349
C           27.27971240516170        7.76790261097198        2.29910838443160
C           27.34991089636720        9.09979307288920        2.66686792299965
N           28.47499447710723        9.80866003401876        2.62063942236930
C           29.58335019998938        9.20501669700211        2.19924694634116
C           29.62016869345919        7.87823917300040        1.80865349915847
C           29.56047099144523        2.63370129975232        0.32816017307286
C           30.80685335154453        3.32550267637280        0.20305746757307
C           31.74367030004391        2.38898374638548       -0.07932048749143
C           31.06373287273335        1.12988611666870       -0.12007726421292
N           29.71433105547396        1.29959578303724        0.07944643900586
H           32.78845895471456       -0.09564841460853       -0.24025353481227
H           32.75767497623779       -2.71000791189332       -0.17728460282277
H           30.81439609627502       -4.56418838259431       -0.52604749363457
H           26.12115367866169       -7.40864821572043       -2.22631391023741
H           26.21467212747163       -9.82683743537694       -2.80742523421260
H           30.26036305767900      -10.00044193551964       -2.10281456900210
H           30.35213198173231       -7.59033205395015       -1.48803528378903
H           25.71877714452901       -4.19147647622710       -1.76060796941224
H           23.84050114489478       -2.29547950047723       -1.33977741779490
H           23.92946467440834        2.28946053701718        1.27726128715173
H           25.87500918093833        4.10399582349904        1.74396309513754
H           26.34223579256213        7.22767309546783        2.35257506575313
H           26.46439383518537        9.62362748490455        3.01513835532665
H           30.48315136657684        9.81290578116293        2.17405236138258
H           30.54511553768091        7.42584500811110        1.47202021732309
[...]
   116H     0.03802  0.09463   0.962  0.000  0.000
   117C    -0.03461 -0.03681   1.098  2.937  0.000
   118C    -0.03463 -0.03683   1.098  2.937  0.000

Wiberg/Mayer (AO) data.
largest (>0.10) Wiberg bond orders for each atom

 ---------------------------------------------------------------------------
     #   Z sym  total        # sym  WBO       # sym  WBO       # sym  WBO
 ---------------------------------------------------------------------------
     1  27 Co   3.013 --    41 N    0.630    20 N    0.629     7 N    0.628
                            27 N    0.627
     2   6 C    3.927 --    40 C    1.368     3 C    1.364    42 H    0.970
     3   6 C    3.916 --     2 C    1.364     7 N    1.196     4 C    1.176
     4   6 C    3.959 --     5 C    1.644     3 C    1.176    43 H    0.975
     5   6 C    3.962 --     4 C    1.644     6 C    1.184    44 H    0.974
     6   6 C    3.911 --     8 C    1.269     7 N    1.232     5 C    1.184
     7   7 N    3.343 --     6 C    1.232     3 C    1.196     1 Co   0.628
     8   6 C    3.928 --    17 C    1.281     6 C    1.269     9 C    1.159
     9   6 C    3.956 --    10 C    2.625     8 C    1.159
    10   6 C    3.931 --     9 C    2.625    11 C    1.141
    11   6 C    3.987 --    12 C    1.351    16 C    1.350    10 C    1.141
    12   6 C    3.973 --    13 C    1.456    11 C    1.351    45 H    0.974
                            15 C    0.104
    13   6 C    3.973 --    12 C    1.456    14 N    1.407    46 H    0.972
                            16 C    0.104
    14   7 N    2.994 --    13 C    1.407    15 C    1.407
    15   6 C    3.973 --    16 C    1.457    14 N    1.407    47 H    0.972
                            12 C    0.104
    16   6 C    3.973 --    15 C    1.457    11 C    1.350    48 H    0.974
                            13 C    0.104
    17   6 C    3.907 --     8 C    1.281    20 N    1.213    18 C    1.190
    18   6 C    3.958 --    19 C    1.630    17 C    1.190    49 H    0.974
    19   6 C    3.961 --    18 C    1.630    21 C    1.193    50 H    0.965
    20   7 N    3.343 --    21 C    1.222    17 C    1.213     1 Co   0.629
    21   6 C    3.900 --    22 C    1.264    20 N    1.222    19 C    1.193
    22   6 C    3.929 --    21 C    1.264    23 C    1.261   117 C    1.183
    23   6 C    3.900 --    22 C    1.261    27 N    1.223    24 C    1.194
    24   6 C    3.961 --    25 C    1.629    23 C    1.194    51 H    0.965
    25   6 C    3.958 --    24 C    1.629    26 C    1.191    52 H    0.974
    26   6 C    3.907 --    28 C    1.281    27 N    1.212    25 C    1.191
    27   7 N    3.344 --    23 C    1.223    26 C    1.212     1 Co   0.627
    28   6 C    3.928 --    26 C    1.281    37 C    1.269    29 C    1.159
    29   6 C    3.957 --    30 C    2.625    28 C    1.159
    30   6 C    3.931 --    29 C    2.625    31 C    1.141
    31   6 C    3.987 --    36 C    1.351    32 C    1.350    30 C    1.141
    32   6 C    3.973 --    33 C    1.457    31 C    1.350    53 H    0.974
                            35 C    0.104
    33   6 C    3.973 --    32 C    1.457    34 N    1.407    54 H    0.972
                            36 C    0.104
    34   7 N    2.994 --    35 C    1.407    33 C    1.407
    35   6 C    3.972 --    36 C    1.456    34 N    1.407    55 H    0.972
                            32 C    0.104
    36   6 C    3.973 --    35 C    1.456    31 C    1.351    56 H    0.974
                            33 C    0.104
    37   6 C    3.911 --    28 C    1.269    41 N    1.234    38 C    1.183
    38   6 C    3.962 --    39 C    1.645    37 C    1.183    57 H    0.974
    39   6 C    3.959 --    38 C    1.645    40 C    1.175    58 H    0.975
    40   6 C    3.917 --     2 C    1.368    41 N    1.194    39 C    1.175
    41   7 N    3.342 --    37 C    1.234    40 C    1.194     1 Co   0.630
    42   1 H    1.000 --     2 C    0.970
    43   1 H    0.997 --     4 C    0.975
    44   1 H    1.002 --     5 C    0.974
    45   1 H    1.002 --    12 C    0.974
    46   1 H    1.013 --    13 C    0.972
    47   1 H    1.013 --    15 C    0.972
    48   1 H    1.002 --    16 C    0.974
    49   1 H    1.002 --    18 C    0.974
    50   1 H    1.006 --    19 C    0.965
    51   1 H    1.006 --    24 C    0.965
    52   1 H    1.002 --    25 C    0.974
    53   1 H    1.002 --    32 C    0.974
    54   1 H    1.013 --    33 C    0.972
    55   1 H    1.013 --    35 C    0.972
    56   1 H    1.002 --    36 C    0.974
    57   1 H    1.002 --    38 C    0.974
    58   1 H    0.997 --    39 C    0.975
    59  27 Co   3.013 --    99 N    0.631    78 N    0.629    65 N    0.628
                            85 N    0.627
    60   6 C    3.927 --    98 C    1.368    61 C    1.364   100 H    0.970
    61   6 C    3.916 --    60 C    1.364    65 N    1.196    62 C    1.176
    62   6 C    3.959 --    63 C    1.644    61 C    1.176   101 H    0.975
    63   6 C    3.962 --    62 C    1.644    64 C    1.184   102 H    0.974
    64   6 C    3.911 --    66 C    1.269    65 N    1.232    63 C    1.184
    65   7 N    3.343 --    64 C    1.232    61 C    1.196    59 Co   0.628
    66   6 C    3.928 --    75 C    1.281    64 C    1.269    67 C    1.159
    67   6 C    3.956 --    68 C    2.625    66 C    1.159
    68   6 C    3.931 --    67 C    2.625    69 C    1.141
    69   6 C    3.987 --    70 C    1.351    74 C    1.350    68 C    1.141
    70   6 C    3.973 --    71 C    1.456    69 C    1.351   103 H    0.974
                            73 C    0.104
    71   6 C    3.973 --    70 C    1.456    72 N    1.408   104 H    0.972
                            74 C    0.104
    72   7 N    2.994 --    71 C    1.408    73 C    1.407
    73   6 C    3.973 --    74 C    1.457    72 N    1.407   105 H    0.972
                            70 C    0.104
    74   6 C    3.973 --    73 C    1.457    69 C    1.350   106 H    0.974
                            71 C    0.104
    75   6 C    3.907 --    66 C    1.281    78 N    1.212    76 C    1.190
    76   6 C    3.958 --    77 C    1.630    75 C    1.190   107 H    0.974
    77   6 C    3.961 --    76 C    1.630    79 C    1.193   108 H    0.965
    78   7 N    3.343 --    79 C    1.222    75 C    1.212    59 Co   0.629
    79   6 C    3.900 --    80 C    1.264    78 N    1.222    77 C    1.193
    80   6 C    3.929 --    79 C    1.264    81 C    1.261   118 C    1.183
    81   6 C    3.900 --    80 C    1.261    85 N    1.223    82 C    1.194
    82   6 C    3.961 --    83 C    1.629    81 C    1.194   109 H    0.965
    83   6 C    3.958 --    82 C    1.629    84 C    1.191   110 H    0.974
    84   6 C    3.907 --    86 C    1.281    85 N    1.212    83 C    1.191
    85   7 N    3.344 --    81 C    1.223    84 C    1.212    59 Co   0.627
    86   6 C    3.928 --    84 C    1.281    95 C    1.269    87 C    1.159
    87   6 C    3.957 --    88 C    2.624    86 C    1.159
    88   6 C    3.931 --    87 C    2.624    89 C    1.141
    89   6 C    3.987 --    94 C    1.351    90 C    1.350    88 C    1.141
    90   6 C    3.973 --    91 C    1.457    89 C    1.350   111 H    0.974
                            93 C    0.104
    91   6 C    3.973 --    90 C    1.457    92 N    1.407   112 H    0.972
                            94 C    0.104
    92   7 N    2.994 --    93 C    1.407    91 C    1.407
    93   6 C    3.972 --    94 C    1.456    92 N    1.407   113 H    0.972
                            90 C    0.104
    94   6 C    3.973 --    93 C    1.456    89 C    1.351   114 H    0.974
                            91 C    0.104
    95   6 C    3.911 --    86 C    1.269    99 N    1.234    96 C    1.183
    96   6 C    3.962 --    97 C    1.645    95 C    1.183   115 H    0.974
    97   6 C    3.959 --    96 C    1.645    98 C    1.175   116 H    0.975
    98   6 C    3.917 --    60 C    1.368    99 N    1.194    97 C    1.175
    99   7 N    3.342 --    95 C    1.234    98 C    1.194    59 Co   0.631
   100   1 H    1.000 --    60 C    0.970
   101   1 H    0.997 --    62 C    0.975
   102   1 H    1.002 --    63 C    0.974
   103   1 H    1.002 --    70 C    0.974
   104   1 H    1.013 --    71 C    0.972
   105   1 H    1.013 --    73 C    0.972
   106   1 H    1.002 --    74 C    0.974
   107   1 H    1.002 --    76 C    0.974
   108   1 H    1.006 --    77 C    0.965
   109   1 H    1.006 --    82 C    0.965
   110   1 H    1.002 --    83 C    0.974
   111   1 H    1.002 --    90 C    0.974
   112   1 H    1.013 --    91 C    0.972
   113   1 H    1.013 --    93 C    0.972
   114   1 H    1.002 --    94 C    0.974
   115   1 H    1.002 --    96 C    0.974
   116   1 H    0.997 --    97 C    0.975
   117   6 C    3.930 --   118 C    2.571    22 C    1.183
   118   6 C    3.930 --   117 C    2.571    80 C    1.183
 ---------------------------------------------------------------------------

Topologies differ in total number of bonds
Writing topology from bond orders to xtbtopo.mol

 dipole moment from electron density (au)
     X       Y       Z   
   0.0010  -0.0518   0.0923  total (Debye):    0.269

           -------------------------------------------------
          |                Geometry Summary                 |
           -------------------------------------------------

      molecular mass/u    :     1160.9683256
   center of mass at/Å    :       22.8929591       0.0026557      -0.0046732
  moments of inertia/u·Å² :        0.3144007E+05   0.3985780E+05   0.6679222E+05
rotational constants/cm⁻¹ :        0.5361831E-03   0.4229444E-03   0.2523892E-03

 * 119 selected distances

     #   Z          #   Z                                           value/Å
     2   6 C        3   6 C                                       1.3783583
     3   6 C        4   6 C                                       1.4312610
     4   6 C        5   6 C                                       1.3545864
     5   6 C        6   6 C                                       1.4309950
     3   6 C        7   7 N                                       1.3738529
     6   6 C        7   7 N                                       1.3659362
     6   6 C        8   6 C                                       1.3951864
     9   6 C       10   6 C                                       1.2133939
    11   6 C       12   6 C                                       1.3997070
    12   6 C       13   6 C                                       1.3835771
    13   6 C       14   7 N                                       1.3305767
    14   7 N       15   6 C                                       1.3305684
    11   6 C       16   6 C                                       1.3998181
    15   6 C       16   6 C                                       1.3835247
     8   6 C       17   6 C                                       1.3935064
    17   6 C       18   6 C                                       1.4282906
    18   6 C       19   6 C                                       1.3551680
    17   6 C       20   7 N                                       1.3713869
    19   6 C       21   6 C                                       1.4279213
    20   7 N       21   6 C                                       1.3699069
    21   6 C       22   6 C                                       1.3980728
    22   6 C       23   6 C                                       1.3983695
    23   6 C       24   6 C                                       1.4276699
    24   6 C       25   6 C                                       1.3552729
    25   6 C       26   6 C                                       1.4283102
    23   6 C       27   7 N                                       1.3693982
    26   6 C       27   7 N                                       1.3714150
    26   6 C       28   6 C                                       1.3935701
    29   6 C       30   6 C                                       1.2134265
    31   6 C       32   6 C                                       1.3998025
    32   6 C       33   6 C                                       1.3835113
    33   6 C       34   7 N                                       1.3305828
    34   7 N       35   6 C                                       1.3305665
    31   6 C       36   6 C                                       1.3996995
    35   6 C       36   6 C                                       1.3835722
    28   6 C       37   6 C                                       1.3950460
    37   6 C       38   6 C                                       1.4309789
    38   6 C       39   6 C                                       1.3544149
     2   6 C       40   6 C                                       1.3778557
    39   6 C       40   6 C                                       1.4315230
    37   6 C       41   7 N                                       1.3657813
    40   6 C       41   7 N                                       1.3745692
     2   6 C       42   1 H                                       1.0837047
     4   6 C       43   1 H                                       1.0783434
     5   6 C       44   1 H                                       1.0782565
    12   6 C       45   1 H                                       1.0832972
    13   6 C       46   1 H                                       1.0862020
    15   6 C       47   1 H                                       1.0862060
    16   6 C       48   1 H                                       1.0833106
    18   6 C       49   1 H                                       1.0780578
    19   6 C       50   1 H                                       1.0768421
    24   6 C       51   1 H                                       1.0768306
    25   6 C       52   1 H                                       1.0780453
    32   6 C       53   1 H                                       1.0833124
    33   6 C       54   1 H                                       1.0862017
    35   6 C       55   1 H                                       1.0861907
    36   6 C       56   1 H                                       1.0832894
    38   6 C       57   1 H                                       1.0782604
    39   6 C       58   1 H                                       1.0783374
    60   6 C       61   6 C                                       1.3783790
    61   6 C       62   6 C                                       1.4312621
    62   6 C       63   6 C                                       1.3545989
    63   6 C       64   6 C                                       1.4309816
    61   6 C       65   7 N                                       1.3738234
    64   6 C       65   7 N                                       1.3659292
    64   6 C       66   6 C                                       1.3951898
    67   6 C       68   6 C                                       1.2134282
    69   6 C       70   6 C                                       1.3996560
    70   6 C       71   6 C                                       1.3836332
    71   6 C       72   7 N                                       1.3305409
    72   7 N       73   6 C                                       1.3306073
    69   6 C       74   6 C                                       1.3998674
    73   6 C       74   6 C                                       1.3834793
    66   6 C       75   6 C                                       1.3934987
    75   6 C       76   6 C                                       1.4282961
    76   6 C       77   6 C                                       1.3551499
    75   6 C       78   7 N                                       1.3714023
    77   6 C       79   6 C                                       1.4279181
    78   7 N       79   6 C                                       1.3699283
    79   6 C       80   6 C                                       1.3980411
    80   6 C       81   6 C                                       1.3983847
    81   6 C       82   6 C                                       1.4276534
    82   6 C       83   6 C                                       1.3552813
    83   6 C       84   6 C                                       1.4283104
    81   6 C       85   7 N                                       1.3693802
    84   6 C       85   7 N                                       1.3714092
    84   6 C       86   6 C                                       1.3935840
    87   6 C       88   6 C                                       1.2134281
    89   6 C       90   6 C                                       1.3998005
    90   6 C       91   6 C                                       1.3835127
    91   6 C       92   7 N                                       1.3305799
    92   7 N       93   6 C                                       1.3305674
    89   6 C       94   6 C                                       1.3996994
    93   6 C       94   6 C                                       1.3835671
    86   6 C       95   6 C                                       1.3950432
    95   6 C       96   6 C                                       1.4309819
    96   6 C       97   6 C                                       1.3544118
    60   6 C       98   6 C                                       1.3778543
    97   6 C       98   6 C                                       1.4315388 (max)
    95   6 C       99   7 N                                       1.3657852
    98   6 C       99   7 N                                       1.3745896
    60   6 C      100   1 H                                       1.0837065
    62   6 C      101   1 H                                       1.0783452
    63   6 C      102   1 H                                       1.0782555
    70   6 C      103   1 H                                       1.0833004
    71   6 C      104   1 H                                       1.0862098
    73   6 C      105   1 H                                       1.0862008
    74   6 C      106   1 H                                       1.0833143
    76   6 C      107   1 H                                       1.0780592
    77   6 C      108   1 H                                       1.0768378
    82   6 C      109   1 H                                       1.0768296 (min)
    83   6 C      110   1 H                                       1.0780436
    90   6 C      111   1 H                                       1.0833140
    91   6 C      112   1 H                                       1.0862023
    93   6 C      113   1 H                                       1.0861889
    94   6 C      114   1 H                                       1.0832864
    96   6 C      115   1 H                                       1.0782595
    97   6 C      116   1 H                                       1.0783397
   117   6 C      118   6 C                                       1.2182402

 * 3 distinct bonds (by element types)

   Z      Z             #   av. dist./Å        max./Å        min./Å
   1 H    6 C          34     1.0814524     1.0862098     1.0768296
   6 C    6 C          61     1.3821485     1.4315388     1.2133939
   6 C    7 N          24     1.3570452     1.3745896     1.3305409


optimized geometry written to: xtbopt.xyz


           -------------------------------------------------
          | TOTAL ENERGY             -211.303417963601 Eh   |
          | GRADIENT NORM               0.000433393970 Eh/α |
          | HOMO-LUMO GAP               0.007905791317 eV   |
           -------------------------------------------------

------------------------------------------------------------------------
 * finished run on 2022/07/29 at 22:52:17.945     
------------------------------------------------------------------------
 total:
 * wall-time:     0 d,  0 h,  0 min, 36.878 sec
 *  cpu-time:     0 d,  0 h,  0 min, 36.666 sec
 * ratio c/w:     0.994 speedup
 SCF:
 * wall-time:     0 d,  0 h,  0 min,  1.642 sec
 *  cpu-time:     0 d,  0 h,  0 min,  1.631 sec
 * ratio c/w:     0.994 speedup
 ANC optimizer:
 * wall-time:     0 d,  0 h,  0 min, 35.105 sec
 *  cpu-time:     0 d,  0 h,  0 min, 34.914 sec
 * ratio c/w:     0.995 speedup

