      -----------------------------------------------------------      
     |                   =====================                   |     
     |                           x T B                           |     
     |                   =====================                   |     
     |                         S. Grimme                         |     
     |          Mulliken Center for Theoretical Chemistry        |     
     |                    University of Bonn                     |     
      -----------------------------------------------------------      

   * xtb version 6.5.1 (b24c23e) compiled by 'conda@728c89f4b128' on 2022-07-12

   xtb is free software: you can redistribute it and/or modify it under
   the terms of the GNU Lesser General Public License as published by
   the Free Software Foundation, either version 3 of the License, or
   (at your option) any later version.
   
   xtb is distributed in the hope that it will be useful,
   but WITHOUT ANY WARRANTY; without even the implied warranty of
   MERCHANTABILITY or FITNESS FOR A PARTICULAR PURPOSE.  See the
   GNU Lesser General Public License for more details.
   
   Cite this work as:
   * C. Bannwarth, E. Caldeweyher, S. Ehlert, A. Hansen, P. Pracht,
     J. Seibert, S. Spicher, S. Grimme, WIREs Comput. Mol. Sci., 2020, 11,
     e01493. DOI: 10.1002/wcms.1493
   
   for GFN2-xTB:
   * C. Bannwarth, S. Ehlert and S. Grimme., J. Chem. Theory Comput., 2019,
     15, 1652-1671. DOI: 10.1021/acs.jctc.8b01176
   for GFN1-xTB:
   * S. Grimme, C. Bannwarth, P. Shushkov, J. Chem. Theory Comput., 2017,
     13, 1989-2009. DOI: 10.1021/acs.jctc.7b00118
   for GFN0-xTB:
   * P. Pracht, E. Caldeweyher, S. Ehlert, S. Grimme, ChemRxiv, 2019, preprint.
     DOI: 10.26434/chemrxiv.8326202.v1
   for GFN-FF:
   * S. Spicher and S. Grimme, Angew. Chem. Int. Ed., 2020, 59, 15665-15673.
     DOI: 10.1002/anie.202004239
   
   for ALPB and GBSA implicit solvation:
   * S. Ehlert, M. Stahn, S. Spicher, S. Grimme, J. Chem. Theory Comput.,
     2021, 17, 4250-4261. DOI: 10.1021/acs.jctc.1c00471
   
   for DFT-D4:
   * E. Caldeweyher, C. Bannwarth and S. Grimme, J. Chem. Phys., 2017,
     147, 034112. DOI: 10.1063/1.4993215
   * E. Caldeweyher, S. Ehlert, A. Hansen, H. Neugebauer, S. Spicher,
     C. Bannwarth and S. Grimme, J. Chem. Phys., 2019, 150, 154122.
     DOI: 10.1063/1.5090222
   * E. Caldeweyher, J.-M. Mewes, S. Ehlert and S. Grimme, Phys. Chem. Chem. Phys.
     2020, 22, 8499-8512. DOI: 10.1039/D0CP00502A
   
   for sTDA-xTB:
   * S. Grimme and C. Bannwarth, J. Chem. Phys., 2016, 145, 054103.
     DOI: 10.1063/1.4959605
   
   in the mass-spec context:
   * V. Asgeirsson, C. Bauer and S. Grimme, Chem. Sci., 2017, 8, 4879.
     DOI: 10.1039/c7sc00601b
   * J. Koopman and S. Grimme, ACS Omega 2019, 4, 12, 15120-15133.
     DOI: 10.1021/acsomega.9b02011
   
   for metadynamics refer to:
   * S. Grimme, J. Chem. Theory Comput., 2019, 155, 2847-2862
     DOI: 10.1021/acs.jctc.9b00143
   
   for SPH calculations refer to:
   * S. Spicher and S. Grimme, J. Chem. Theory Comput., 2021, 17, 1701-1714
     DOI: 10.1021/acs.jctc.0c01306
   
   with help from (in alphabetical order)
   P. Atkinson, C. Bannwarth, F. Bohle, G. Brandenburg, E. Caldeweyher
   M. Checinski, S. Dohm, S. Ehlert, S. Ehrlich, I. Gerasimov, C. Hölzer
   A. Katbashev, J. Koopman, C. Lavigne, S. Lehtola, F. März, M. Müller,
   F. Musil, H. Neugebauer, J. Pisarek, C. Plett, P. Pracht, F. Pultar,
   J. Seibert, P. Shushkov, S. Spicher, M. Stahn, M. Steiner, T. Strunk,
   J. Stückrath, T. Rose, and J. Unsleber
   
 * started run on 2022/07/30 at 19:26:43.744     

           -------------------------------------------------
          |                Calculation Setup                |
           -------------------------------------------------

          program call               : xtb xtbopt.xyz --gfn 1 --vipea
          hostname                   : cx3-15-17.cx3.hpc.ic.ac.uk
          coordinate file            : xtbopt.xyz
          omp threads                :                     1

   ID    Z sym.   atoms
    1    6 C      1-5, 7-10, 12-23, 26-31, 34-38, 41, 42, 64-68, 70-73,
                  75-86, 89-94, 97-101, 104, 105, 127-179, 181-184, 186-197,
                  200-205, 208-212, 215, 216, 237-241, 243-246, 248-259,
                  262-267, 270-274, 277, 278, 299-303, 305-308, 310-321,
                  324-329, 332-336, 339, 340, 361-365, 367-370, 372-383,
                  386-391, 394-398, 401, 402, 423-427, 429-432, 434-445,
                  448-453, 456-460, 463, 464, 485-489, 491-494, 496-507,
                  510-515, 518-522, 525, 526, 547-551, 553-556, 558-569,
                  572-577, 580-584, 587, 588
    2    7 N      6, 11, 32, 33, 69, 74, 95, 96, 180, 185, 206, 207, 242,
                  247, 268, 269, 304, 309, 330, 331, 366, 371, 392, 393, 428,
                  433, 454, 455, 490, 495, 516, 517, 552, 557, 578, 579
    3    8 O      24, 25, 39, 40, 87, 88, 102, 103, 198, 199, 213, 214, 260,
                  261, 275, 276, 322, 323, 337, 338, 384, 385, 399, 400, 446,
                  447, 461, 462, 508, 509, 523, 524, 570, 571, 585, 586
    4    1 H      43-63, 106-126, 217-236, 279-298, 341-360, 403-422,
                  465-484, 527-546, 589-608

           -------------------------------------------------
          |                 I P E A - x T B                 |
           -------------------------------------------------

        Reference                      10.1039/c7sc00601b
      * Hamiltonian:
        H0-scaling (s, p, d)           2.150000    2.300000    2.000000
        zeta-weighting                 0.000000
      * Dispersion:
        s8                             2.400000
        a1                             0.630000
        a2                             5.000000
        s9                             0.000000
      * Repulsion:
        kExp                           1.500000
        rExp                           1.000000
      * Coulomb:
        alpha                          1.000000
        third order                    atomic
        anisotropic                    false
      * Halogen bond correction:
        rad-scale                      1.300000
        damping                        0.440000


          ...................................................
          :                      SETUP                      :
          :.................................................:
          :  # basis functions                2494          :
          :  # atomic orbitals                2494          :
          :  # shells                         1642          :
          :  # electrons                      1994          :
          :  # halogen bonds                     0          :
          :  max. iterations                   250          :
          :  Hamiltonian                  GFN1-xTB          :
          :  restarted?                      false          :
          :  GBSA solvation                  false          :
          :  PC potential                    false          :
          :  electronic temp.          300.0000000     K    :
          :  accuracy                    1.0000000          :
          :  -> integral cutoff          0.2500000E+02      :
          :  -> integral neglect         0.1000000E-07      :
          :  -> SCF convergence          0.1000000E-05 Eh   :
          :  -> wf. convergence          0.2000000E-04 e    :
          :  Broyden damping             0.4000000          :
          ...................................................

 iter      E             dE          RMSdq      gap      omega  full diag
   1  -1279.4349331 -0.127943E+04  0.102E+01    0.56       0.0  T
   2  -1281.0515053 -0.161657E+01  0.630E+00    1.11       1.0  T
   3  -1263.1956746  0.178558E+02  0.469E+00    0.16       1.0  T
   4  -1285.0779254 -0.218823E+02  0.109E+00    1.10       1.0  T
   5  -1286.7629624 -0.168504E+01  0.265E-01    0.90       1.0  T
   6  -1286.8574916 -0.945292E-01  0.110E-01    0.93       1.0  T
   7  -1286.8691126 -0.116211E-01  0.519E-02    0.91       1.0  T
   8  -1286.8712295 -0.211684E-02  0.316E-02    0.91       1.0  T
   9  -1286.8715356 -0.306144E-03  0.223E-02    0.91       1.0  T
  10  -1286.8720061 -0.470453E-03  0.596E-03    0.91       1.0  T
  11  -1286.8720414 -0.353496E-04  0.232E-03    0.91       1.7  T
  12  -1286.8720465 -0.509025E-05  0.122E-03    0.91       3.3  T
  13  -1286.8720482 -0.171410E-05  0.466E-04    0.91       8.7  T
  14  -1286.8720485 -0.220799E-06  0.187E-04    0.91      21.7  T
  15  -1286.8720485 -0.274581E-07  0.106E-04    0.91      38.3  T

   *** convergence criteria satisfied after 15 iterations ***

         #    Occupation            Energy/Eh            Energy/eV
      -------------------------------------------------------------
         1        2.0000           -1.0632721             -28.9331
       ...           ...                  ...                  ...
       991        2.0000           -0.3860127             -10.5039
       992        2.0000           -0.3830744             -10.4240
       993        2.0000           -0.3807760             -10.3614
       994        2.0000           -0.3782554             -10.2929
       995        2.0000           -0.3751538             -10.2085
       996        2.0000           -0.3721966             -10.1280
       997        2.0000           -0.3703164             -10.0768 (HOMO)
       998                         -0.3367499              -9.1634 (LUMO)
       999                         -0.3340382              -9.0896
      1000                         -0.3305104              -8.9936
      1001                         -0.3266000              -8.8872
      1002                         -0.3228512              -8.7852
       ...                                ...                  ...
      2494                        565.0120070           15374.7593
      -------------------------------------------------------------
                  HL-Gap            0.0335665 Eh            0.9134 eV
             Fermi-level           -0.3534962 Eh           -9.6191 eV

 SCC (total)                   0 d,  0 h,  1 min, 43.663 sec
 SCC setup                      ...        0 min,  0.070 sec (  0.068%)
 Dispersion                     ...        0 min,  0.062 sec (  0.060%)
 classical contributions        ...        0 min,  0.013 sec (  0.012%)
 integral evaluation            ...        0 min,  3.676 sec (  3.547%)
 iterations                     ...        1 min, 32.303 sec ( 89.041%)
 molecular gradient             ...        0 min,  6.441 sec (  6.214%)
 printout                       ...        0 min,  1.097 sec (  1.058%)

         :::::::::::::::::::::::::::::::::::::::::::::::::::::
         ::                     SUMMARY                     ::
         :::::::::::::::::::::::::::::::::::::::::::::::::::::
         :: total energy           -1262.181163387270 Eh    ::
         :: gradient norm              0.168874058966 Eh/a0 ::
         :: HOMO-LUMO gap              0.913390838808 eV    ::
         ::.................................................::
         :: SCC energy             -1286.872048486710 Eh    ::
         :: -> electrostatic           1.193177152991 Eh    ::
         :: repulsion energy          25.208724838414 Eh    ::
         :: dispersion energy         -0.517839738973 Eh    ::
         :: halogen bond corr.         0.000000000000 Eh    ::
         :: add. restraining           0.000000000000 Eh    ::
         :: total charge               0.000000000000 e     ::
         :::::::::::::::::::::::::::::::::::::::::::::::::::::

           ------------------------------------------------- 
          |        vertical delta SCC IP calculation        |
           ------------------------------------------------- 
   1  -1286.4857079 -0.128649E+04  0.362E-02    0.91       0.0  T
   2  -1286.4816890  0.401893E-02  0.449E-02    0.86       1.0  T
   3  -1286.4871661 -0.547714E-02  0.245E-02    0.91       1.0  T
   4  -1286.4873133 -0.147223E-03  0.219E-02    0.90       1.0  T
   5  -1286.4886541 -0.134073E-02  0.140E-02    0.90       1.0  T
   6  -1286.4892678 -0.613691E-03  0.661E-03    0.91       1.0  T
   7  -1286.4892852 -0.174398E-04  0.616E-03    0.91       1.0  T
   8  -1286.4894019 -0.116666E-03  0.202E-03    0.91       2.0  T
   9  -1286.4894095 -0.757729E-05  0.669E-04    0.91       6.1  T
  10  -1286.4894099 -0.396337E-06  0.447E-04    0.91       9.1  T
  11  -1286.4894102 -0.311406E-06  0.196E-04    0.91      20.7  T
  12  -1286.4894102 -0.515024E-07  0.896E-05    0.91      45.3  T
     SCC iter.                  ...        1 min, 13.865 sec
     gradient                   ...        0 min,  6.428 sec
------------------------------------------------------------------------
empirical IP shift (eV):    4.8455
delta SCC IP (eV):    5.5666
------------------------------------------------------------------------
           ------------------------------------------------- 
          |        vertical delta SCC EA calculation        |
           ------------------------------------------------- 
   1  -1287.1844004 -0.128718E+04  0.629E-02    0.08       0.0  T
   2  -1287.1869729 -0.257254E-02  0.579E-02    0.02       1.0  T
   3  -1287.1924018 -0.542886E-02  0.353E-02    0.07       1.0  T
   4  -1287.1936275 -0.122571E-02  0.271E-02    0.04       1.0  T
   5  -1287.1929902  0.637289E-03  0.218E-02    0.05       1.0  T
   6  -1287.1922232  0.766976E-03  0.225E-02    0.06       1.0  T
   7  -1287.1951196 -0.289643E-02  0.688E-03    0.04       1.0  T
   8  -1287.1952051 -0.854386E-04  0.294E-03    0.04       1.4  T
   9  -1287.1952142 -0.915862E-05  0.172E-03    0.04       2.4  T
  10  -1287.1952178 -0.355207E-05  0.574E-04    0.04       7.1  T
  11  -1287.1952181 -0.282864E-06  0.295E-04    0.04      13.7  T
  12  -1287.1952182 -0.142709E-06  0.139E-04    0.04      29.1  T
  13  -1287.1952182 -0.232201E-07  0.685E-05    0.04      59.2  T
     SCC iter.                  ...        1 min, 19.935 sec
     gradient                   ...        0 min,  6.455 sec
------------------------------------------------------------------------
empirical EA shift (eV):    4.8455
delta SCC EA (eV):    3.9484
------------------------------------------------------------------------
           -------------------------------------------------
          |                Property Printout                |
           -------------------------------------------------

    * Orbital Energies and Occupations

         #    Occupation            Energy/Eh            Energy/eV
      -------------------------------------------------------------
         1        2.0000           -1.0480131             -28.5179
       ...           ...                  ...                  ...
       986        2.0000           -0.3738215             -10.1722
       987        2.0000           -0.3737027             -10.1690
       988        2.0000           -0.3736907             -10.1686
       989        2.0000           -0.3659736              -9.9586
       990        2.0000           -0.3650885              -9.9346
       991        2.0000           -0.3631913              -9.8829
       992        2.0000           -0.3606410              -9.8135
       993        2.0000           -0.3573557              -9.7241
       994        2.0000           -0.3534666              -9.6183
       995        2.0000           -0.3494760              -9.5097
       996        2.0000           -0.3457170              -9.4074
       997        2.0000           -0.3428810              -9.3303
       998        0.6698           -0.3092531              -8.4152 (HOMO)
       999        0.3027           -0.3077887              -8.3754 (LUMO)
      1000        0.0259           -0.3051363              -8.3032
      1001        0.0014           -0.3023225              -8.2266
      1002        0.0001           -0.3001758              -8.1682
      1003        0.0000           -0.2981584              -8.1133
      1004        0.0000           -0.2970510              -8.0832
      1005        0.0000           -0.2961827              -8.0595
      1006        0.0000           -0.2939996              -8.0001
      1007                         -0.2923173              -7.9544
      1008                         -0.2916572              -7.9364
      1009                         -0.2907802              -7.9125
       ...                                ...                  ...
      2494                        565.0386661           15375.4847
      -------------------------------------------------------------
                  HL-Gap            0.0014644 Eh            0.0398 eV
             Fermi-level           -0.3173610 Eh           -8.6358 eV

  Mulliken/CM5 charges         n(s)   n(p)   n(d)
     1C    -0.01862 -0.05946   1.090  2.928  0.000
     2C     0.06377  0.12416   1.105  2.831  0.000
     3C    -0.03209 -0.07741   1.082  2.950  0.000
     4C    -0.03106 -0.07603   1.076  2.955  0.000
     5C     0.06470  0.12869   1.102  2.833  0.000
     6N    -0.15717 -0.51015   1.312  3.846  0.000
     7C     0.01010  0.01584   1.092  2.898  0.000
     8C     0.06123  0.12936   1.119  2.820  0.000
     9C    -0.03610 -0.08212   1.085  2.951  0.000
    10C    -0.03600 -0.08146   1.091  2.945  0.000
    11N    -0.28296 -0.46961   1.293  3.990  0.000
    12C     0.06604  0.13682   1.130  2.804  0.000
    13C     0.02012  0.02732   1.086  2.894  0.000
    14C     0.06814  0.13304   1.110  2.822  0.000
    15C    -0.03082 -0.07527   1.081  2.950  0.000
    16C    -0.03075 -0.07574   1.075  2.955  0.000
    17C     0.06394  0.12732   1.100  2.836  0.000
    18C     0.00966  0.01545   1.092  2.899  0.000
    19C     0.01435  0.00574   1.092  2.894  0.000
    20C    -0.01800 -0.07120   1.076  2.942  0.000
    21C    -0.01183 -0.06342   1.090  2.922  0.000
    22C     0.00668  0.00319   1.089  2.905  0.000
    23C     0.23357  0.28849   1.194  2.573  0.000
    24O    -0.27981 -0.47635   1.680  4.599  0.000
    25O    -0.32911 -0.37881   1.629  4.700  0.000
    26C    -0.01388 -0.06552   1.088  2.926  0.000
    27C    -0.01815 -0.07144   1.078  2.940  0.000
    28C     0.06240  0.13183   1.122  2.816  0.000
    29C    -0.03655 -0.08256   1.087  2.950  0.000
    30C    -0.03741 -0.08381   1.093  2.945  0.000
    31C     0.06076  0.12643   1.126  2.814  0.000
    32N    -0.28497 -0.47204   1.293  3.992  0.000
    33N    -0.15529 -0.50751   1.313  3.842  0.000
    34C     0.01439  0.00577   1.092  2.894  0.000
    35C    -0.01928 -0.07248   1.076  2.944  0.000
    36C    -0.01424 -0.06586   1.088  2.927  0.000
    37C     0.00680  0.00331   1.089  2.904  0.000
    38C     0.23366  0.28858   1.194  2.573  0.000
    39O    -0.28003 -0.47657   1.680  4.600  0.000
    40O    -0.32860 -0.37830   1.629  4.700  0.000
    41C    -0.01129 -0.06289   1.091  2.921  0.000
    42C    -0.01676 -0.07002   1.078  2.938  0.000
    43H     0.03321  0.09225   0.967  0.000  0.000
    44H     0.04374  0.10043   0.956  0.000  0.000
    45H     0.03452  0.09322   0.965  0.000  0.000
    46H     0.16586  0.37419   0.834  0.000  0.000
    47H     0.02554  0.08432   0.974  0.000  0.000
    48H     0.02877  0.08686   0.971  0.000  0.000
    49H     0.03874  0.09686   0.961  0.000  0.000
    50H     0.03513  0.09393   0.965  0.000  0.000
    51H     0.03307  0.09099   0.967  0.000  0.000
    52H     0.04753  0.10802   0.952  0.000  0.000
    53H     0.24447  0.42028   0.756  0.000  0.000
    54H     0.04798  0.10922   0.952  0.000  0.000
    55H     0.03160  0.08957   0.968  0.000  0.000
    56H     0.02478  0.08345   0.975  0.000  0.000
    57H     0.03362  0.09006   0.966  0.000  0.000
    58H     0.16469  0.37297   0.835  0.000  0.000
    59H     0.03186  0.08978   0.968  0.000  0.000
    60H     0.04778  0.10902   0.952  0.000  0.000
    61H     0.24447  0.42029   0.756  0.000  0.000
    62H     0.04799  0.10848   0.952  0.000  0.000
    63H     0.03302  0.09094   0.967  0.000  0.000
    64C    -0.01869 -0.05952   1.090  2.928  0.000
    65C     0.06376  0.12416   1.105  2.831  0.000
    66C    -0.03210 -0.07743   1.082  2.950  0.000
    67C    -0.03110 -0.07607   1.076  2.955  0.000
    68C     0.06467  0.12864   1.102  2.833  0.000
    69N    -0.15722 -0.51021   1.312  3.846  0.000
    70C     0.00998  0.01573   1.092  2.898  0.000
    71C     0.06118  0.12933   1.119  2.820  0.000
    72C    -0.03618 -0.08220   1.085  2.951  0.000
    73C    -0.03609 -0.08155   1.091  2.945  0.000
    74N    -0.28298 -0.46968   1.293  3.990  0.000
    75C     0.06593  0.13669   1.130  2.804  0.000
    76C     0.02007  0.02727   1.086  2.894  0.000
    77C     0.06803  0.13293   1.110  2.822  0.000
    78C    -0.03093 -0.07538   1.081  2.950  0.000
    79C    -0.03084 -0.07584   1.075  2.956  0.000
    80C     0.06387  0.12726   1.100  2.836  0.000
    81C     0.00958  0.01538   1.092  2.899  0.000
    82C     0.01432  0.00572   1.092  2.894  0.000
    83C    -0.01800 -0.07118   1.076  2.942  0.000
    84C    -0.01186 -0.06345   1.090  2.922  0.000
    85C     0.00666  0.00317   1.089  2.905  0.000
    86C     0.23356  0.28848   1.194  2.573  0.000
    87O    -0.27979 -0.47632   1.680  4.599  0.000
    88O    -0.32917 -0.37887   1.629  4.701  0.000
    89C    -0.01390 -0.06554   1.088  2.926  0.000
    90C    -0.01818 -0.07147   1.078  2.940  0.000
    91C     0.06237  0.13180   1.122  2.816  0.000
    92C    -0.03655 -0.08257   1.087  2.950  0.000
    93C    -0.03741 -0.08381   1.093  2.945  0.000
    94C     0.06076  0.12644   1.126  2.814  0.000
    95N    -0.28503 -0.47209   1.293  3.992  0.000
    96N    -0.15529 -0.50754   1.313  3.842  0.000
    97C     0.01439  0.00577   1.092  2.894  0.000
    98C    -0.01924 -0.07245   1.076  2.944  0.000
    99C    -0.01421 -0.06583   1.088  2.927  0.000
   100C     0.00679  0.00330   1.089  2.904  0.000
   101C     0.23365  0.28857   1.194  2.573  0.000
   102O    -0.27995 -0.47648   1.680  4.600  0.000
   103O    -0.32876 -0.37846   1.629  4.700  0.000
   104C    -0.01138 -0.06298   1.091  2.921  0.000
   105C    -0.01681 -0.07006   1.078  2.938  0.000
   106H     0.03322  0.09225   0.967  0.000  0.000
   107H     0.04375  0.10044   0.956  0.000  0.000
   108H     0.03449  0.09319   0.966  0.000  0.000
   109H     0.16583  0.37417   0.834  0.000  0.000
   110H     0.02543  0.08421   0.975  0.000  0.000
   111H     0.02868  0.08676   0.971  0.000  0.000
   112H     0.03864  0.09675   0.961  0.000  0.000
   113H     0.03501  0.09381   0.965  0.000  0.000
   114H     0.03310  0.09104   0.967  0.000  0.000
   115H     0.04749  0.10799   0.953  0.000  0.000
   116H     0.24448  0.42029   0.756  0.000  0.000
   117H     0.04798  0.10921   0.952  0.000  0.000
   118H     0.03154  0.08950   0.968  0.000  0.000
   119H     0.02479  0.08346   0.975  0.000  0.000
   120H     0.03364  0.09008   0.966  0.000  0.000
   121H     0.16465  0.37295   0.835  0.000  0.000
   122H     0.03194  0.08987   0.968  0.000  0.000
   123H     0.04786  0.10910   0.952  0.000  0.000
   124H     0.24452  0.42032   0.755  0.000  0.000
   125H     0.04782  0.10831   0.952  0.000  0.000
   126H     0.03282  0.09077   0.967  0.000  0.000
   127C    -0.01136 -0.01146   1.077  2.934  0.000
   128C    -0.01380 -0.01391   1.075  2.939  0.000
   129C    -0.01597 -0.01674   1.062  2.954  0.000
   130C    -0.01541 -0.01705   1.091  2.924  0.000
   131C    -0.01817 -0.01891   1.060  2.958  0.000
   132C    -0.01298 -0.01458   1.094  2.919  0.000
   133C    -0.01319 -0.01329   1.076  2.937  0.000
   134C    -0.01417 -0.01427   1.075  2.939  0.000
   135C    -0.01749 -0.01823   1.062  2.956  0.000
   136C    -0.01563 -0.01722   1.092  2.924  0.000
   137C    -0.01832 -0.01906   1.061  2.958  0.000
   138C    -0.01458 -0.01617   1.093  2.922  0.000
   139C    -0.01361 -0.01372   1.076  2.938  0.000
   140C    -0.01367 -0.01378   1.076  2.938  0.000
   141C    -0.01796 -0.01871   1.061  2.957  0.000
   142C    -0.01512 -0.01671   1.092  2.923  0.000
   143C    -0.01785 -0.01860   1.061  2.957  0.000
   144C    -0.01494 -0.01653   1.092  2.923  0.000
   145C    -0.01349 -0.01359   1.076  2.938  0.000
   146C    -0.01348 -0.01358   1.076  2.938  0.000
   147C    -0.01784 -0.01859   1.061  2.957  0.000
   148C    -0.01490 -0.01650   1.092  2.923  0.000
   149C    -0.01771 -0.01846   1.061  2.957  0.000
   150C    -0.01483 -0.01643   1.092  2.923  0.000
   151C    -0.01342 -0.01352   1.076  2.938  0.000
   152C    -0.01356 -0.01367   1.076  2.938  0.000
   153C    -0.01775 -0.01849   1.061  2.957  0.000
   154C    -0.01496 -0.01655   1.092  2.923  0.000
   155C    -0.01783 -0.01858   1.061  2.957  0.000
   156C    -0.01480 -0.01639   1.092  2.922  0.000
   157C    -0.01369 -0.01379   1.076  2.938  0.000
   158C    -0.01370 -0.01380   1.076  2.938  0.000
   159C    -0.01796 -0.01870   1.061  2.957  0.000
   160C    -0.01505 -0.01665   1.092  2.923  0.000
   161C    -0.01796 -0.01871   1.061  2.957  0.000
   162C    -0.01508 -0.01667   1.092  2.923  0.000
   163C    -0.01431 -0.01441   1.075  2.939  0.000
   164C    -0.01330 -0.01340   1.076  2.937  0.000
   165C    -0.01852 -0.01926   1.061  2.958  0.000
   166C    -0.01470 -0.01628   1.093  2.922  0.000
   167C    -0.01753 -0.01827   1.062  2.956  0.000
   168C    -0.01573 -0.01731   1.091  2.924  0.000
   169C    -0.01405 -0.01415   1.075  2.939  0.000
   170C    -0.01152 -0.01162   1.077  2.934  0.000
   171C    -0.01848 -0.01922   1.060  2.958  0.000
   172C    -0.01307 -0.01465   1.095  2.918  0.000
   173C    -0.01610 -0.01687   1.062  2.954  0.000
   174C    -0.01552 -0.01716   1.091  2.924  0.000
   175C     0.01722  0.02447   1.083  2.900  0.000
   176C     0.06742  0.13230   1.110  2.823  0.000
   177C    -0.03311 -0.07757   1.079  2.954  0.000
   178C    -0.03173 -0.07668   1.075  2.956  0.000
   179C     0.06224  0.12570   1.098  2.840  0.000
   180N    -0.15495 -0.50739   1.313  3.842  0.000
   181C     0.01212  0.01777   1.093  2.895  0.000
   182C     0.05975  0.12777   1.117  2.823  0.000
   183C    -0.03694 -0.08296   1.085  2.952  0.000
   184C    -0.03740 -0.08287   1.091  2.947  0.000
   185N    -0.28273 -0.46900   1.292  3.990  0.000
   186C     0.06561  0.13648   1.130  2.804  0.000
   187C     0.01870  0.02594   1.085  2.897  0.000
   188C     0.06751  0.13247   1.110  2.823  0.000
   189C    -0.03259 -0.07704   1.080  2.953  0.000
   190C    -0.03182 -0.07678   1.075  2.957  0.000
   191C     0.06236  0.12576   1.098  2.840  0.000
   192C     0.01192  0.01757   1.093  2.895  0.000
   193C     0.01496  0.00626   1.092  2.893  0.000
   194C    -0.01666 -0.06994   1.078  2.939  0.000
   195C    -0.01147 -0.06307   1.091  2.921  0.000
   196C     0.00671  0.00322   1.089  2.905  0.000
   197C     0.23362  0.28856   1.194  2.573  0.000
   198O    -0.27984 -0.47638   1.680  4.599  0.000
   199O    -0.32925 -0.37895   1.629  4.701  0.000
   200C    -0.01399 -0.06562   1.088  2.926  0.000
   201C    -0.01863 -0.07185   1.076  2.943  0.000
   202C     0.06008  0.12820   1.117  2.823  0.000
   203C    -0.03657 -0.08260   1.086  2.951  0.000
   204C    -0.03749 -0.08296   1.091  2.947  0.000
   205C     0.06552  0.13627   1.130  2.804  0.000
   206N    -0.28337 -0.46959   1.292  3.991  0.000
   207N    -0.15451 -0.50696   1.313  3.842  0.000
   208C     0.01501  0.00632   1.092  2.893  0.000
   209C    -0.01779 -0.07098   1.076  2.942  0.000
   210C    -0.01191 -0.06350   1.090  2.922  0.000
   211C     0.00669  0.00320   1.089  2.905  0.000
   212C     0.23359  0.28854   1.194  2.573  0.000
   213O    -0.27958 -0.47612   1.680  4.599  0.000
   214O    -0.32958 -0.37928   1.629  4.701  0.000
   215C    -0.01360 -0.06524   1.088  2.926  0.000
   216C    -0.01749 -0.07079   1.078  2.940  0.000
   217H     0.03649  0.09458   0.964  0.000  0.000
   218H     0.03342  0.09226   0.967  0.000  0.000
   219H     0.16463  0.37260   0.835  0.000  0.000
   220H     0.02398  0.08278   0.976  0.000  0.000
   221H     0.02721  0.08525   0.973  0.000  0.000
   222H     0.03753  0.09561   0.962  0.000  0.000
   223H     0.03362  0.09245   0.966  0.000  0.000
   224H     0.03254  0.09045   0.967  0.000  0.000
   225H     0.04721  0.10770   0.953  0.000  0.000
   226H     0.24419  0.41998   0.756  0.000  0.000
   227H     0.04784  0.10908   0.952  0.000  0.000
   228H     0.03225  0.09018   0.968  0.000  0.000
   229H     0.02413  0.08295   0.976  0.000  0.000
   230H     0.02681  0.08487   0.973  0.000  0.000
   231H     0.16453  0.37251   0.835  0.000  0.000
   232H     0.03280  0.09070   0.967  0.000  0.000
   233H     0.04688  0.10738   0.953  0.000  0.000
   234H     0.24428  0.42007   0.756  0.000  0.000
   235H     0.04808  0.10932   0.952  0.000  0.000
   236H     0.03200  0.08994   0.968  0.000  0.000
   237C     0.01767  0.02490   1.084  2.899  0.000
   238C     0.06742  0.13236   1.110  2.823  0.000
   239C    -0.03310 -0.07755   1.079  2.954  0.000
   240C    -0.03189 -0.07686   1.075  2.957  0.000
   241C     0.06199  0.12542   1.097  2.841  0.000
   242N    -0.15471 -0.50718   1.313  3.842  0.000
   243C     0.01217  0.01782   1.093  2.895  0.000
   244C     0.05958  0.12759   1.117  2.824  0.000
   245C    -0.03700 -0.08303   1.085  2.952  0.000
   246C    -0.03763 -0.08309   1.091  2.947  0.000
   247N    -0.28296 -0.46923   1.292  3.991  0.000
   248C     0.06553  0.13642   1.130  2.804  0.000
   249C     0.01802  0.02526   1.084  2.898  0.000
   250C     0.06743  0.13239   1.110  2.823  0.000
   251C    -0.03294 -0.07739   1.079  2.954  0.000
   252C    -0.03196 -0.07693   1.075  2.957  0.000
   253C     0.06203  0.12543   1.097  2.841  0.000
   254C     0.01212  0.01778   1.093  2.895  0.000
   255C     0.01506  0.00637   1.092  2.893  0.000
   256C    -0.01661 -0.06987   1.078  2.938  0.000
   257C    -0.01151 -0.06311   1.091  2.921  0.000
   258C     0.00664  0.00315   1.089  2.905  0.000
   259C     0.23358  0.28852   1.194  2.573  0.000
   260O    -0.27989 -0.47643   1.680  4.599  0.000
   261O    -0.32939 -0.37909   1.629  4.701  0.000
   262C    -0.01403 -0.06566   1.087  2.927  0.000
   263C    -0.01859 -0.07182   1.076  2.943  0.000
   264C     0.05962  0.12765   1.117  2.824  0.000
   265C    -0.03689 -0.08292   1.085  2.952  0.000
   266C    -0.03772 -0.08319   1.090  2.947  0.000
   267C     0.06550  0.13635   1.130  2.804  0.000
   268N    -0.28309 -0.46933   1.292  3.991  0.000
   269N    -0.15466 -0.50712   1.313  3.842  0.000
   270C     0.01507  0.00638   1.092  2.893  0.000
   271C    -0.01768 -0.07088   1.076  2.942  0.000
   272C    -0.01188 -0.06347   1.090  2.922  0.000
   273C     0.00664  0.00315   1.089  2.905  0.000
   274C     0.23356  0.28851   1.194  2.573  0.000
   275O    -0.27968 -0.47622   1.680  4.599  0.000
   276O    -0.32963 -0.37933   1.629  4.701  0.000
   277C    -0.01366 -0.06530   1.088  2.926  0.000
   278C    -0.01751 -0.07081   1.078  2.940  0.000
   279H     0.03684  0.09493   0.963  0.000  0.000
   280H     0.03328  0.09212   0.967  0.000  0.000
   281H     0.16448  0.37245   0.836  0.000  0.000
   282H     0.02374  0.08254   0.976  0.000  0.000
   283H     0.02683  0.08487   0.973  0.000  0.000
   284H     0.03711  0.09520   0.963  0.000  0.000
   285H     0.03331  0.09215   0.967  0.000  0.000
   286H     0.03249  0.09042   0.968  0.000  0.000
   287H     0.04705  0.10755   0.953  0.000  0.000
   288H     0.24407  0.41986   0.756  0.000  0.000
   289H     0.04770  0.10894   0.952  0.000  0.000
   290H     0.03220  0.09013   0.968  0.000  0.000
   291H     0.02372  0.08252   0.976  0.000  0.000
   292H     0.02657  0.08461   0.973  0.000  0.000
   293H     0.16448  0.37245   0.836  0.000  0.000
   294H     0.03287  0.09078   0.967  0.000  0.000
   295H     0.04686  0.10736   0.953  0.000  0.000
   296H     0.24412  0.41991   0.756  0.000  0.000
   297H     0.04788  0.10911   0.952  0.000  0.000
   298H     0.03183  0.08977   0.968  0.000  0.000
   299C     0.01822  0.02546   1.084  2.898  0.000
   300C     0.06750  0.13246   1.110  2.823  0.000
   301C    -0.03276 -0.07721   1.079  2.953  0.000
   302C    -0.03174 -0.07670   1.075  2.956  0.000
   303C     0.06221  0.12563   1.097  2.840  0.000
   304N    -0.15462 -0.50708   1.313  3.842  0.000
   305C     0.01219  0.01784   1.093  2.895  0.000
   306C     0.05973  0.12774   1.117  2.823  0.000
   307C    -0.03692 -0.08295   1.085  2.952  0.000
   308C    -0.03755 -0.08301   1.091  2.947  0.000
   309N    -0.28289 -0.46917   1.292  3.991  0.000
   310C     0.06556  0.13644   1.130  2.804  0.000
   311C     0.01812  0.02535   1.084  2.898  0.000
   312C     0.06750  0.13246   1.110  2.823  0.000
   313C    -0.03283 -0.07727   1.079  2.954  0.000
   314C    -0.03186 -0.07682   1.075  2.957  0.000
   315C     0.06216  0.12557   1.097  2.840  0.000
   316C     0.01220  0.01786   1.093  2.895  0.000
   317C     0.01503  0.00634   1.092  2.893  0.000
   318C    -0.01658 -0.06984   1.078  2.938  0.000
   319C    -0.01147 -0.06307   1.091  2.921  0.000
   320C     0.00669  0.00320   1.089  2.905  0.000
   321C     0.23360  0.28855   1.194  2.573  0.000
   322O    -0.27987 -0.47641   1.680  4.599  0.000
   323O    -0.32930 -0.37901   1.629  4.701  0.000
   324C    -0.01401 -0.06565   1.087  2.927  0.000
   325C    -0.01861 -0.07184   1.076  2.943  0.000
   326C     0.05976  0.12777   1.117  2.823  0.000
   327C    -0.03680 -0.08283   1.085  2.951  0.000
   328C    -0.03750 -0.08296   1.091  2.947  0.000
   329C     0.06559  0.13646   1.130  2.804  0.000
   330N    -0.28286 -0.46912   1.292  3.991  0.000
   331N    -0.15463 -0.50710   1.313  3.842  0.000
   332C     0.01503  0.00635   1.092  2.893  0.000
   333C    -0.01768 -0.07087   1.076  2.942  0.000
   334C    -0.01183 -0.06342   1.090  2.922  0.000
   335C     0.00669  0.00320   1.089  2.905  0.000
   336C     0.23359  0.28854   1.194  2.573  0.000
   337O    -0.27966 -0.47621   1.680  4.599  0.000
   338O    -0.32953 -0.37923   1.629  4.701  0.000
   339C    -0.01365 -0.06528   1.088  2.926  0.000
   340C    -0.01752 -0.07081   1.078  2.940  0.000
   341H     0.03720  0.09529   0.963  0.000  0.000
   342H     0.03353  0.09237   0.966  0.000  0.000
   343H     0.16455  0.37254   0.835  0.000  0.000
   344H     0.02384  0.08264   0.976  0.000  0.000
   345H     0.02688  0.08492   0.973  0.000  0.000
   346H     0.03720  0.09529   0.963  0.000  0.000
   347H     0.03343  0.09227   0.967  0.000  0.000
   348H     0.03256  0.09050   0.967  0.000  0.000
   349H     0.04716  0.10766   0.953  0.000  0.000
   350H     0.24411  0.41990   0.756  0.000  0.000
   351H     0.04774  0.10898   0.952  0.000  0.000
   352H     0.03222  0.09015   0.968  0.000  0.000
   353H     0.02390  0.08270   0.976  0.000  0.000
   354H     0.02687  0.08491   0.973  0.000  0.000
   355H     0.16457  0.37255   0.835  0.000  0.000
   356H     0.03297  0.09087   0.967  0.000  0.000
   357H     0.04697  0.10747   0.953  0.000  0.000
   358H     0.24416  0.41995   0.756  0.000  0.000
   359H     0.04791  0.10915   0.952  0.000  0.000
   360H     0.03184  0.08979   0.968  0.000  0.000
   361C     0.01833  0.02556   1.084  2.897  0.000
   362C     0.06757  0.13253   1.110  2.823  0.000
   363C    -0.03266 -0.07710   1.079  2.953  0.000
   364C    -0.03165 -0.07661   1.075  2.956  0.000
   365C     0.06229  0.12570   1.098  2.840  0.000
   366N    -0.15458 -0.50705   1.313  3.842  0.000
   367C     0.01224  0.01790   1.093  2.895  0.000
   368C     0.05978  0.12779   1.117  2.823  0.000
   369C    -0.03688 -0.08291   1.085  2.952  0.000
   370C    -0.03751 -0.08297   1.091  2.947  0.000
   371N    -0.28282 -0.46910   1.292  3.991  0.000
   372C     0.06557  0.13645   1.130  2.804  0.000
   373C     0.01827  0.02550   1.084  2.897  0.000
   374C     0.06751  0.13247   1.110  2.823  0.000
   375C    -0.03275 -0.07720   1.079  2.953  0.000
   376C    -0.03182 -0.07678   1.075  2.957  0.000
   377C     0.06223  0.12565   1.098  2.840  0.000
   378C     0.01222  0.01788   1.093  2.895  0.000
   379C     0.01501  0.00633   1.092  2.893  0.000
   380C    -0.01659 -0.06985   1.078  2.938  0.000
   381C    -0.01145 -0.06305   1.091  2.921  0.000
   382C     0.00672  0.00323   1.089  2.905  0.000
   383C     0.23362  0.28856   1.194  2.573  0.000
   384O    -0.27986 -0.47639   1.680  4.599  0.000
   385O    -0.32926 -0.37896   1.629  4.701  0.000
   386C    -0.01400 -0.06563   1.087  2.927  0.000
   387C    -0.01861 -0.07184   1.076  2.943  0.000
   388C     0.05984  0.12786   1.117  2.823  0.000
   389C    -0.03674 -0.08277   1.085  2.951  0.000
   390C    -0.03742 -0.08288   1.091  2.947  0.000
   391C     0.06564  0.13652   1.130  2.804  0.000
   392N    -0.28281 -0.46909   1.292  3.991  0.000
   393N    -0.15459 -0.50706   1.313  3.842  0.000
   394C     0.01501  0.00633   1.092  2.893  0.000
   395C    -0.01767 -0.07087   1.076  2.942  0.000
   396C    -0.01181 -0.06341   1.090  2.921  0.000
   397C     0.00672  0.00323   1.089  2.905  0.000
   398C     0.23361  0.28856   1.194  2.573  0.000
   399O    -0.27964 -0.47619   1.680  4.599  0.000
   400O    -0.32948 -0.37918   1.629  4.701  0.000
   401C    -0.01364 -0.06528   1.088  2.926  0.000
   402C    -0.01752 -0.07081   1.078  2.940  0.000
   403H     0.03733  0.09542   0.963  0.000  0.000
   404H     0.03365  0.09248   0.966  0.000  0.000
   405H     0.16460  0.37259   0.835  0.000  0.000
   406H     0.02390  0.08270   0.976  0.000  0.000
   407H     0.02694  0.08499   0.973  0.000  0.000
   408H     0.03727  0.09536   0.963  0.000  0.000
   409H     0.03349  0.09232   0.967  0.000  0.000
   410H     0.03260  0.09053   0.967  0.000  0.000
   411H     0.04721  0.10771   0.953  0.000  0.000
   412H     0.24414  0.41993   0.756  0.000  0.000
   413H     0.04777  0.10901   0.952  0.000  0.000
   414H     0.03225  0.09017   0.968  0.000  0.000
   415H     0.02402  0.08282   0.976  0.000  0.000
   416H     0.02699  0.08503   0.973  0.000  0.000
   417H     0.16461  0.37260   0.835  0.000  0.000
   418H     0.03300  0.09090   0.967  0.000  0.000
   419H     0.04703  0.10753   0.953  0.000  0.000
   420H     0.24420  0.41998   0.756  0.000  0.000
   421H     0.04794  0.10918   0.952  0.000  0.000
   422H     0.03187  0.08981   0.968  0.000  0.000
   423C     0.01814  0.02538   1.084  2.898  0.000
   424C     0.06755  0.13251   1.110  2.823  0.000
   425C    -0.03277 -0.07721   1.079  2.953  0.000
   426C    -0.03169 -0.07666   1.075  2.956  0.000
   427C     0.06219  0.12560   1.097  2.840  0.000
   428N    -0.15462 -0.50710   1.313  3.842  0.000
   429C     0.01222  0.01788   1.093  2.895  0.000
   430C     0.05967  0.12768   1.117  2.823  0.000
   431C    -0.03695 -0.08298   1.085  2.952  0.000
   432C    -0.03762 -0.08308   1.091  2.947  0.000
   433N    -0.28287 -0.46915   1.292  3.991  0.000
   434C     0.06552  0.13639   1.130  2.804  0.000
   435C     0.01812  0.02536   1.084  2.898  0.000
   436C     0.06744  0.13240   1.110  2.823  0.000
   437C    -0.03289 -0.07733   1.079  2.954  0.000
   438C    -0.03191 -0.07687   1.075  2.957  0.000
   439C     0.06213  0.12554   1.097  2.840  0.000
   440C     0.01217  0.01783   1.093  2.895  0.000
   441C     0.01504  0.00635   1.092  2.893  0.000
   442C    -0.01658 -0.06984   1.078  2.938  0.000
   443C    -0.01146 -0.06306   1.091  2.921  0.000
   444C     0.00668  0.00319   1.089  2.905  0.000
   445C     0.23360  0.28854   1.194  2.573  0.000
   446O    -0.27989 -0.47643   1.680  4.599  0.000
   447O    -0.32929 -0.37900   1.629  4.701  0.000
   448C    -0.01403 -0.06566   1.088  2.927  0.000
   449C    -0.01861 -0.07184   1.076  2.943  0.000
   450C     0.05976  0.12778   1.117  2.823  0.000
   451C    -0.03677 -0.08279   1.085  2.951  0.000
   452C    -0.03749 -0.08295   1.091  2.947  0.000
   453C     0.06562  0.13650   1.130  2.804  0.000
   454N    -0.28290 -0.46918   1.292  3.991  0.000
   455N    -0.15464 -0.50710   1.313  3.842  0.000
   456C     0.01502  0.00634   1.092  2.893  0.000
   457C    -0.01766 -0.07087   1.076  2.941  0.000
   458C    -0.01183 -0.06343   1.090  2.922  0.000
   459C     0.00669  0.00320   1.089  2.905  0.000
   460C     0.23359  0.28854   1.194  2.573  0.000
   461O    -0.27968 -0.47622   1.680  4.599  0.000
   462O    -0.32952 -0.37921   1.629  4.701  0.000
   463C    -0.01366 -0.06530   1.088  2.926  0.000
   464C    -0.01750 -0.07080   1.078  2.940  0.000
   465H     0.03724  0.09533   0.963  0.000  0.000
   466H     0.03357  0.09242   0.966  0.000  0.000
   467H     0.16454  0.37253   0.835  0.000  0.000
   468H     0.02376  0.08255   0.976  0.000  0.000
   469H     0.02681  0.08485   0.973  0.000  0.000
   470H     0.03712  0.09522   0.963  0.000  0.000
   471H     0.03336  0.09219   0.967  0.000  0.000
   472H     0.03259  0.09052   0.967  0.000  0.000
   473H     0.04717  0.10767   0.953  0.000  0.000
   474H     0.24409  0.41988   0.756  0.000  0.000
   475H     0.04770  0.10894   0.952  0.000  0.000
   476H     0.03222  0.09013   0.968  0.000  0.000
   477H     0.02394  0.08274   0.976  0.000  0.000
   478H     0.02692  0.08496   0.973  0.000  0.000
   479H     0.16456  0.37255   0.835  0.000  0.000
   480H     0.03295  0.09087   0.967  0.000  0.000
   481H     0.04699  0.10749   0.953  0.000  0.000
   482H     0.24414  0.41993   0.756  0.000  0.000
   483H     0.04788  0.10912   0.952  0.000  0.000
   484H     0.03181  0.08977   0.968  0.000  0.000
   485C     0.01800  0.02524   1.084  2.898  0.000
   486C     0.06747  0.13242   1.110  2.823  0.000
   487C    -0.03291 -0.07735   1.079  2.954  0.000
   488C    -0.03184 -0.07680   1.075  2.957  0.000
   489C     0.06203  0.12544   1.097  2.841  0.000
   490N    -0.15467 -0.50714   1.313  3.842  0.000
   491C     0.01209  0.01775   1.093  2.895  0.000
   492C     0.05951  0.12753   1.117  2.824  0.000
   493C    -0.03709 -0.08311   1.085  2.952  0.000
   494C    -0.03787 -0.08333   1.090  2.947  0.000
   495N    -0.28314 -0.46939   1.292  3.991  0.000
   496C     0.06541  0.13626   1.130  2.805  0.000
   497C     0.01749  0.02472   1.084  2.899  0.000
   498C     0.06734  0.13229   1.110  2.823  0.000
   499C    -0.03327 -0.07772   1.079  2.954  0.000
   500C    -0.03210 -0.07706   1.075  2.957  0.000
   501C     0.06187  0.12529   1.097  2.841  0.000
   502C     0.01215  0.01780   1.093  2.895  0.000
   503C     0.01507  0.00639   1.092  2.893  0.000
   504C    -0.01657 -0.06983   1.078  2.938  0.000
   505C    -0.01148 -0.06308   1.091  2.921  0.000
   506C     0.00662  0.00313   1.089  2.905  0.000
   507C     0.23356  0.28851   1.194  2.573  0.000
   508O    -0.27997 -0.47651   1.680  4.599  0.000
   509O    -0.32934 -0.37904   1.629  4.701  0.000
   510C    -0.01408 -0.06571   1.087  2.927  0.000
   511C    -0.01861 -0.07185   1.076  2.943  0.000
   512C     0.05958  0.12760   1.117  2.824  0.000
   513C    -0.03686 -0.08289   1.085  2.952  0.000
   514C    -0.03759 -0.08305   1.091  2.947  0.000
   515C     0.06558  0.13646   1.130  2.804  0.000
   516N    -0.28298 -0.46926   1.292  3.991  0.000
   517N    -0.15474 -0.50721   1.313  3.842  0.000
   518C     0.01507  0.00638   1.092  2.893  0.000
   519C    -0.01765 -0.07085   1.076  2.941  0.000
   520C    -0.01184 -0.06344   1.090  2.922  0.000
   521C     0.00662  0.00313   1.089  2.905  0.000
   522C     0.23356  0.28851   1.194  2.573  0.000
   523O    -0.27976 -0.47630   1.680  4.599  0.000
   524O    -0.32956 -0.37927   1.629  4.701  0.000
   525C    -0.01372 -0.06536   1.088  2.926  0.000
   526C    -0.01755 -0.07084   1.078  2.940  0.000
   527H     0.03713  0.09522   0.963  0.000  0.000
   528H     0.03341  0.09226   0.967  0.000  0.000
   529H     0.16444  0.37241   0.836  0.000  0.000
   530H     0.02353  0.08232   0.976  0.000  0.000
   531H     0.02644  0.08447   0.974  0.000  0.000
   532H     0.03670  0.09479   0.963  0.000  0.000
   533H     0.03306  0.09189   0.967  0.000  0.000
   534H     0.03255  0.09048   0.967  0.000  0.000
   535H     0.04712  0.10762   0.953  0.000  0.000
   536H     0.24400  0.41979   0.756  0.000  0.000
   537H     0.04757  0.10881   0.952  0.000  0.000
   538H     0.03211  0.09004   0.968  0.000  0.000
   539H     0.02382  0.08263   0.976  0.000  0.000
   540H     0.02684  0.08488   0.973  0.000  0.000
   541H     0.16447  0.37245   0.836  0.000  0.000
   542H     0.03293  0.09085   0.967  0.000  0.000
   543H     0.04694  0.10743   0.953  0.000  0.000
   544H     0.24405  0.41984   0.756  0.000  0.000
   545H     0.04774  0.10898   0.952  0.000  0.000
   546H     0.03173  0.08967   0.968  0.000  0.000
   547C     0.01865  0.02589   1.085  2.897  0.000
   548C     0.06752  0.13248   1.110  2.823  0.000
   549C    -0.03255 -0.07700   1.079  2.953  0.000
   550C    -0.03177 -0.07674   1.075  2.957  0.000
   551C     0.06232  0.12572   1.098  2.840  0.000
   552N    -0.15454 -0.50702   1.313  3.842  0.000
   553C     0.01174  0.01740   1.093  2.896  0.000
   554C     0.05992  0.12805   1.117  2.823  0.000
   555C    -0.03689 -0.08292   1.086  2.951  0.000
   556C    -0.03773 -0.08320   1.090  2.947  0.000
   557N    -0.28346 -0.46974   1.292  3.992  0.000
   558C     0.06535  0.13608   1.130  2.805  0.000
   559C     0.01693  0.02418   1.083  2.900  0.000
   560C     0.06722  0.13211   1.109  2.823  0.000
   561C    -0.03342 -0.07787   1.079  2.954  0.000
   562C    -0.03208 -0.07704   1.075  2.957  0.000
   563C     0.06205  0.12551   1.097  2.841  0.000
   564C     0.01198  0.01764   1.093  2.895  0.000
   565C     0.01503  0.00634   1.092  2.893  0.000
   566C    -0.01657 -0.06985   1.078  2.938  0.000
   567C    -0.01146 -0.06306   1.091  2.921  0.000
   568C     0.00661  0.00312   1.089  2.905  0.000
   569C     0.23354  0.28848   1.194  2.573  0.000
   570O    -0.28007 -0.47661   1.681  4.600  0.000
   571O    -0.32922 -0.37892   1.629  4.701  0.000
   572C    -0.01416 -0.06579   1.088  2.927  0.000
   573C    -0.01871 -0.07192   1.076  2.943  0.000
   574C     0.05973  0.12775   1.117  2.823  0.000
   575C    -0.03685 -0.08288   1.085  2.952  0.000
   576C    -0.03733 -0.08280   1.091  2.947  0.000
   577C     0.06566  0.13654   1.130  2.804  0.000
   578N    -0.28279 -0.46906   1.292  3.990  0.000
   579N    -0.15501 -0.50747   1.313  3.842  0.000
   580C     0.01498  0.00629   1.092  2.893  0.000
   581C    -0.01766 -0.07085   1.076  2.941  0.000
   582C    -0.01181 -0.06341   1.090  2.921  0.000
   583C     0.00664  0.00315   1.089  2.905  0.000
   584C     0.23355  0.28849   1.194  2.573  0.000
   585O    -0.27983 -0.47637   1.680  4.599  0.000
   586O    -0.32945 -0.37916   1.629  4.701  0.000
   587C    -0.01376 -0.06540   1.088  2.926  0.000
   588C    -0.01763 -0.07093   1.078  2.940  0.000
   589H     0.03752  0.09561   0.962  0.000  0.000
   590H     0.03366  0.09249   0.966  0.000  0.000
   591H     0.16446  0.37245   0.836  0.000  0.000
   592H     0.02372  0.08252   0.976  0.000  0.000
   593H     0.02654  0.08459   0.973  0.000  0.000
   594H     0.03617  0.09424   0.964  0.000  0.000
   595H     0.03296  0.09178   0.967  0.000  0.000
   596H     0.03270  0.09061   0.967  0.000  0.000
   597H     0.04730  0.10778   0.953  0.000  0.000
   598H     0.24403  0.41983   0.756  0.000  0.000
   599H     0.04755  0.10880   0.952  0.000  0.000
   600H     0.03214  0.09007   0.968  0.000  0.000
   601H     0.02405  0.08286   0.976  0.000  0.000
   602H     0.02725  0.08528   0.973  0.000  0.000
   603H     0.16460  0.37260   0.835  0.000  0.000
   604H     0.03307  0.09099   0.967  0.000  0.000
   605H     0.04711  0.10760   0.953  0.000  0.000
   606H     0.24407  0.41987   0.756  0.000  0.000
   607H     0.04774  0.10898   0.952  0.000  0.000
   608H     0.03165  0.08960   0.968  0.000  0.000

Wiberg/Mayer (AO) data.
largest (>0.10) Wiberg bond orders for each atom

 ---------------------------------------------------------------------------
     #   Z sym  total        # sym  WBO       # sym  WBO       # sym  WBO
 ---------------------------------------------------------------------------
     1   6 C    3.821 --    31 C    1.387     2 C    1.375    43 H    0.995
     2   6 C    3.925 --     1 C    1.375     3 C    1.239     6 N    1.229
     3   6 C    3.843 --     4 C    1.602     2 C    1.239    44 H    0.992
     4   6 C    3.826 --     3 C    1.602     5 C    1.249    45 H    0.998
     5   6 C    3.902 --     7 C    1.342     4 C    1.249     6 N    1.232
     6   7 N    3.249 --     5 C    1.232     2 C    1.229    46 H    0.960
     7   6 C    3.846 --     8 C    1.367     5 C    1.342    34 C    1.054
     8   6 C    3.927 --     7 C    1.367    11 N    1.358     9 C    1.159
     9   6 C    3.840 --    10 C    1.697     8 C    1.159    47 H    0.998
    10   6 C    3.855 --     9 C    1.697    12 C    1.163    48 H    0.998
    11   7 N    2.569 --    12 C    1.411     8 C    1.358
    12   6 C    3.944 --    11 N    1.411    13 C    1.292    10 C    1.163
    13   6 C    3.858 --    14 C    1.292    12 C    1.292   130 C    1.212
    14   6 C    3.905 --    13 C    1.292    15 C    1.263    33 N    1.249
    15   6 C    3.838 --    16 C    1.590    14 C    1.263    49 H    0.997
    16   6 C    3.820 --    15 C    1.590    17 C    1.254    50 H    0.997
    17   6 C    3.897 --    18 C    1.347    16 C    1.254    33 N    1.223
    18   6 C    3.834 --    28 C    1.354    17 C    1.347    19 C    1.056
    19   6 C    3.895 --    27 C    1.417    20 C    1.416    18 C    1.056
    20   6 C    3.858 --    21 C    1.465    19 C    1.416    51 H    0.987
    21   6 C    3.896 --    20 C    1.465    22 C    1.401    52 H    0.985
    22   6 C    3.900 --    21 C    1.401    26 C    1.401    23 C    1.040
    23   6 C    4.098 --    25 O    1.818    24 O    1.211    22 C    1.040
    24   8 O    2.366 --    23 C    1.211    53 H    0.942    25 O    0.184
    25   8 O    2.032 --    23 C    1.818    24 O    0.184
    26   6 C    3.893 --    27 C    1.463    22 C    1.401    54 H    0.985
    27   6 C    3.863 --    26 C    1.463    19 C    1.417    55 H    0.988
    28   6 C    3.947 --    32 N    1.385    18 C    1.354    29 C    1.152
    29   6 C    3.844 --    30 C    1.709    28 C    1.152    56 H    0.999
    30   6 C    3.865 --    29 C    1.709    31 C    1.146    57 H    0.992
    31   6 C    3.967 --     1 C    1.387    32 N    1.373    30 C    1.146
    32   7 N    2.558 --    28 C    1.385    31 C    1.373
    33   7 N    3.259 --    14 C    1.249    17 C    1.223    58 H    0.959
    34   6 C    3.895 --    35 C    1.418    42 C    1.417     7 C    1.054
    35   6 C    3.859 --    36 C    1.462    34 C    1.418    59 H    0.987
    36   6 C    3.893 --    35 C    1.462    37 C    1.401    60 H    0.985
    37   6 C    3.900 --    36 C    1.401    41 C    1.401    38 C    1.039
    38   6 C    4.098 --    40 O    1.819    39 O    1.210    37 C    1.039
    39   8 O    2.366 --    38 C    1.210    61 H    0.942    40 O    0.184
    40   8 O    2.033 --    38 C    1.819    39 O    0.184
    41   6 C    3.896 --    42 C    1.465    37 C    1.401    62 H    0.985
    42   6 C    3.863 --    41 C    1.465    34 C    1.417    63 H    0.987
    43   1 H    1.031 --     1 C    0.995
    44   1 H    1.014 --     3 C    0.992
    45   1 H    1.030 --     4 C    0.998
    46   1 H    1.080 --     6 N    0.960
    47   1 H    1.034 --     9 C    0.998
    48   1 H    1.030 --    10 C    0.998
    49   1 H    1.026 --    15 C    0.997
    50   1 H    1.030 --    16 C    0.997
    51   1 H    1.045 --    20 C    0.987
    52   1 H    1.030 --    21 C    0.985
    53   1 H    0.978 --    24 O    0.942
    54   1 H    1.021 --    26 C    0.985
    55   1 H    1.047 --    27 C    0.988
    56   1 H    1.034 --    29 C    0.999
    57   1 H    1.017 --    30 C    0.992
    58   1 H    1.084 --    33 N    0.959
    59   1 H    1.044 --    35 C    0.987
    60   1 H    1.021 --    36 C    0.985
    61   1 H    0.978 --    39 O    0.942
    62   1 H    1.030 --    41 C    0.985
    63   1 H    1.048 --    42 C    0.987
    64   6 C    3.821 --    94 C    1.386    65 C    1.375   106 H    0.995
    65   6 C    3.925 --    64 C    1.375    66 C    1.239    69 N    1.230
    66   6 C    3.842 --    67 C    1.602    65 C    1.239   107 H    0.992
    67   6 C    3.826 --    66 C    1.602    68 C    1.249   108 H    0.998
    68   6 C    3.902 --    70 C    1.342    67 C    1.249    69 N    1.232
    69   7 N    3.249 --    68 C    1.232    65 C    1.230   109 H    0.960
    70   6 C    3.846 --    71 C    1.366    68 C    1.342    97 C    1.054
    71   6 C    3.927 --    70 C    1.366    74 N    1.359    72 C    1.159
    72   6 C    3.840 --    73 C    1.696    71 C    1.159   110 H    0.998
    73   6 C    3.854 --    72 C    1.696    75 C    1.163   111 H    0.998
    74   7 N    2.569 --    75 C    1.410    71 C    1.359
    75   6 C    3.944 --    74 N    1.410    76 C    1.292    73 C    1.163
    76   6 C    3.858 --    75 C    1.292    77 C    1.292   174 C    1.212
    77   6 C    3.905 --    76 C    1.292    78 C    1.263    96 N    1.249
    78   6 C    3.838 --    79 C    1.590    77 C    1.263   112 H    0.997
    79   6 C    3.820 --    78 C    1.590    80 C    1.255   113 H    0.997
    80   6 C    3.896 --    81 C    1.346    79 C    1.255    96 N    1.224
    81   6 C    3.834 --    91 C    1.354    80 C    1.346    82 C    1.056
    82   6 C    3.895 --    90 C    1.417    83 C    1.415    81 C    1.056
    83   6 C    3.858 --    84 C    1.465    82 C    1.415   114 H    0.987
    84   6 C    3.896 --    83 C    1.465    85 C    1.401   115 H    0.985
    85   6 C    3.899 --    84 C    1.401    89 C    1.401    86 C    1.040
    86   6 C    4.098 --    88 O    1.818    87 O    1.211    85 C    1.040
    87   8 O    2.366 --    86 C    1.211   116 H    0.942    88 O    0.184
    88   8 O    2.032 --    86 C    1.818    87 O    0.184
    89   6 C    3.893 --    90 C    1.463    85 C    1.401   117 H    0.985
    90   6 C    3.863 --    89 C    1.463    82 C    1.417   118 H    0.988
    91   6 C    3.947 --    95 N    1.385    81 C    1.354    92 C    1.152
    92   6 C    3.844 --    93 C    1.709    91 C    1.152   119 H    0.999
    93   6 C    3.865 --    92 C    1.709    94 C    1.146   120 H    0.992
    94   6 C    3.967 --    64 C    1.386    95 N    1.374    93 C    1.146
    95   7 N    2.558 --    91 C    1.385    94 C    1.374
    96   7 N    3.259 --    77 C    1.249    80 C    1.224   121 H    0.959
    97   6 C    3.895 --    98 C    1.418   105 C    1.416    70 C    1.054
    98   6 C    3.859 --    99 C    1.462    97 C    1.418   122 H    0.987
    99   6 C    3.893 --    98 C    1.462   100 C    1.401   123 H    0.985
   100   6 C    3.900 --    99 C    1.401   104 C    1.401   101 C    1.039
   101   6 C    4.098 --   103 O    1.818   102 O    1.210   100 C    1.039
   102   8 O    2.366 --   101 C    1.210   124 H    0.942   103 O    0.184
   103   8 O    2.032 --   101 C    1.818   102 O    0.184
   104   6 C    3.896 --   105 C    1.465   100 C    1.401   125 H    0.985
   105   6 C    3.863 --   104 C    1.465    97 C    1.416   126 H    0.988
   106   1 H    1.031 --    64 C    0.995
   107   1 H    1.014 --    66 C    0.992
   108   1 H    1.030 --    67 C    0.998
   109   1 H    1.080 --    69 N    0.960
   110   1 H    1.034 --    72 C    0.998
   111   1 H    1.030 --    73 C    0.998
   112   1 H    1.026 --    78 C    0.997
   113   1 H    1.030 --    79 C    0.997
   114   1 H    1.044 --    83 C    0.987
   115   1 H    1.030 --    84 C    0.985
   116   1 H    0.978 --    87 O    0.942
   117   1 H    1.021 --    89 C    0.985
   118   1 H    1.047 --    90 C    0.988
   119   1 H    1.034 --    92 C    0.999
   120   1 H    1.017 --    93 C    0.992
   121   1 H    1.084 --    96 N    0.959
   122   1 H    1.044 --    98 C    0.987
   123   1 H    1.020 --    99 C    0.985
   124   1 H    0.978 --   102 O    0.942
   125   1 H    1.030 --   104 C    0.985
   126   1 H    1.048 --   105 C    0.988
   127   6 C    3.837 --   128 C    2.385   131 C    1.350   130 C    0.172
   128   6 C    3.834 --   127 C    2.385   129 C    1.348   132 C    0.172
   129   6 C    3.812 --   130 C    2.483   128 C    1.348
   130   6 C    3.768 --   129 C    2.483    13 C    1.212   127 C    0.172
   131   6 C    3.807 --   132 C    2.478   127 C    1.350
   132   6 C    3.770 --   131 C    2.478   175 C    1.217   128 C    0.172
   133   6 C    3.835 --   134 C    2.371   137 C    1.360   136 C    0.171
   134   6 C    3.835 --   133 C    2.371   135 C    1.360   138 C    0.171
   135   6 C    3.806 --   136 C    2.467   134 C    1.360
   136   6 C    3.768 --   135 C    2.467   187 C    1.227   133 C    0.171
   137   6 C    3.805 --   138 C    2.467   133 C    1.360
   138   6 C    3.769 --   137 C    2.467   237 C    1.227   134 C    0.171
   139   6 C    3.835 --   140 C    2.370   143 C    1.360   142 C    0.171
   140   6 C    3.835 --   139 C    2.370   141 C    1.360   144 C    0.171
   141   6 C    3.805 --   142 C    2.466   140 C    1.360
   142   6 C    3.769 --   141 C    2.466   249 C    1.227   139 C    0.171
   143   6 C    3.806 --   144 C    2.467   139 C    1.360
   144   6 C    3.769 --   143 C    2.467   299 C    1.227   140 C    0.171
   145   6 C    3.835 --   146 C    2.371   149 C    1.360   148 C    0.171
   146   6 C    3.835 --   145 C    2.371   147 C    1.360   150 C    0.171
   147   6 C    3.806 --   148 C    2.467   146 C    1.360
   148   6 C    3.769 --   147 C    2.467   311 C    1.227   145 C    0.171
   149   6 C    3.806 --   150 C    2.467   145 C    1.360
   150   6 C    3.769 --   149 C    2.467   361 C    1.227   146 C    0.171
   151   6 C    3.835 --   152 C    2.371   155 C    1.360   154 C    0.171
   152   6 C    3.835 --   151 C    2.371   153 C    1.360   156 C    0.171
   153   6 C    3.806 --   154 C    2.467   152 C    1.360
   154   6 C    3.769 --   153 C    2.467   373 C    1.227   151 C    0.171
   155   6 C    3.806 --   156 C    2.467   151 C    1.360
   156   6 C    3.769 --   155 C    2.467   423 C    1.227   152 C    0.171
   157   6 C    3.835 --   158 C    2.370   161 C    1.360   160 C    0.171
   158   6 C    3.835 --   157 C    2.370   159 C    1.360   162 C    0.171
   159   6 C    3.806 --   160 C    2.467   158 C    1.360
   160   6 C    3.769 --   159 C    2.467   435 C    1.227   157 C    0.171
   161   6 C    3.805 --   162 C    2.466   157 C    1.360
   162   6 C    3.769 --   161 C    2.466   485 C    1.227   158 C    0.171
   163   6 C    3.835 --   164 C    2.370   167 C    1.360   166 C    0.171
   164   6 C    3.835 --   163 C    2.370   165 C    1.361   168 C    0.171
   165   6 C    3.805 --   166 C    2.466   164 C    1.361
   166   6 C    3.769 --   165 C    2.466   497 C    1.227   163 C    0.171
   167   6 C    3.805 --   168 C    2.466   163 C    1.360
   168   6 C    3.768 --   167 C    2.466   547 C    1.227   164 C    0.171
   169   6 C    3.833 --   170 C    2.385   173 C    1.348   172 C    0.172
   170   6 C    3.837 --   169 C    2.385   171 C    1.350   174 C    0.172
   171   6 C    3.806 --   172 C    2.478   170 C    1.350
   172   6 C    3.770 --   171 C    2.478   559 C    1.217   169 C    0.172
   173   6 C    3.812 --   174 C    2.483   169 C    1.348
   174   6 C    3.768 --   173 C    2.483    76 C    1.212   170 C    0.172
   175   6 C    3.836 --   205 C    1.288   176 C    1.285   132 C    1.217
   176   6 C    3.905 --   175 C    1.285   177 C    1.268   180 N    1.250
   177   6 C    3.831 --   178 C    1.582   176 C    1.268   217 H    0.998
   178   6 C    3.821 --   177 C    1.582   179 C    1.261   218 H    0.998
   179   6 C    3.888 --   181 C    1.338   178 C    1.261   180 N    1.223
   180   7 N    3.250 --   176 C    1.250   179 C    1.223   219 H    0.961
   181   6 C    3.837 --   182 C    1.371   179 C    1.338   208 C    1.053
   182   6 C    3.925 --   181 C    1.371   185 N    1.354   183 C    1.160
   183   6 C    3.839 --   184 C    1.693   182 C    1.160   220 H    0.998
   184   6 C    3.851 --   183 C    1.693   186 C    1.166   221 H    0.999
   185   7 N    2.554 --   186 C    1.415   182 C    1.354
   186   6 C    3.943 --   185 N    1.415   187 C    1.284   184 C    1.166
   187   6 C    3.836 --   186 C    1.284   188 C    1.282   136 C    1.227
   188   6 C    3.904 --   187 C    1.282   189 C    1.270   207 N    1.251
   189   6 C    3.831 --   190 C    1.580   188 C    1.270   222 H    0.998
   190   6 C    3.820 --   189 C    1.580   191 C    1.262   223 H    0.998
   191   6 C    3.888 --   192 C    1.336   190 C    1.262   207 N    1.223
   192   6 C    3.835 --   202 C    1.372   191 C    1.336   193 C    1.053
   193   6 C    3.895 --   201 C    1.418   194 C    1.417   192 C    1.053
   194   6 C    3.863 --   195 C    1.465   193 C    1.417   224 H    0.988
   195   6 C    3.896 --   194 C    1.465   196 C    1.401   225 H    0.985
   196   6 C    3.900 --   195 C    1.401   200 C    1.401   197 C    1.039
   197   6 C    4.098 --   199 O    1.818   198 O    1.211   196 C    1.039
   198   8 O    2.366 --   197 C    1.211   226 H    0.942   199 O    0.184
   199   8 O    2.032 --   197 C    1.818   198 O    0.184
   200   6 C    3.892 --   201 C    1.462   196 C    1.401   227 H    0.985
   201   6 C    3.859 --   200 C    1.462   193 C    1.418   228 H    0.987
   202   6 C    3.926 --   192 C    1.372   206 N    1.354   203 C    1.159
   203   6 C    3.840 --   204 C    1.696   202 C    1.159   229 H    0.998
   204   6 C    3.851 --   203 C    1.696   205 C    1.165   230 H    0.999
   205   6 C    3.945 --   206 N    1.413   175 C    1.288   204 C    1.165
   206   7 N    2.551 --   205 C    1.413   202 C    1.354
   207   7 N    3.252 --   188 C    1.251   191 C    1.223   231 H    0.961
   208   6 C    3.896 --   216 C    1.419   209 C    1.417   181 C    1.053
   209   6 C    3.859 --   210 C    1.465   208 C    1.417   232 H    0.987
   210   6 C    3.896 --   209 C    1.465   211 C    1.401   233 H    0.985
   211   6 C    3.900 --   210 C    1.401   215 C    1.401   212 C    1.039
   212   6 C    4.098 --   214 O    1.818   213 O    1.211   211 C    1.039
   213   8 O    2.367 --   212 C    1.211   234 H    0.942   214 O    0.184
   214   8 O    2.032 --   212 C    1.818   213 O    0.184
   215   6 C    3.893 --   216 C    1.463   211 C    1.401   235 H    0.985
   216   6 C    3.863 --   215 C    1.463   208 C    1.419   236 H    0.988
   217   1 H    1.027 --   177 C    0.998
   218   1 H    1.031 --   178 C    0.998
   219   1 H    1.081 --   180 N    0.961
   220   1 H    1.035 --   183 C    0.998
   221   1 H    1.031 --   184 C    0.999
   222   1 H    1.026 --   189 C    0.998
   223   1 H    1.030 --   190 C    0.998
   224   1 H    1.048 --   194 C    0.988
   225   1 H    1.030 --   195 C    0.985
   226   1 H    0.978 --   198 O    0.942
   227   1 H    1.021 --   200 C    0.985
   228   1 H    1.044 --   201 C    0.987
   229   1 H    1.036 --   203 C    0.998
   230   1 H    1.031 --   204 C    0.999
   231   1 H    1.081 --   207 N    0.961
   232   1 H    1.044 --   209 C    0.987
   233   1 H    1.030 --   210 C    0.985
   234   1 H    0.978 --   213 O    0.942
   235   1 H    1.021 --   215 C    0.985
   236   1 H    1.048 --   216 C    0.988
   237   6 C    3.834 --   267 C    1.284   238 C    1.281   138 C    1.227
   238   6 C    3.904 --   237 C    1.281   239 C    1.270   242 N    1.252
   239   6 C    3.830 --   240 C    1.579   238 C    1.270   279 H    0.998
   240   6 C    3.820 --   239 C    1.579   241 C    1.263   280 H    0.998
   241   6 C    3.888 --   243 C    1.336   240 C    1.263   242 N    1.223
   242   7 N    3.250 --   238 C    1.252   241 C    1.223   281 H    0.961
   243   6 C    3.836 --   244 C    1.372   241 C    1.336   270 C    1.053
   244   6 C    3.925 --   243 C    1.372   247 N    1.352   245 C    1.160
   245   6 C    3.840 --   246 C    1.693   244 C    1.160   282 H    0.998
   246   6 C    3.851 --   245 C    1.693   248 C    1.166   283 H    0.999
   247   7 N    2.552 --   248 C    1.416   244 C    1.352
   248   6 C    3.943 --   247 N    1.416   249 C    1.284   246 C    1.166
   249   6 C    3.834 --   248 C    1.284   250 C    1.281   142 C    1.227
   250   6 C    3.904 --   249 C    1.281   251 C    1.270   269 N    1.252
   251   6 C    3.830 --   252 C    1.579   250 C    1.270   284 H    0.998
   252   6 C    3.820 --   251 C    1.579   253 C    1.263   285 H    0.998
   253   6 C    3.888 --   254 C    1.336   252 C    1.263   269 N    1.223
   254   6 C    3.836 --   264 C    1.373   253 C    1.336   255 C    1.053
   255   6 C    3.896 --   263 C    1.418   256 C    1.417   254 C    1.053
   256   6 C    3.863 --   257 C    1.465   255 C    1.417   286 H    0.988
   257   6 C    3.896 --   256 C    1.465   258 C    1.401   287 H    0.985
   258   6 C    3.900 --   257 C    1.401   262 C    1.401   259 C    1.039
   259   6 C    4.098 --   261 O    1.818   260 O    1.211   258 C    1.039
   260   8 O    2.366 --   259 C    1.211   288 H    0.942   261 O    0.184
   261   8 O    2.032 --   259 C    1.818   260 O    0.184
   262   6 C    3.892 --   263 C    1.462   258 C    1.401   289 H    0.985
   263   6 C    3.859 --   262 C    1.462   255 C    1.418   290 H    0.987
   264   6 C    3.925 --   254 C    1.373   268 N    1.352   265 C    1.160
   265   6 C    3.840 --   266 C    1.694   264 C    1.160   291 H    0.998
   266   6 C    3.851 --   265 C    1.694   267 C    1.166   292 H    0.999
   267   6 C    3.943 --   268 N    1.416   237 C    1.284   266 C    1.166
   268   7 N    2.551 --   267 C    1.416   264 C    1.352
   269   7 N    3.250 --   250 C    1.252   253 C    1.223   293 H    0.961
   270   6 C    3.896 --   278 C    1.418   271 C    1.417   243 C    1.053
   271   6 C    3.859 --   272 C    1.465   270 C    1.417   294 H    0.987
   272   6 C    3.896 --   271 C    1.465   273 C    1.401   295 H    0.985
   273   6 C    3.900 --   272 C    1.401   277 C    1.401   274 C    1.039
   274   6 C    4.098 --   276 O    1.818   275 O    1.211   273 C    1.039
   275   8 O    2.367 --   274 C    1.211   296 H    0.942   276 O    0.184
   276   8 O    2.032 --   274 C    1.818   275 O    0.184
   277   6 C    3.893 --   278 C    1.463   273 C    1.401   297 H    0.985
   278   6 C    3.863 --   277 C    1.463   270 C    1.418   298 H    0.988
   279   1 H    1.027 --   239 C    0.998
   280   1 H    1.031 --   240 C    0.998
   281   1 H    1.082 --   242 N    0.961
   282   1 H    1.036 --   245 C    0.998
   283   1 H    1.031 --   246 C    0.999
   284   1 H    1.026 --   251 C    0.998
   285   1 H    1.030 --   252 C    0.998
   286   1 H    1.048 --   256 C    0.988
   287   1 H    1.030 --   257 C    0.985
   288   1 H    0.978 --   260 O    0.942
   289   1 H    1.021 --   262 C    0.985
   290   1 H    1.045 --   263 C    0.987
   291   1 H    1.036 --   265 C    0.998
   292   1 H    1.031 --   266 C    0.999
   293   1 H    1.082 --   269 N    0.961
   294   1 H    1.045 --   271 C    0.987
   295   1 H    1.030 --   272 C    0.985
   296   1 H    0.978 --   275 O    0.942
   297   1 H    1.021 --   277 C    0.985
   298   1 H    1.048 --   278 C    0.988
   299   6 C    3.836 --   329 C    1.284   300 C    1.281   144 C    1.227
   300   6 C    3.904 --   299 C    1.281   301 C    1.270   304 N    1.252
   301   6 C    3.831 --   302 C    1.580   300 C    1.270   341 H    0.998
   302   6 C    3.819 --   301 C    1.580   303 C    1.262   342 H    0.998
   303   6 C    3.888 --   305 C    1.336   302 C    1.262   304 N    1.223
   304   7 N    3.251 --   300 C    1.252   303 C    1.223   343 H    0.961
   305   6 C    3.836 --   306 C    1.372   303 C    1.336   332 C    1.053
   306   6 C    3.925 --   305 C    1.372   309 N    1.353   307 C    1.160
   307   6 C    3.840 --   308 C    1.694   306 C    1.160   344 H    0.998
   308   6 C    3.851 --   307 C    1.694   310 C    1.166   345 H    0.999
   309   7 N    2.552 --   310 C    1.416   306 C    1.353
   310   6 C    3.943 --   309 N    1.416   311 C    1.284   308 C    1.166
   311   6 C    3.836 --   310 C    1.284   312 C    1.281   148 C    1.227
   312   6 C    3.904 --   311 C    1.281   313 C    1.270   331 N    1.252
   313   6 C    3.831 --   314 C    1.580   312 C    1.270   346 H    0.998
   314   6 C    3.819 --   313 C    1.580   315 C    1.262   347 H    0.998
   315   6 C    3.888 --   316 C    1.337   314 C    1.262   331 N    1.223
   316   6 C    3.836 --   326 C    1.372   315 C    1.337   317 C    1.054
   317   6 C    3.896 --   325 C    1.418   318 C    1.417   316 C    1.054
   318   6 C    3.863 --   319 C    1.465   317 C    1.417   348 H    0.988
   319   6 C    3.896 --   318 C    1.465   320 C    1.401   349 H    0.985
   320   6 C    3.900 --   324 C    1.401   319 C    1.401   321 C    1.039
   321   6 C    4.098 --   323 O    1.818   322 O    1.211   320 C    1.039
   322   8 O    2.366 --   321 C    1.211   350 H    0.942   323 O    0.184
   323   8 O    2.032 --   321 C    1.818   322 O    0.184
   324   6 C    3.892 --   325 C    1.462   320 C    1.401   351 H    0.985
   325   6 C    3.859 --   324 C    1.462   317 C    1.418   352 H    0.987
   326   6 C    3.925 --   316 C    1.372   330 N    1.353   327 C    1.160
   327   6 C    3.840 --   328 C    1.694   326 C    1.160   353 H    0.998
   328   6 C    3.851 --   327 C    1.694   329 C    1.166   354 H    0.999
   329   6 C    3.943 --   330 N    1.416   299 C    1.284   328 C    1.166
   330   7 N    2.552 --   329 C    1.416   326 C    1.353
   331   7 N    3.251 --   312 C    1.252   315 C    1.223   355 H    0.961
   332   6 C    3.896 --   340 C    1.418   333 C    1.417   305 C    1.053
   333   6 C    3.859 --   334 C    1.465   332 C    1.417   356 H    0.987
   334   6 C    3.896 --   333 C    1.465   335 C    1.402   357 H    0.985
   335   6 C    3.900 --   334 C    1.402   339 C    1.401   336 C    1.039
   336   6 C    4.098 --   338 O    1.818   337 O    1.211   335 C    1.039
   337   8 O    2.367 --   336 C    1.211   358 H    0.942   338 O    0.184
   338   8 O    2.032 --   336 C    1.818   337 O    0.184
   339   6 C    3.893 --   340 C    1.463   335 C    1.401   359 H    0.985
   340   6 C    3.863 --   339 C    1.463   332 C    1.418   360 H    0.988
   341   1 H    1.026 --   301 C    0.998
   342   1 H    1.030 --   302 C    0.998
   343   1 H    1.081 --   304 N    0.961
   344   1 H    1.034 --   307 C    0.998
   345   1 H    1.031 --   308 C    0.999
   346   1 H    1.026 --   313 C    0.998
   347   1 H    1.030 --   314 C    0.998
   348   1 H    1.048 --   318 C    0.988
   349   1 H    1.030 --   319 C    0.985
   350   1 H    0.978 --   322 O    0.942
   351   1 H    1.021 --   324 C    0.985
   352   1 H    1.045 --   325 C    0.987
   353   1 H    1.034 --   327 C    0.998
   354   1 H    1.031 --   328 C    0.999
   355   1 H    1.081 --   331 N    0.961
   356   1 H    1.044 --   333 C    0.987
   357   1 H    1.030 --   334 C    0.985
   358   1 H    0.978 --   337 O    0.942
   359   1 H    1.021 --   339 C    0.985
   360   1 H    1.048 --   340 C    0.988
   361   6 C    3.837 --   391 C    1.284   362 C    1.282   150 C    1.227
   362   6 C    3.904 --   361 C    1.282   363 C    1.270   366 N    1.251
   363   6 C    3.831 --   364 C    1.580   362 C    1.270   403 H    0.998
   364   6 C    3.819 --   363 C    1.580   365 C    1.262   404 H    0.998
   365   6 C    3.888 --   367 C    1.337   364 C    1.262   366 N    1.223
   366   7 N    3.251 --   362 C    1.251   365 C    1.223   405 H    0.961
   367   6 C    3.836 --   368 C    1.372   365 C    1.337   394 C    1.053
   368   6 C    3.925 --   367 C    1.372   371 N    1.353   369 C    1.160
   369   6 C    3.840 --   370 C    1.694   368 C    1.160   406 H    0.998
   370   6 C    3.851 --   369 C    1.694   372 C    1.166   407 H    0.999
   371   7 N    2.553 --   372 C    1.416   368 C    1.353
   372   6 C    3.943 --   371 N    1.416   373 C    1.284   370 C    1.166
   373   6 C    3.837 --   372 C    1.284   374 C    1.282   154 C    1.227
   374   6 C    3.904 --   373 C    1.282   375 C    1.270   393 N    1.251
   375   6 C    3.831 --   376 C    1.580   374 C    1.270   408 H    0.998
   376   6 C    3.819 --   375 C    1.580   377 C    1.262   409 H    0.998
   377   6 C    3.888 --   378 C    1.337   376 C    1.262   393 N    1.223
   378   6 C    3.836 --   388 C    1.372   377 C    1.337   379 C    1.053
   379   6 C    3.896 --   387 C    1.419   380 C    1.417   378 C    1.053
   380   6 C    3.863 --   381 C    1.465   379 C    1.417   410 H    0.988
   381   6 C    3.896 --   380 C    1.465   382 C    1.401   411 H    0.985
   382   6 C    3.900 --   386 C    1.401   381 C    1.401   383 C    1.039
   383   6 C    4.098 --   385 O    1.818   384 O    1.211   382 C    1.039
   384   8 O    2.366 --   383 C    1.211   412 H    0.942   385 O    0.184
   385   8 O    2.032 --   383 C    1.818   384 O    0.184
   386   6 C    3.892 --   387 C    1.462   382 C    1.401   413 H    0.985
   387   6 C    3.859 --   386 C    1.462   379 C    1.419   414 H    0.987
   388   6 C    3.925 --   378 C    1.372   392 N    1.353   389 C    1.160
   389   6 C    3.840 --   390 C    1.694   388 C    1.160   415 H    0.998
   390   6 C    3.851 --   389 C    1.694   391 C    1.166   416 H    0.999
   391   6 C    3.943 --   392 N    1.416   361 C    1.284   390 C    1.166
   392   7 N    2.553 --   391 C    1.416   388 C    1.353
   393   7 N    3.251 --   374 C    1.251   377 C    1.223   417 H    0.960
   394   6 C    3.895 --   402 C    1.418   395 C    1.417   367 C    1.053
   395   6 C    3.859 --   396 C    1.465   394 C    1.417   418 H    0.987
   396   6 C    3.896 --   395 C    1.465   397 C    1.402   419 H    0.985
   397   6 C    3.900 --   396 C    1.402   401 C    1.401   398 C    1.039
   398   6 C    4.098 --   400 O    1.818   399 O    1.211   397 C    1.039
   399   8 O    2.367 --   398 C    1.211   420 H    0.942   400 O    0.184
   400   8 O    2.032 --   398 C    1.818   399 O    0.184
   401   6 C    3.893 --   402 C    1.463   397 C    1.401   421 H    0.985
   402   6 C    3.863 --   401 C    1.463   394 C    1.418   422 H    0.988
   403   1 H    1.026 --   363 C    0.998
   404   1 H    1.030 --   364 C    0.998
   405   1 H    1.081 --   366 N    0.961
   406   1 H    1.034 --   369 C    0.998
   407   1 H    1.031 --   370 C    0.999
   408   1 H    1.026 --   375 C    0.998
   409   1 H    1.030 --   376 C    0.998
   410   1 H    1.048 --   380 C    0.988
   411   1 H    1.030 --   381 C    0.985
   412   1 H    0.978 --   384 O    0.942
   413   1 H    1.021 --   386 C    0.985
   414   1 H    1.044 --   387 C    0.987
   415   1 H    1.034 --   389 C    0.998
   416   1 H    1.031 --   390 C    0.999
   417   1 H    1.081 --   393 N    0.960
   418   1 H    1.044 --   395 C    0.987
   419   1 H    1.030 --   396 C    0.985
   420   1 H    0.978 --   399 O    0.942
   421   1 H    1.021 --   401 C    0.985
   422   1 H    1.048 --   402 C    0.988
   423   6 C    3.836 --   453 C    1.284   424 C    1.281   156 C    1.227
   424   6 C    3.904 --   423 C    1.281   425 C    1.270   428 N    1.252
   425   6 C    3.831 --   426 C    1.580   424 C    1.270   465 H    0.998
   426   6 C    3.819 --   425 C    1.580   427 C    1.262   466 H    0.998
   427   6 C    3.888 --   429 C    1.337   426 C    1.262   428 N    1.223
   428   7 N    3.251 --   424 C    1.252   427 C    1.223   467 H    0.961
   429   6 C    3.836 --   430 C    1.372   427 C    1.337   456 C    1.054
   430   6 C    3.925 --   429 C    1.372   433 N    1.353   431 C    1.161
   431   6 C    3.840 --   432 C    1.693   430 C    1.161   468 H    0.998
   432   6 C    3.851 --   431 C    1.693   434 C    1.166   469 H    0.999
   433   7 N    2.552 --   434 C    1.416   430 C    1.353
   434   6 C    3.943 --   433 N    1.416   435 C    1.284   432 C    1.166
   435   6 C    3.836 --   434 C    1.284   436 C    1.281   160 C    1.227
   436   6 C    3.904 --   435 C    1.281   437 C    1.270   455 N    1.251
   437   6 C    3.831 --   438 C    1.580   436 C    1.270   470 H    0.998
   438   6 C    3.819 --   437 C    1.580   439 C    1.262   471 H    0.998
   439   6 C    3.888 --   440 C    1.336   438 C    1.262   455 N    1.223
   440   6 C    3.836 --   450 C    1.372   439 C    1.336   441 C    1.053
   441   6 C    3.896 --   449 C    1.419   442 C    1.417   440 C    1.053
   442   6 C    3.863 --   443 C    1.465   441 C    1.417   472 H    0.988
   443   6 C    3.896 --   442 C    1.465   444 C    1.401   473 H    0.985
   444   6 C    3.900 --   448 C    1.401   443 C    1.401   445 C    1.039
   445   6 C    4.098 --   447 O    1.818   446 O    1.211   444 C    1.039
   446   8 O    2.366 --   445 C    1.211   474 H    0.942   447 O    0.184
   447   8 O    2.032 --   445 C    1.818   446 O    0.184
   448   6 C    3.892 --   449 C    1.462   444 C    1.401   475 H    0.985
   449   6 C    3.859 --   448 C    1.462   441 C    1.419   476 H    0.987
   450   6 C    3.925 --   440 C    1.372   454 N    1.353   451 C    1.160
   451   6 C    3.840 --   452 C    1.694   450 C    1.160   477 H    0.998
   452   6 C    3.851 --   451 C    1.694   453 C    1.166   478 H    0.999
   453   6 C    3.943 --   454 N    1.416   423 C    1.284   452 C    1.166
   454   7 N    2.552 --   453 C    1.416   450 C    1.353
   455   7 N    3.251 --   436 C    1.251   439 C    1.223   479 H    0.961
   456   6 C    3.895 --   464 C    1.418   457 C    1.417   429 C    1.054
   457   6 C    3.859 --   458 C    1.465   456 C    1.417   480 H    0.987
   458   6 C    3.896 --   457 C    1.465   459 C    1.401   481 H    0.985
   459   6 C    3.900 --   458 C    1.401   463 C    1.401   460 C    1.039
   460   6 C    4.098 --   462 O    1.818   461 O    1.211   459 C    1.039
   461   8 O    2.367 --   460 C    1.211   482 H    0.942   462 O    0.184
   462   8 O    2.032 --   460 C    1.818   461 O    0.184
   463   6 C    3.893 --   464 C    1.463   459 C    1.401   483 H    0.985
   464   6 C    3.863 --   463 C    1.463   456 C    1.418   484 H    0.988
   465   1 H    1.026 --   425 C    0.998
   466   1 H    1.030 --   426 C    0.998
   467   1 H    1.081 --   428 N    0.961
   468   1 H    1.034 --   431 C    0.998
   469   1 H    1.031 --   432 C    0.999
   470   1 H    1.026 --   437 C    0.998
   471   1 H    1.030 --   438 C    0.998
   472   1 H    1.048 --   442 C    0.988
   473   1 H    1.030 --   443 C    0.985
   474   1 H    0.978 --   446 O    0.942
   475   1 H    1.021 --   448 C    0.985
   476   1 H    1.044 --   449 C    0.987
   477   1 H    1.034 --   451 C    0.998
   478   1 H    1.031 --   452 C    0.999
   479   1 H    1.081 --   455 N    0.961
   480   1 H    1.044 --   457 C    0.987
   481   1 H    1.030 --   458 C    0.985
   482   1 H    0.978 --   461 O    0.942
   483   1 H    1.021 --   463 C    0.985
   484   1 H    1.048 --   464 C    0.988
   485   6 C    3.834 --   515 C    1.284   486 C    1.281   162 C    1.227
   486   6 C    3.904 --   485 C    1.281   487 C    1.270   490 N    1.252
   487   6 C    3.830 --   488 C    1.579   486 C    1.270   527 H    0.998
   488   6 C    3.820 --   487 C    1.579   489 C    1.263   528 H    0.998
   489   6 C    3.888 --   491 C    1.336   488 C    1.263   490 N    1.223
   490   7 N    3.250 --   486 C    1.252   489 C    1.223   529 H    0.961
   491   6 C    3.836 --   492 C    1.372   489 C    1.336   518 C    1.053
   492   6 C    3.925 --   491 C    1.372   495 N    1.352   493 C    1.161
   493   6 C    3.840 --   494 C    1.693   492 C    1.161   530 H    0.998
   494   6 C    3.851 --   493 C    1.693   496 C    1.166   531 H    0.999
   495   7 N    2.551 --   496 C    1.416   492 C    1.352
   496   6 C    3.943 --   495 N    1.416   497 C    1.284   494 C    1.166
   497   6 C    3.834 --   496 C    1.284   498 C    1.280   166 C    1.227
   498   6 C    3.904 --   497 C    1.280   499 C    1.271   517 N    1.252
   499   6 C    3.830 --   500 C    1.579   498 C    1.271   532 H    0.998
   500   6 C    3.818 --   499 C    1.579   501 C    1.263   533 H    0.998
   501   6 C    3.888 --   502 C    1.336   500 C    1.263   517 N    1.222
   502   6 C    3.836 --   512 C    1.372   501 C    1.336   503 C    1.053
   503   6 C    3.896 --   511 C    1.419   504 C    1.417   502 C    1.053
   504   6 C    3.863 --   505 C    1.465   503 C    1.417   534 H    0.988
   505   6 C    3.896 --   504 C    1.465   506 C    1.401   535 H    0.985
   506   6 C    3.900 --   510 C    1.401   505 C    1.401   507 C    1.039
   507   6 C    4.098 --   509 O    1.818   508 O    1.211   506 C    1.039
   508   8 O    2.366 --   507 C    1.211   536 H    0.942   509 O    0.184
   509   8 O    2.032 --   507 C    1.818   508 O    0.184
   510   6 C    3.892 --   511 C    1.462   506 C    1.401   537 H    0.985
   511   6 C    3.859 --   510 C    1.462   503 C    1.419   538 H    0.988
   512   6 C    3.925 --   502 C    1.372   516 N    1.352   513 C    1.160
   513   6 C    3.840 --   514 C    1.694   512 C    1.160   539 H    0.998
   514   6 C    3.851 --   513 C    1.694   515 C    1.166   540 H    0.999
   515   6 C    3.943 --   516 N    1.416   485 C    1.284   514 C    1.166
   516   7 N    2.551 --   515 C    1.416   512 C    1.352
   517   7 N    3.250 --   498 C    1.252   501 C    1.222   541 H    0.961
   518   6 C    3.896 --   526 C    1.418   519 C    1.417   491 C    1.053
   519   6 C    3.859 --   520 C    1.465   518 C    1.417   542 H    0.987
   520   6 C    3.896 --   519 C    1.465   521 C    1.401   543 H    0.985
   521   6 C    3.900 --   520 C    1.401   525 C    1.401   522 C    1.039
   522   6 C    4.098 --   524 O    1.818   523 O    1.211   521 C    1.039
   523   8 O    2.367 --   522 C    1.211   544 H    0.942   524 O    0.184
   524   8 O    2.032 --   522 C    1.818   523 O    0.184
   525   6 C    3.893 --   526 C    1.463   521 C    1.401   545 H    0.985
   526   6 C    3.863 --   525 C    1.463   518 C    1.418   546 H    0.988
   527   1 H    1.026 --   487 C    0.998
   528   1 H    1.030 --   488 C    0.998
   529   1 H    1.082 --   490 N    0.961
   530   1 H    1.036 --   493 C    0.998
   531   1 H    1.031 --   494 C    0.999
   532   1 H    1.027 --   499 C    0.998
   533   1 H    1.030 --   500 C    0.998
   534   1 H    1.048 --   504 C    0.988
   535   1 H    1.030 --   505 C    0.985
   536   1 H    0.978 --   508 O    0.942
   537   1 H    1.021 --   510 C    0.985
   538   1 H    1.045 --   511 C    0.988
   539   1 H    1.034 --   513 C    0.998
   540   1 H    1.031 --   514 C    0.999
   541   1 H    1.082 --   517 N    0.961
   542   1 H    1.045 --   519 C    0.987
   543   1 H    1.030 --   520 C    0.985
   544   1 H    0.978 --   523 O    0.942
   545   1 H    1.021 --   525 C    0.985
   546   1 H    1.048 --   526 C    0.988
   547   6 C    3.836 --   577 C    1.284   548 C    1.281   168 C    1.227
   548   6 C    3.903 --   547 C    1.281   549 C    1.270   552 N    1.251
   549   6 C    3.831 --   550 C    1.580   548 C    1.270   589 H    0.998
   550   6 C    3.818 --   549 C    1.580   551 C    1.262   590 H    0.998
   551   6 C    3.888 --   553 C    1.336   550 C    1.262   552 N    1.223
   552   7 N    3.252 --   548 C    1.251   551 C    1.223   591 H    0.961
   553   6 C    3.835 --   554 C    1.372   551 C    1.336   580 C    1.054
   554   6 C    3.926 --   553 C    1.372   557 N    1.354   555 C    1.159
   555   6 C    3.841 --   556 C    1.695   554 C    1.159   592 H    0.998
   556   6 C    3.851 --   555 C    1.695   558 C    1.165   593 H    0.999
   557   7 N    2.551 --   558 C    1.413   554 C    1.354
   558   6 C    3.945 --   557 N    1.413   559 C    1.288   556 C    1.165
   559   6 C    3.835 --   558 C    1.288   560 C    1.285   172 C    1.217
   560   6 C    3.905 --   559 C    1.285   561 C    1.268   579 N    1.250
   561   6 C    3.830 --   562 C    1.581   560 C    1.268   594 H    0.998
   562   6 C    3.820 --   561 C    1.581   563 C    1.261   595 H    0.998
   563   6 C    3.888 --   564 C    1.338   562 C    1.261   579 N    1.223
   564   6 C    3.837 --   574 C    1.371   563 C    1.338   565 C    1.053
   565   6 C    3.896 --   573 C    1.418   566 C    1.417   564 C    1.053
   566   6 C    3.863 --   567 C    1.465   565 C    1.417   596 H    0.988
   567   6 C    3.896 --   566 C    1.465   568 C    1.401   597 H    0.985
   568   6 C    3.900 --   567 C    1.401   572 C    1.401   569 C    1.039
   569   6 C    4.098 --   571 O    1.818   570 O    1.210   568 C    1.039
   570   8 O    2.366 --   569 C    1.210   598 H    0.942   571 O    0.184
   571   8 O    2.032 --   569 C    1.818   570 O    0.184
   572   6 C    3.893 --   573 C    1.463   568 C    1.401   599 H    0.985
   573   6 C    3.859 --   572 C    1.463   565 C    1.418   600 H    0.987
   574   6 C    3.925 --   564 C    1.371   578 N    1.353   575 C    1.160
   575   6 C    3.839 --   576 C    1.693   574 C    1.160   601 H    0.998
   576   6 C    3.851 --   575 C    1.693   577 C    1.166   602 H    0.999
   577   6 C    3.943 --   578 N    1.416   547 C    1.284   576 C    1.166
   578   7 N    2.554 --   577 C    1.416   574 C    1.353
   579   7 N    3.249 --   560 C    1.250   563 C    1.223   603 H    0.960
   580   6 C    3.895 --   588 C    1.418   581 C    1.417   553 C    1.054
   581   6 C    3.859 --   582 C    1.465   580 C    1.417   604 H    0.987
   582   6 C    3.896 --   581 C    1.465   583 C    1.401   605 H    0.985
   583   6 C    3.900 --   582 C    1.401   587 C    1.401   584 C    1.039
   584   6 C    4.098 --   586 O    1.818   585 O    1.211   583 C    1.039
   585   8 O    2.367 --   584 C    1.211   606 H    0.942   586 O    0.184
   586   8 O    2.032 --   584 C    1.818   585 O    0.184
   587   6 C    3.893 --   588 C    1.463   583 C    1.401   607 H    0.985
   588   6 C    3.863 --   587 C    1.463   580 C    1.418   608 H    0.988
   589   1 H    1.026 --   549 C    0.998
   590   1 H    1.030 --   550 C    0.998
   591   1 H    1.082 --   552 N    0.961
   592   1 H    1.034 --   555 C    0.998
   593   1 H    1.031 --   556 C    0.999
   594   1 H    1.027 --   561 C    0.998
   595   1 H    1.030 --   562 C    0.998
   596   1 H    1.048 --   566 C    0.988
   597   1 H    1.030 --   567 C    0.985
   598   1 H    0.978 --   570 O    0.942
   599   1 H    1.021 --   572 C    0.985
   600   1 H    1.044 --   573 C    0.987
   601   1 H    1.034 --   575 C    0.998
   602   1 H    1.031 --   576 C    0.999
   603   1 H    1.081 --   579 N    0.960
   604   1 H    1.044 --   581 C    0.987
   605   1 H    1.030 --   582 C    0.985
   606   1 H    0.978 --   585 O    0.942
   607   1 H    1.021 --   587 C    0.985
   608   1 H    1.048 --   588 C    0.988
 ---------------------------------------------------------------------------

Topologies differ in total number of bonds
Writing topology from bond orders to xtbtopo.mol

 dipole moment from electron density (au)
     X       Y       Z   
-367.8883   0.1569   0.1810  total (Debye):  935.079


           -------------------------------------------------
          | TOTAL ENERGY            -1262.504333130541 Eh   |
          | GRADIENT NORM               0.168867003453 Eh/α |
          | HOMO-LUMO GAP               0.039849535991 eV   |
           -------------------------------------------------
########################################################################
[WARNING] Runtime exception occurred
-1- restart_readRestart: Dimension missmatch in restart file.
########################################################################

------------------------------------------------------------------------
 * finished run on 2022/07/30 at 19:31:26.504     
------------------------------------------------------------------------
 total:
 * wall-time:     0 d,  0 h,  4 min, 42.760 sec
 *  cpu-time:     0 d,  0 h,  4 min, 40.833 sec
 * ratio c/w:     0.993 speedup
 SCF:
 * wall-time:     0 d,  0 h,  4 min, 40.222 sec
 *  cpu-time:     0 d,  0 h,  4 min, 38.320 sec
 * ratio c/w:     0.993 speedup

