608
 energy: -1129.328059734468 gnorm: 0.000699791715 xtb: 6.5.1 (b24c23e)
C          128.98837741968808       -0.07043526370982       -0.00034543297398
C          129.60680387583599       -1.30479346789737       -0.15121709219108
C          128.96442480033849       -2.56829160379488       -0.28042285570257
C          129.93368033192709       -3.52202952221510       -0.41342384034260
C          131.19976030247969       -2.87022147846303       -0.38041079309989
N          130.95183860619466       -1.53788767795476       -0.21135487047714
C          132.46790426784054       -3.45477125607454       -0.47443730718389
C          133.67877140006536       -2.76209527405583       -0.39550016875449
C          134.98081027047093       -3.38396125015316       -0.55962735015504
C          135.89367375242159       -2.40035919404746       -0.42355879921031
N          133.82234906365537       -1.42523621640885       -0.18430010832506
C          135.14823703116929       -1.17905998575857       -0.18623031949629
C          135.77523609470163        0.06739157751440        0.01149131948445
C          135.13096567150646        1.30273431315029        0.21021673944467
C          135.76669844423216        2.55104965795695        0.44399253336409
C          134.79321163295700        3.50064756832071        0.58419988564996
C          133.53156455569388        2.86149590155909        0.42951589585936
C          132.26442637716312        3.44932141314242        0.50816645479667
C          132.22075920307321        4.91326269918472        0.73180492995325
C          132.80411280181329        5.78961949236071       -0.18758019678160
C          132.76228167532918        7.15503893098063        0.02565503859153
C          132.14130667267540        7.67077294416156        1.16487741315101
C          132.12695508918205        9.14123759049917        1.35181581060055
O          131.50704123908980        9.53378390278261        2.47506452956453
O          132.61832292405319        9.92933784495164        0.58429704287033
C          131.55846299965060        6.80044111927365        2.08663756073297
C          131.59692862005417        5.43453157489236        1.86852995345743
C          131.05260368419297        2.75925462421124        0.39278013692894
C          129.74363836297275        3.39410836701653        0.41500825297922
C          128.83769119741399        2.40616584346368        0.27220778454246
C          129.59190583772880        1.17058232688947        0.15293709744150
N          130.92234983364563        1.42299801444924        0.22029096097998
N          133.78766531731549        1.53336724198802        0.21413463490761
C          132.51128494340537       -4.92260017725390       -0.67662243782260
C          131.93384428819283       -5.49773785729669       -1.81158452998528
C          131.97548040501644       -6.86742748536345       -2.00528697651070
C          132.59227242525702       -7.68708087906761       -1.05963474370188
C          132.66118039291686       -9.15932000887784       -1.21910617723019
O          132.08522517591294       -9.60487136579996       -2.34610094493266
O          133.17836272508882       -9.90592974493016       -0.42760010330065
C          133.16754708287354       -7.11717917345926        0.07781222269662
C          133.12971664040612       -5.74806775847954        0.26641901714525
H          127.90316818332235       -0.08741843300157       -0.00348408445584
H          127.89632476339570       -2.71540801626188       -0.26518319667638
H          129.79050391051047       -4.58540711882443       -0.51652263161778
H          131.67196847404267       -0.82717703722500       -0.13672630941097
H          135.15106592923181       -4.42812710617057       -0.76586020185829
H          136.96819587429781       -2.46682636768057       -0.48213801380497
H          136.83371397359733        2.69289623780410        0.50303439038800
H          134.93353687993465        4.54969573506245        0.78738195285801
H          133.27422521860771        5.39293486132769       -1.08031994595450
H          133.20805901461551        7.84053415778123       -0.68674736809542
H          131.54165576779326       10.50298003115279        2.52256762718909
H          131.07837591718976        7.19595837457872        2.97389930220793
H          131.15641648512229        4.75794464221587        2.59208564851050
H          129.56754230795073        4.45330258505206        0.51191836271056
H          127.76176192078444        2.47581797221711        0.23876414047616
H          133.07030149767652        0.82719122620088        0.08617374975303
H          131.46713668010719       -4.86029461160125       -2.55419112839219
H          131.53145078205563       -7.30479029784967       -2.89170119190320
H          132.17441642572439      -10.57131052057702       -2.37525787122191
H          133.64145238661987       -7.76383807933196        0.80811775986443
H          133.56625420969957       -5.30866589185488        1.15605624273328
C          263.92332586398055        0.15053318550577       -0.04853958190049
C          263.31495122948826        1.33039903566207        0.35966077535975
C          263.96762329473358        2.52468536019028        0.77625364494143
C          263.00588186113532        3.44528412213655        1.08330296078668
C          261.73412677650555        2.84656338976358        0.85274628081640
N          261.97153826203544        1.57019157097897        0.42876537052567
C          260.47026845373210        3.41960996689088        1.03410005325278
C          259.25440061308234        2.76401845907006        0.82310031969793
C          257.95650866915605        3.40355906142111        0.94718843486864
C          257.03640043479783        2.45764318502334        0.66775121314233
N          259.10125098188252        1.46267704618026        0.45562416156665
C          257.77321716448847        1.24526699374026        0.36665598324739
C          257.13760284966060        0.02809668805274        0.05027510947157
C          257.77351961565125       -1.18170301908065       -0.28535153216872
C          257.13058583545063       -2.41479717146412       -0.57359348536546
C          258.09684054293984       -3.33460718643465       -0.87279514203035
C          259.36067420436842       -2.68709190442740       -0.78577411988103
C          260.62241931601949       -3.25027711261300       -1.00590121457818
C          260.65442014233440       -4.66855507488030       -1.43271961951624
C          260.02878584636244       -5.06597591161549       -2.61782478123235
C          260.06045212791946       -6.39003060248982       -3.01444195120402
C          260.71356037205629       -7.34379812677318       -2.23136773190633
C          260.71609745912957       -8.75135379924305       -2.69639651676950
O          261.37093257115799       -9.58684541972921       -1.87599309311306
O          260.18759070723473       -9.13393420635336       -3.70930216848174
C          261.33825301504561       -6.95302659973281       -1.04651306836782
C          261.30963235447939       -5.62636229851121       -0.65407822396113
C          261.83836759512951       -2.57461719724076       -0.85437880321356
C          263.14024175554442       -3.15571406254650       -1.14489201851964
C          264.05319131883977       -2.20150084441019       -0.87442017023769
C          263.30999680810294       -1.03531831059062       -0.43006202807351
N          261.97899252701689       -1.29327269785508       -0.44108295732083
N          259.11384279470775       -1.39153870335096       -0.41657439721193
C          260.43617128268210        4.83141240857592        1.48408254019384
C          261.01189398494358        5.83856677363734        0.70531847783299
C          260.97891589153204        7.15739056919903        1.12370234134508
C          260.37259397429193        7.48982731354723        2.33547146482157
C          260.31351666369699        8.88625125193762        2.82963738565778
O          260.88885085851700        9.77306017995817        2.00338614375952
O          259.80403176707347        9.21884999203919        3.86948876737670
C          259.79849394021295        6.48638680361407        3.11845020819405
C          259.82768910773967        5.17041560174867        2.69582060881812
H          265.00838303842323        0.16609042694366       -0.06803499905795
H          265.03719899672262        2.64800893224525        0.83548548295724
H          263.15798388078639        4.44891190761872        1.44591484193400
H          261.24568709458100        0.89849131757947        0.20246573897717
H          257.79372568192093        4.43911831146575        1.19809221171322
H          255.96207605213439        2.54748069249952        0.65295750973862
H          256.06409133941133       -2.56981569852010       -0.54712996629954
H          257.95052407392285       -4.37282374349591       -1.12217754989254
H          259.53364098931428       -4.32518417853422       -3.23542334329596
H          259.58199719294794       -6.70357425420029       -3.93580751978507
H          261.32617114578039      -10.48210424739400       -2.24924243191596
H          261.84324270003316       -7.69037714539847       -0.43377364703415
H          261.78282834944196       -5.32580942525400        0.27387291086998
H          263.30701895361460       -4.15338124698058       -1.51788668120386
H          265.12704043683402       -2.24890328225777       -0.96489054220178
H          259.83517464624134       -0.69496836218751       -0.26122433756216
H          261.47019056652130        5.58342688829793       -0.24360749380528
H          261.42164075696047        7.93338777067523        0.51051205686442
H          260.80652813885280       10.65726036216299        2.39611604420062
H          259.33256772033923        6.75537138123446        4.06007761620025
H          259.39218182024985        4.39115755199311        3.31080916931820
C          140.97787277845728        0.14370087319145        0.02518569578887
C          139.74982827900902        0.13272799964822        0.02150699739789
C          138.40512666511179        0.11563970497206        0.01789288563012
C          137.18170016972681        0.09317881556259        0.01421145851315
C          142.32249693502013        0.15038970348302        0.02951596195124
C          143.54631131385440        0.15021414669651        0.03504564143991
C          157.00881960749078        0.04176537564204        0.01170961201943
C          155.78000538893696        0.04890357845973        0.01014000083885
C          154.43683313380041        0.05803331765896        0.01135897361112
C          153.21244247201108        0.07084095422848        0.01243513400770
C          158.35199879209549        0.03750828682690        0.01399000435605
C          159.57645798844771        0.03371556846417        0.01954649716929
C          173.03584209711622        0.09381940059741        0.11405557112369
C          171.80701063013029        0.08642556226469        0.10565150815295
C          170.46403626151456        0.07582698089523        0.09414145050942
C          169.23962269371677        0.06970812477106        0.08154047154698
C          174.37886115318622        0.10255170721120        0.12012456038395
C          175.60331561019882        0.10628051890572        0.12645731326711
C          189.06081834881761        0.10964828999729        0.11489526112632
C          187.83196861448548        0.10829212010989        0.11478846941460
C          186.48895207570547        0.10897247854142        0.11620744688869
C          185.26449130366927        0.11094916339123        0.11507704266690
C          190.40381751600327        0.10814708420526        0.11242427418780
C          191.62824633078083        0.10359800386520        0.11159361947418
C          205.08475494466958        0.09056582589104        0.09264390997696
C          203.85589384559003        0.08882062954302        0.08964153245662
C          202.51289212435054        0.08636721396687        0.08796587623729
C          201.28846385166162        0.08760012537150        0.08515499929429
C          206.42775285001983        0.09532539628074        0.09608636096584
C          207.65219863996262        0.09791091563232        0.10323275390839
C          221.10907595207647        0.14766349219613        0.13609914579796
C          219.88027122901286        0.15391979710368        0.14668633130222
C          218.53724124396155        0.15557729229985        0.15447393689171
C          217.31276143249048        0.15888184190629        0.15563725316359
C          222.45200401763140        0.13387819133688        0.12451432721950
C          223.67627268750488        0.11685989706034        0.11032969659745
C          237.13399185421261       -0.03819223581603       -0.00321400288092
C          235.90519484680354       -0.03025686611379       -0.00899764543694
C          234.56206076136533       -0.02037228580836       -0.00986446283775
C          233.33764346154672       -0.00753688282784       -0.00732188537639
C          238.47717151878854       -0.03986250074014        0.00357723001981
C          239.70156408821512       -0.04375583524526        0.01628866543982
C          253.16304413216523       -0.02498948624213        0.09309259735125
C          251.93502719012582       -0.03201471463951        0.10211799848165
C          250.59037469086493       -0.03575019960662        0.10756800493644
C          249.36657276984948       -0.03392195278731        0.10657319831012
C          254.50777231908197       -0.01157748724485        0.08242588279286
C          255.73118429964433        0.00621779037520        0.06832898995057
C          144.95198392033438        0.14609419238649        0.03746991253097
C          145.58213199904154        1.08751524177482       -0.79843024771299
C          144.93625368759231        2.01507126002071       -1.65632231734040
C          145.90332789202242        2.75000488123715       -2.28563841400149
C          147.16872057718311        2.29732904740559       -1.82206496563997
N          146.92393992298719        1.28635687051487       -0.93219008833108
C          148.43089380493049        2.76564759139289       -2.20795473680299
C          149.65432939807553        2.26101609638599       -1.76432219839263
C          150.94291373978521        2.81464551980173       -2.14102121122312
C          151.87692648179853        2.06547314883150       -1.51974586801705
N          149.82661984759349        1.21064999509726       -0.91523165222515
C          151.15736984031861        1.06320843323204       -0.75854468466278
C          151.80849534191114        0.08378486461555        0.01859126551745
C          151.17718929535698       -0.89296234087719        0.81311515116215
C          151.82184903995633       -1.89877335535055        1.57860346687628
C          150.85466187662155       -2.62853091173521        2.21387777954349
C          149.59069103004796       -2.08226378644070        1.86044175461268
C          148.32928313708044       -2.52324926013000        2.27846703847031
C          148.31115030192086       -3.65150214268333        3.24073177797392
C          147.70050059065647       -4.86156851046114        2.90075524708239
C          147.68734794578683       -5.91294272851236        3.79862448669930
C          148.27976145782389       -5.77287539133269        5.05509131664088
C          148.23757438565264       -6.92754991128011        5.98433453681618
O          148.83265912772677       -6.68983659918645        7.16293761489546
O          147.72529945708152       -7.98751811706640        5.72898954530374
C          148.88852499938230       -4.56600938328209        5.40040768775452
C          148.90556420600720       -3.51686551572097        4.49801030743430
C          147.10586449769661       -1.99061101815004        1.86759782135977
C          145.81846697195931       -2.43980966170365        2.36741149789069
C          144.88439662501841       -1.69690552344487        1.73894031791816
C          145.60274149981643       -0.78906658353069        0.86625615396810
N          146.93366864927577       -0.98057487366121        0.97169767868368
N          149.83631787112299       -1.04236777140317        1.00431058330144
C          148.44941678184352        3.89360231757319       -3.17055637789760
C          147.87287258507780        5.12138582440423       -2.83448225161443
C          147.89245207070576        6.17117186370699       -3.73417623096515
C          148.48353996533024        6.01159551578778       -4.98888481606805
C          148.47563842387177        7.16517638906366       -5.92034584118989
O          149.07081005402551        6.91051922820109       -7.09523013673862
O          147.98751409467141        8.23774637116012       -5.66996673268156
C          149.05856688896807        4.78709574618525       -5.33019330197825
C          149.04251111924955        3.73940424099400       -4.42620771095425
H          143.86810434323527        2.09847535141406       -1.77520592175216
H          145.75504437519712        3.53021065478867       -3.01413521927509
H          147.64359978965174        0.75818886455832       -0.45011712843078
H          151.09069298332244        3.66906304722596       -2.78128091506355
H          152.95004720009993        2.16528407499672       -1.55038434830785
H          152.88913811759923       -2.04224311443907        1.62700347004238
H          151.00172645901617       -3.47672347180763        2.86225236715843
H          147.25063471064485       -4.97610620735569        1.92118388651955
H          147.21983984426186       -6.85651832636372        3.53943136249915
H          148.76185498133586       -7.48902654914448        7.70987960177651
H          149.34601750299086       -4.45133152504522        6.37595472887495
H          149.36707815936643       -2.57476482633745        4.77191713308986
H          145.67161449462606       -3.20903617609076        3.10799010958761
H          143.81202926215514       -1.73332673752304        1.84436173288298
H          149.11742909771181       -0.47136458362499        0.57254084806745
H          147.42532878210127        5.25202656384176       -1.85572843128792
H          147.45221544660637        7.12848681320493       -3.47755835430533
H          149.02402145547921        7.71049969672006       -7.64358952529795
H          149.51558012356534        4.65780364898981       -6.30412347940008
H          149.47830108690249        2.78408432403225       -4.69596253817945
C          160.98040244877328        0.03554612434718        0.02381186477765
C          161.60721199103438        0.95942020263915       -0.83525124722191
C          160.95780686535801        1.85549119573891       -1.72300334675988
C          161.92152057290582        2.58644710833795       -2.36247999360329
C          163.18773825913428        2.16356404098546       -1.87443775580437
N          162.94733015030641        1.17148064231889       -0.96209423275681
C          164.44748111343742        2.64355596071982       -2.25406557832339
C          165.67231640984971        2.17009306613438       -1.78104596114748
C          166.95670990651882        2.73997436801104       -2.14735941446775
C          167.89366962539074        2.01957154819477       -1.49711970892588
N          165.84938515303858        1.13892128639422       -0.90959043467971
C          167.17983928291747        1.01790210073520       -0.72985635542926
C          167.83590087398522        0.06023388709330        0.06996932269749
C          167.20986282915950       -0.91786394105441        0.86720316773687
C          167.86035978254048       -1.90852878807444        1.64711859875217
C          166.89671436531674       -2.64677636854872        2.27823001366428
C          165.62928756204829       -2.11988340859366        1.90878046322132
C          164.36935206505117       -2.57050903223825        2.32182896827424
C          164.35561274079811       -3.69244629467071        3.29136657580559
C          163.75483206659186       -4.90861045120368        2.95532376562290
C          163.74683880839981       -5.95593702347474        3.85790696782853
C          164.33475284372642       -5.80579555477752        5.11533074924344
C          164.29940184238600       -6.95696722010710        6.04919312704700
O          164.89345346382493       -6.71122883848406        7.22661567994920
O          163.79297149846437       -8.02080626423755        5.79817020977138
C          164.93286157850912       -4.59260000935042        5.45709212307262
C          164.94452191111719       -3.54734924872828        4.55006705905108
C          163.14382283348033       -2.05241321613930        1.89969117775435
C          161.85811280494534       -2.50264179341708        2.40242936512916
C          160.92099787743251       -1.77385293870972        1.76178340775241
C          161.63587756763633       -0.87568684406169        0.87650678680884
N          162.96719970575217       -1.05624167832672        0.98846678835142
N          165.86931480398383       -1.08387851403354        1.04641319128370
C          164.46201208617370        3.74990944599973       -3.24130635118158
C          163.85834122366421        4.97437195588702       -2.94278590848054
C          163.87519989169678        6.00408418261108       -3.86544320928428
C          164.49078779426264        5.82731299633375       -5.10598278150633
C          164.47917191773286        6.95971970101642       -6.06308673790455
O          165.10053498430804        6.69024571426392       -7.22094991585312
O          163.96728273682166        8.02837251430484       -5.84556459104908
C          165.09300385957286        4.60601707882734       -5.40983256021809
C          165.07950912221145        3.57853409718628       -4.48292281978169
H          159.88991427867427        1.92182723056745       -1.85419401897434
H          161.77017687154944        3.34524790869460       -3.11262085851968
H          163.66909925790975        0.66616042218785       -0.45912294844333
H          167.09959361530107        3.58520959303702       -2.80078191248692
H          168.96517356050660        2.13839383228046       -1.51233276884295
H          168.92893978024753       -2.03720975694412        1.70713486492647
H          167.04896248072234       -3.48811211410802        2.93427868559366
H          163.30883605625468       -5.03096023193725        1.97491786591764
H          163.28733908656218       -6.90422343389413        3.60158791993262
H          164.82797229499405       -7.50880297819394        7.77657632602790
H          165.38639768665274       -4.46999937314393        6.43352238328094
H          165.39753425389560       -2.60039515243820        4.82139215855405
H          161.71433931390970       -3.26203033885108        3.15371861727226
H          159.84858818883902       -1.81532855825983        1.86513913479110
H          165.14698332390864       -0.52653451951269        0.60269719499111
H          163.39192422452882        5.11887248100366       -1.97485239720989
H          163.41396224870877        6.95886773476716       -3.63791820612622
H          165.04975041973228        7.47698711172859       -7.78780251721616
H          165.56918933047049        4.46335922286903       -6.37264731520410
H          165.53666622647813        2.62543365836540       -4.72358874736920
C          177.00714236522157        0.11088115346569        0.12703405173410
C          177.62998058615136        1.03496979085369       -0.73461336572959
C          176.97631248698866        1.93403771281234       -1.61625670000629
C          177.93716726667964        2.66248973298472       -2.26283078297748
C          179.20591217238129        2.23468869608290       -1.78577678929507
N          178.96962523114661        1.24326794072720       -0.87157939740688
C          180.46432686202175        2.70837684169554       -2.17719611496938
C          181.69098915128674        2.22933604753564       -1.71454814039157
C          182.97481282631998        2.79257667162341       -2.09282507712559
C          183.91398766910055        2.06791713701464       -1.45054690595060
N          181.87069774980617        1.19777840917870       -0.84414338420272
C          183.20212227894751        1.07008265336046       -0.67648909269026
C          183.86072794763754        0.10862547219420        0.11659059555774
C          183.23775023132399       -0.86769414409648        0.91843977591099
C          183.89119816610349       -1.86313531023992        1.68974881367174
C          182.93030951334205       -2.59885534228849        2.32800609919801
C          181.66185501408128       -2.06535350291835        1.97198668737643
C          180.40361790501922       -2.51146742269007        2.39511331686980
C          180.39262587011120       -3.63824223582370        3.35893693920777
C          179.78034931783611       -4.84842393109426        3.02183887967328
C          179.77430684136326       -5.90103279918893        3.91820929181644
C          180.37593738419733       -5.76235863634120        5.17044947365653
C          180.34200499780277       -6.91887760307630        6.09774558510682
O          180.94988214520734       -6.68453457617431        7.27039812334371
O          179.82526153185324       -7.97748381092800        5.84562404816622
C          180.98572011126123       -4.55528181412242        5.51323737479502
C          180.99522263175419       -3.50463237950004        4.61239995088498
C          179.17704668895433       -1.98599912104001        1.98541994317341
C          177.89356438188071       -2.43137086277794        2.49804251211912
C          176.95439887437681       -1.69826665146774        1.86539948207889
C          177.66595145976925       -0.80200960360032        0.97547961631404
N          178.99731404320107       -0.98750862046160        1.07726686206371
N          181.89827422368248       -1.02804607371860        1.11020939264687
C          180.47589651868628        3.81173402748070       -3.16783329618801
C          179.88247559348775        5.04089221357689       -2.86827349141473
C          179.89723597820884        6.06711966753584       -3.79490594535848
C          180.50019051546801        5.88201178624228       -5.04042068252498
C          180.48704475451638        7.01099038917207       -6.00158462251106
O          181.09625070202000        6.73330000990800       -7.16394798143583
O          179.98400463774968        8.08368722506929       -5.78338250741460
C          181.09189376912755        4.65586561068653       -5.34537703556231
C          181.08070027022379        3.63196003102766       -4.41452487922211
H          175.90759850728290        2.00411502709945       -1.73852337927982
H          177.78226341344396        3.42268503811717       -3.01083732095731
H          179.69394630584728        0.73462072789906       -0.37566291323595
H          183.11591304643298        3.63669630628863       -2.74807692920885
H          184.98589620761499        2.18134298363473       -1.47548646950932
H          184.95970789557180       -1.99674488965035        1.73927616311400
H          183.08508393910418       -3.44263849490383        2.98030032541680
H          179.32374231826941       -4.96192232741672        2.04525929344668
H          179.30578262653117       -6.84463640633412        3.66095213342297
H          180.88433248757548       -7.48495386079881        7.81620698186611
H          181.44997737348319       -4.44162191331599        6.48570300361725
H          181.45719222770845       -2.56234667068409        4.88486491833388
H          177.75266137131274       -3.19068915632482        3.24994256536374
H          175.88269821875036       -1.73539497634383        1.97735982007018
H          181.17409757051479       -0.46682171528766        0.67444370349819
H          179.42592154052147        5.19183778075679       -1.89662972602555
H          179.44411860710451        7.02561769674058       -3.56667304120307
H          181.04553642148164        7.51827159207260       -7.73325440869896
H          181.55815431023959        4.50667599102619       -6.31204992771222
H          181.52977392247138        2.67516610226298       -4.65576564095200
C          193.03201615026396        0.10152142929805        0.10600260637981
C          193.65528750013530        1.02403020861482       -0.75699647001960
C          193.00186683192769        1.92468135906987       -1.63720245584461
C          193.96306985374471        2.65095168624487       -2.28568864860639
C          195.23178834160188        2.22050022748305       -1.81092351402777
N          194.99510144831174        1.22916312555863       -0.89673723213915
C          196.49047934727233        2.69260281981585       -2.20336712103608
C          197.71683215141465        2.21123356660409       -1.74222380078270
C          199.00119636277032        2.77318783307093       -2.12049393449783
C          199.93971122984695        2.04672265335036       -1.47928233457546
N          197.89559011527928        1.17856777128951       -0.87293059898078
C          199.22692779406921        1.04905331650171       -0.70584410399173
C          199.88469244017381        0.08643609931458        0.08656024509738
C          199.26107943205574       -0.88964602866633        0.88822391171790
C          199.91393792877417       -1.88566357646096        1.65931386785688
C          198.95264271076906       -2.62072342641935        2.29773813039303
C          197.68454871956106       -2.08627122906134        1.94195657891591
C          196.42605618374233       -2.53132096580191        2.36537313778366
C          196.41374925986685       -3.65808347932406        3.32924830581192
C          195.80081018699914       -4.86784939032000        2.99191214042462
C          195.79193648803010       -5.91974339076608        3.88910651194990
C          196.39117243863365       -5.78064128828100        5.14244871831239
C          196.35306928031662       -6.93594312936911        6.07111194854663