      -----------------------------------------------------------      
     |                   =====================                   |     
     |                           x T B                           |     
     |                   =====================                   |     
     |                         S. Grimme                         |     
     |          Mulliken Center for Theoretical Chemistry        |     
     |                    University of Bonn                     |     
      -----------------------------------------------------------      

   * xtb version 6.5.1 (b24c23e) compiled by 'conda@728c89f4b128' on 2022-07-12

   xtb is free software: you can redistribute it and/or modify it under
   the terms of the GNU Lesser General Public License as published by
   the Free Software Foundation, either version 3 of the License, or
   (at your option) any later version.
   
   xtb is distributed in the hope that it will be useful,
   but WITHOUT ANY WARRANTY; without even the implied warranty of
   MERCHANTABILITY or FITNESS FOR A PARTICULAR PURPOSE.  See the
   GNU Lesser General Public License for more details.
   
   Cite this work as:
   * C. Bannwarth, E. Caldeweyher, S. Ehlert, A. Hansen, P. Pracht,
     J. Seibert, S. Spicher, S. Grimme, WIREs Comput. Mol. Sci., 2020, 11,
     e01493. DOI: 10.1002/wcms.1493
   
   for GFN2-xTB:
   * C. Bannwarth, S. Ehlert and S. Grimme., J. Chem. Theory Comput., 2019,
     15, 1652-1671. DOI: 10.1021/acs.jctc.8b01176
   for GFN1-xTB:
   * S. Grimme, C. Bannwarth, P. Shushkov, J. Chem. Theory Comput., 2017,
     13, 1989-2009. DOI: 10.1021/acs.jctc.7b00118
   for GFN0-xTB:
   * P. Pracht, E. Caldeweyher, S. Ehlert, S. Grimme, ChemRxiv, 2019, preprint.
     DOI: 10.26434/chemrxiv.8326202.v1
   for GFN-FF:
   * S. Spicher and S. Grimme, Angew. Chem. Int. Ed., 2020, 59, 15665-15673.
     DOI: 10.1002/anie.202004239
   
   for ALPB and GBSA implicit solvation:
   * S. Ehlert, M. Stahn, S. Spicher, S. Grimme, J. Chem. Theory Comput.,
     2021, 17, 4250-4261. DOI: 10.1021/acs.jctc.1c00471
   
   for DFT-D4:
   * E. Caldeweyher, C. Bannwarth and S. Grimme, J. Chem. Phys., 2017,
     147, 034112. DOI: 10.1063/1.4993215
   * E. Caldeweyher, S. Ehlert, A. Hansen, H. Neugebauer, S. Spicher,
     C. Bannwarth and S. Grimme, J. Chem. Phys., 2019, 150, 154122.
     DOI: 10.1063/1.5090222
   * E. Caldeweyher, J.-M. Mewes, S. Ehlert and S. Grimme, Phys. Chem. Chem. Phys.
     2020, 22, 8499-8512. DOI: 10.1039/D0CP00502A
   
   for sTDA-xTB:
   * S. Grimme and C. Bannwarth, J. Chem. Phys., 2016, 145, 054103.
     DOI: 10.1063/1.4959605
   
   in the mass-spec context:
   * V. Asgeirsson, C. Bauer and S. Grimme, Chem. Sci., 2017, 8, 4879.
     DOI: 10.1039/c7sc00601b
   * J. Koopman and S. Grimme, ACS Omega 2019, 4, 12, 15120-15133.
     DOI: 10.1021/acsomega.9b02011
   
   for metadynamics refer to:
   * S. Grimme, J. Chem. Theory Comput., 2019, 155, 2847-2862
     DOI: 10.1021/acs.jctc.9b00143
   
   for SPH calculations refer to:
   * S. Spicher and S. Grimme, J. Chem. Theory Comput., 2021, 17, 1701-1714
     DOI: 10.1021/acs.jctc.0c01306
   
   with help from (in alphabetical order)
   P. Atkinson, C. Bannwarth, F. Bohle, G. Brandenburg, E. Caldeweyher
   M. Checinski, S. Dohm, S. Ehlert, S. Ehrlich, I. Gerasimov, C. Hölzer
   A. Katbashev, J. Koopman, C. Lavigne, S. Lehtola, F. März, M. Müller,
   F. Musil, H. Neugebauer, J. Pisarek, C. Plett, P. Pracht, F. Pultar,
   J. Seibert, P. Shushkov, S. Spicher, M. Stahn, M. Steiner, T. Strunk,
   J. Stückrath, T. Rose, and J. Unsleber
   
 * started run on 2022/07/30 at 09:42:31.709     

           -------------------------------------------------
          |                Calculation Setup                |
           -------------------------------------------------

          program call               : xtb Ni_Ph2OMe_C4_3.xyz --gfn 1 --opt -T 48
          hostname                   : cx3-15-13.cx3.hpc.ic.ac.uk
          coordinate file            : Ni_Ph2OMe_C4_3.xyz
          omp threads                :                     1

   ID    Z sym.   atoms
    1   28 Ni     1, 73, 153
    2    6 C      2-6, 8-11, 13-21, 23-27, 29-33, 36, 37, 39-43, 45, 74-78,
                  80-83, 85-93, 95-99, 101-105, 108, 109, 111-115, 117,
                  145-152, 154-158, 160-163, 165-173, 175-179, 181-185, 188,
                  189, 191-195, 197
    3    7 N      7, 12, 34, 35, 79, 84, 106, 107, 159, 164, 186, 187
    4    8 O      22, 28, 38, 44, 94, 100, 110, 116, 174, 180, 190, 196
    5    1 H      46-72, 118-144, 198-223

molecular fragmentation (1/2 indicates fragments):
111111111111111111111111111111111111111111111111111111111111111111111111
222222222222222222222222222222222222222222222222222222222222222222222222
222222222222222222222222222222222222222222222222222222222222222222222222
2222222
# atoms in fragment 1/2:    72   151
 fragment masses (1/2) :      638.32     1371.72
CMA distance (Bohr)    :  41.714
constraining FC (au)   :  0.0500
########################################################################
[WARNING] Please study the warnings concerning your input carefully
-1- prog_main_parseArguments: Unknown option '-T' provided
########################################################################

           -------------------------------------------------
          |                 G F N 1 - x T B                 |
           -------------------------------------------------

        Reference                      10.1021/acs.jctc.7b00118
      * Hamiltonian:
        H0-scaling (s, p, d)           1.850000    2.250000    2.000000
        zeta-weighting                 0.000000
      * Dispersion:
        s8                             2.400000
        a1                             0.630000
        a2                             5.000000
        s9                             0.000000
      * Repulsion:
        kExp                           1.500000
        rExp                           1.000000
      * Coulomb:
        alpha                          2.000000
        third order                    atomic
        anisotropic                    false
      * Halogen bond correction:
        rad-scale                      1.300000
        damping                        0.440000


          ...................................................
          :                      SETUP                      :
          :.................................................:
          :  # basis functions                 750          :
          :  # atomic orbitals                 747          :
          :  # shells                          449          :
          :  # electrons                       706          :
          :  # halogen bonds                     0          :
          :  max. iterations                   250          :
          :  Hamiltonian                  GFN1-xTB          :
          :  restarted?                      false          :
          :  GBSA solvation                  false          :
          :  PC potential                    false          :
          :  electronic temp.          300.0000000     K    :
          :  accuracy                    1.0000000          :
          :  -> integral cutoff          0.2500000E+02      :
          :  -> integral neglect         0.1000000E-07      :
          :  -> SCF convergence          0.1000000E-05 Eh   :
          :  -> wf. convergence          0.2000000E-04 e    :
          :  Broyden damping             0.4000000          :
          ...................................................

 iter      E             dE          RMSdq      gap      omega  full diag
   1   -398.4161879 -0.398416E+03  0.101E+01    0.25       0.0  T
   2   -362.0593769  0.363568E+02  0.842E+00    0.11       1.0  T
   3   -277.5629824  0.844964E+02  0.929E+00    0.10       1.0  T
   4    377.1255590  0.654689E+03  0.140E+01    0.09       1.0  T
   5   1255.8885692  0.878763E+03  0.165E+01    0.05       1.0  T
   6    723.8529974 -0.532036E+03  0.141E+01    0.06       1.0  T
   7   -202.9531517 -0.926806E+03  0.820E+00    0.00       1.0  T
   8   -378.9507697 -0.175998E+03  0.502E+00    0.06       1.0  T
   9   -389.7572946 -0.108065E+02  0.399E+00    0.06       1.0  T
  10   -394.2262404 -0.446895E+01  0.335E+00    0.10       1.0  T
  11   -396.6323342 -0.240609E+01  0.283E+00    0.01       1.0  T
  12   -396.4065547  0.225780E+00  0.280E+00    0.06       1.0  T
  13   -396.6204017 -0.213847E+00  0.243E+00    0.14       1.0  T
  14   -398.2007056 -0.158030E+01  0.188E+00    0.10       1.0  T
  15   -396.0750252  0.212568E+01  0.211E+00    0.05       1.0  T
  16   -396.0789114 -0.388621E-02  0.211E+00    0.06       1.0  T
  17   -396.1037313 -0.248199E-01  0.212E+00    0.06       1.0  T
  18   -396.2952806 -0.191549E+00  0.206E+00    0.12       1.0  T
  19   -396.6651863 -0.369906E+00  0.184E+00    0.03       1.0  T
  20   -393.8246056  0.284058E+01  0.185E+00    0.02       1.0  T
  21   -393.0539876  0.770618E+00  0.181E+00    0.00       1.0  T
  22   -393.4915034 -0.437516E+00  0.177E+00    0.01       1.0  T
  23   -394.5413463 -0.104984E+01  0.192E+00    0.01       1.0  T
  24   -396.6451204 -0.210377E+01  0.135E+00    0.03       1.0  T
  25   -398.6498998 -0.200478E+01  0.994E-01    0.05       1.0  T
  26   -398.9853868 -0.335487E+00  0.885E-01    0.17       1.0  T
  27   -399.4184328 -0.433046E+00  0.840E-01    0.15       1.0  T
  28   -399.3503235  0.681093E-01  0.737E-01    0.01       1.0  T
  29   -399.4568172 -0.106494E+00  0.714E-01    0.22       1.0  T
  30   -399.4735929 -0.167757E-01  0.663E-01    0.16       1.0  T
  31   -399.5073321 -0.337392E-01  0.534E-01    0.12       1.0  T
  32   -399.5165571 -0.922496E-02  0.496E-01    0.12       1.0  T
  33   -399.5118799  0.467719E-02  0.431E-01    0.07       1.0  T
  34   -399.5487163 -0.368365E-01  0.377E-01    0.13       1.0  T
  35   -399.5550330 -0.631667E-02  0.356E-01    0.11       1.0  T
  36   -399.5649633 -0.993029E-02  0.324E-01    0.12       1.0  T
  37   -399.5741119 -0.914859E-02  0.297E-01    0.13       1.0  T
  38   -399.5821931 -0.808122E-02  0.280E-01    0.14       1.0  T
  39   -399.5916134 -0.942024E-02  0.253E-01    0.15       1.0  T
  40   -399.6057650 -0.141517E-01  0.199E-01    0.14       1.0  T
  41   -399.6099082 -0.414318E-02  0.181E-01    0.14       1.0  T
  42   -399.6103929 -0.484720E-03  0.179E-01    0.13       1.0  T
  43   -399.6124143 -0.202138E-02  0.163E-01    0.14       1.0  T
  44   -399.6157453 -0.333094E-02  0.143E-01    0.13       1.0  T
  45   -399.6189858 -0.324053E-02  0.107E-01    0.16       1.0  T
  46   -399.6200934 -0.110765E-02  0.961E-02    0.15       1.0  T
  47   -399.6224269 -0.233348E-02  0.766E-02    0.14       1.0  T
  48   -399.6248036 -0.237667E-02  0.535E-02    0.13       1.0  T
  49   -399.6256597 -0.856107E-03  0.417E-02    0.12       1.0  T
  50   -399.6253741  0.285584E-03  0.449E-02    0.14       1.0  T
  51   -399.6258741 -0.499936E-03  0.383E-02    0.13       1.0  T
  52   -399.6261086 -0.234572E-03  0.349E-02    0.13       1.0  T
  53   -399.6262971 -0.188440E-03  0.314E-02    0.13       1.0  T
  54   -399.6265050 -0.207901E-03  0.276E-02    0.12       1.0  T
  55   -399.6268044 -0.299449E-03  0.198E-02    0.12       1.0  T
  56   -399.6268406 -0.361765E-04  0.184E-02    0.12       1.0  T
  57   -399.6269079 -0.672729E-04  0.154E-02    0.11       1.0  T
  58   -399.6269315 -0.236394E-04  0.145E-02    0.12       1.0  T
  59   -399.6269729 -0.414443E-04  0.124E-02    0.12       1.0  T
  60   -399.6269939 -0.209649E-04  0.110E-02    0.12       1.0  T
  61   -399.6270164 -0.224874E-04  0.964E-03    0.12       1.0  T
  62   -399.6270347 -0.183190E-04  0.813E-03    0.12       1.0  T
  63   -399.6270599 -0.251552E-04  0.542E-03    0.12       1.2  T
  64   -399.6270660 -0.615435E-05  0.399E-03    0.11       1.7  T
  65   -399.6270707 -0.465275E-05  0.319E-03    0.12       2.1  T
  66   -399.6270761 -0.537164E-05  0.208E-03    0.12       3.2  T
  67   -399.6270783 -0.220388E-05  0.135E-03    0.12       5.0  T
  68   -399.6270793 -0.102808E-05  0.887E-04    0.12       7.6  T
  69   -399.6270797 -0.416459E-06  0.503E-04    0.12      13.3  T
  70   -399.6270798 -0.579184E-07  0.429E-04    0.12      15.6  T
  71   -399.6270798 -0.225315E-07  0.371E-04    0.12      18.0  T
  72   -399.6270798 -0.157298E-07  0.323E-04    0.12      20.7  T
  73   -399.6270798 -0.556452E-08  0.287E-04    0.12      23.3  T
  74   -399.6270798 -0.660498E-08  0.243E-04    0.12      27.6  T
  75   -399.6270798 -0.127250E-07  0.176E-04    0.12      38.2  T
  76   -399.6270798 -0.679432E-08  0.143E-04    0.12      46.7  T

   *** convergence criteria satisfied after 76 iterations ***

         #    Occupation            Energy/Eh            Energy/eV
      -------------------------------------------------------------
         1        2.0000           -0.7977614             -21.7082
       ...           ...                  ...                  ...
       347        2.0000           -0.3752841             -10.2120
       348        2.0000           -0.3747487             -10.1974
       349        2.0000           -0.3735974             -10.1661
       350        2.0000           -0.3730784             -10.1520
       351        2.0000           -0.3717016             -10.1145
       352        2.0000           -0.3705365             -10.0828
       353        1.7348           -0.3566561              -9.7051 (HOMO)
       354        0.1364           -0.3523873              -9.5889 (LUMO)
       355        0.1288           -0.3523291              -9.5874
       356                         -0.3271503              -8.9022
       357                         -0.3259307              -8.8690
       358                         -0.3215678              -8.7503
       ...                                ...                  ...
       747                          1.2783434              34.7855
      -------------------------------------------------------------
                  HL-Gap            0.0042688 Eh            0.1162 eV
             Fermi-level           -0.3548716 Eh           -9.6565 eV

 SCC (total)                   0 d,  0 h,  0 min, 24.581 sec
 SCC setup                      ...        0 min,  0.020 sec (  0.083%)
 Dispersion                     ...        0 min,  0.017 sec (  0.067%)
 classical contributions        ...        0 min,  0.005 sec (  0.021%)
 integral evaluation            ...        0 min,  0.452 sec (  1.838%)
 iterations                     ...        0 min, 23.044 sec ( 93.748%)
 molecular gradient             ...        0 min,  0.994 sec (  4.043%)
 printout                       ...        0 min,  0.049 sec (  0.199%)

         :::::::::::::::::::::::::::::::::::::::::::::::::::::
         ::                     SUMMARY                     ::
         :::::::::::::::::::::::::::::::::::::::::::::::::::::
         :: total energy            -394.557909365566 Eh    ::
         :: gradient norm              0.645749777838 Eh/a0 ::
         :: HOMO-LUMO gap              0.116158888880 eV    ::
         ::.................................................::
         :: SCC energy              -399.627079828457 Eh    ::
         :: -> electrostatic           0.588995787396 Eh    ::
         :: repulsion energy           5.260369017861 Eh    ::
         :: dispersion energy         -0.191198554970 Eh    ::
         :: halogen bond corr.         0.000000000000 Eh    ::
         :: add. restraining           0.000000000000 Eh    ::
         :: total charge              -0.000000000002 e     ::
         :::::::::::::::::::::::::::::::::::::::::::::::::::::

      ----------------------------------------------------------- 
     |                   =====================                   |
     |                        A N C O P T                        |
     |                   =====================                   |
     |               Approximate Normal Coordinate               |
     |                Rational Function Optimizer                |
      ----------------------------------------------------------- 

          ...................................................
          :                      SETUP                      :
          :.................................................:
          :   optimization level            normal          :
          :   max. optcycles                   669          :
          :   ANC micro-cycles                  20          :
          :   degrees of freedom               663          :
          :.................................................:
          :   RF solver                   davidson          :
          :   write xtbopt.log                true          :
          :   linear?                        false          :
          :   energy convergence         0.5000000E-05 Eh   :
          :   grad. convergence          0.1000000E-02 Eh/α :
          :   maximium RF displ.         1.0000000          :
          :   Hlow (freq-cutoff)         0.1000000E-01      :
          :   Hmax (freq-cutoff)         5.0000000          :
          :   S6 in model hess.         20.0000000          :
          ...................................................

generating ANC from model Hessian ...
Using Lindh-Hessian (1995)
 Shifting diagonal of input Hessian by    1.0027344940773565E-002
 Lowest  eigenvalues of input Hessian
    0.010000    0.010000    0.010006    0.010009    0.010013    0.010019
    0.010021    0.010023    0.010024    0.000000    0.000000    0.000000
    0.000000    0.000000    0.000000    0.010028    0.010095    0.010099
 Highest eigenvalues
    2.098101    2.101199    2.102790    2.102791    2.440043    2.538064


........................................................................
.............................. CYCLE    1 ..............................
........................................................................
   1   -399.6270798 -0.399627E+03  0.122E-04    0.12       0.0  T
   2   -399.6270795  0.318348E-06  0.548E-04    0.12      12.2  T
   3   -399.6270798 -0.299534E-06  0.206E-04    0.12      32.5  T
   4   -399.6270795  0.306758E-06  0.527E-04    0.12      12.7  T
   5   -399.6270798 -0.324462E-06  0.136E-04    0.12      49.2  T
   6   -399.6270798 -0.144477E-07  0.471E-05    0.12     142.3  T
     SCC iter.                  ...        0 min,  1.378 sec
     gradient                   ...        0 min,  0.986 sec
 * total energy  :  -394.5579094 Eh     change       -0.1871570E-07 Eh
   gradient norm :     0.6457454 Eh/α   predicted     0.0000000E+00 (-100.00%)
   displ. norm   :     0.5029369 α      lambda       -0.2660716E+00
   maximum displ.:     0.1366976 α      in ANC's #558, #565, #366, ...

........................................................................
.............................. CYCLE    2 ..............................
........................................................................
   1   -399.7845909 -0.399785E+03  0.152E-01    0.19       0.0  T
   2   -399.6284357  0.156155E+00  0.404E-01    0.01       1.0  T
   3   -399.7783207 -0.149885E+00  0.148E-01    0.39       1.0  T
   4   -399.7876560 -0.933522E-02  0.959E-02    0.22       1.0  T
   5   -399.7889569 -0.130091E-02  0.669E-02    0.25       1.0  T
   6   -399.7910970 -0.214015E-02  0.428E-02    0.19       1.0  T
   7   -399.7920643 -0.967225E-03  0.311E-02    0.16       1.0  T
   8   -399.7921984 -0.134196E-03  0.184E-02    0.15       1.0  T
   9   -399.7915413  0.657157E-03  0.289E-02    0.14       1.0  T
  10   -399.7924002 -0.858881E-03  0.846E-03    0.15       1.0  T
  11   -399.7924061 -0.589668E-05  0.534E-03    0.15       1.3  T
  12   -399.7924252 -0.191797E-04  0.284E-03    0.15       2.4  T
  13   -399.7924319 -0.662760E-05  0.106E-03    0.15       6.3  T
  14   -399.7924328 -0.940979E-06  0.356E-04    0.15      18.8  T
  15   -399.7924329 -0.768009E-07  0.154E-04    0.15      43.4  T
  16   -399.7924329 -0.223817E-07  0.589E-05    0.15     113.7  T
     SCC iter.                  ...        0 min,  3.556 sec
     gradient                   ...        0 min,  0.990 sec
 * total energy  :  -394.7780120 Eh     change       -0.2201026E+00 Eh
   gradient norm :     0.3996612 Eh/α   predicted    -0.1667157E+00 ( -24.26%)
   displ. norm   :     0.5859429 α      lambda       -0.1991270E+00
   maximum displ.:     0.1415728 α      in ANC's #558, #565, #366, ...

........................................................................
.............................. CYCLE    3 ..............................
........................................................................
   1   -400.0493868 -0.400049E+03  0.181E-01    0.24       0.0  T
   2   -400.0216190  0.277678E-01  0.282E-01    0.18       1.0  T
   3   -400.0544817 -0.328627E-01  0.115E-01    0.18       1.0  T
   4   -400.0586173 -0.413560E-02  0.664E-02    0.22       1.0  T
   5   -400.0583146  0.302670E-03  0.594E-02    0.14       1.0  T
   6   -400.0604886 -0.217399E-02  0.298E-02    0.23       1.0  T
   7   -400.0609094 -0.420796E-03  0.151E-02    0.22       1.0  T
   8   -400.0611034 -0.193993E-03  0.821E-03    0.21       1.0  T
   9   -400.0611301 -0.266609E-04  0.410E-03    0.20       1.6  T
  10   -400.0611455 -0.153684E-04  0.210E-03    0.19       3.2  T
  11   -400.0611466 -0.110140E-05  0.115E-03    0.20       5.8  T
  12   -400.0611474 -0.800836E-06  0.568E-04    0.19      11.8  T
  13   -400.0611474 -0.704239E-07  0.329E-04    0.20      20.3  T
  14   -400.0611475 -0.932768E-07  0.967E-05    0.19      69.3  T
  15   -400.0611475 -0.460426E-08  0.440E-05    0.19     152.2  T
     SCC iter.                  ...        0 min,  3.367 sec
     gradient                   ...        0 min,  1.186 sec
 * total energy  :  -394.8542139 Eh     change       -0.7620198E-01 Eh
   gradient norm :     0.3964298 Eh/α   predicted    -0.1337616E+00 (  75.54%)
   displ. norm   :     0.4409655 α      lambda       -0.1000051E+00
   maximum displ.:     0.1122418 α      in ANC's #141, #431, #140, ...

........................................................................
.............................. CYCLE    4 ..............................
........................................................................
   1   -400.0440561 -0.400044E+03  0.968E-02    0.22       0.0  T
   2   -400.0075204  0.365357E-01  0.285E-01    0.11       1.0  T
   3   -400.0482396 -0.407192E-01  0.409E-02    0.22       1.0  T
   4   -400.0264699  0.217696E-01  0.143E-01    0.07       1.0  T
   5   -400.0484008 -0.219309E-01  0.298E-02    0.20       1.0  T
   6   -400.0484680 -0.671372E-04  0.256E-02    0.23       1.0  T
   7   -400.0487044 -0.236426E-03  0.154E-02    0.22       1.0  T
   8   -400.0488573 -0.152942E-03  0.964E-03    0.20       1.0  T
   9   -400.0489264 -0.690829E-04  0.423E-03    0.19       1.6  T
  10   -400.0489421 -0.156301E-04  0.202E-03    0.19       3.3  T
  11   -400.0489402  0.183249E-05  0.200E-03    0.18       3.4  T
  12   -400.0489431 -0.284086E-05  0.813E-04    0.18       8.2  T
  13   -400.0489437 -0.681628E-06  0.213E-04    0.19      31.5  T
  14   -400.0489438 -0.193278E-07  0.126E-04    0.19      53.2  T
  15   -400.0489438 -0.127135E-07  0.411E-05    0.19     162.8  T
     SCC iter.                  ...        0 min,  4.491 sec
     gradient                   ...        0 min,  1.374 sec
 * total energy  :  -394.9026623 Eh     change       -0.4844837E-01 Eh
   gradient norm :     0.1038014 Eh/α   predicted    -0.5972561E-01 (  23.28%)
   displ. norm   :     0.6421212 α      lambda       -0.3170787E-01
   maximum displ.:     0.2078630 α      in ANC's #141, #86, #89, ...

........................................................................
.............................. CYCLE    5 ..............................
........................................................................
   1   -400.1215134 -0.400122E+03  0.407E-02    0.20       0.0  T
   2   -400.1213832  0.130193E-03  0.347E-02    0.19       1.0  T
   3   -400.1216388 -0.255599E-03  0.264E-02    0.20       1.0  T
   4   -400.1218717 -0.232952E-03  0.171E-02    0.20       1.0  T
   5   -400.1219817 -0.109963E-03  0.788E-03    0.19       1.0  T
   6   -400.1219696  0.120728E-04  0.722E-03    0.21       1.0  T
   7   -400.1220026 -0.329679E-04  0.248E-03    0.19       2.7  T
   8   -400.1220068 -0.417895E-05  0.710E-04    0.20       9.4  T
   9   -400.1220071 -0.320091E-06  0.488E-04    0.20      13.7  T
  10   -400.1220072 -0.140516E-06  0.195E-04    0.20      34.4  T
  11   -400.1220072 -0.134543E-07  0.101E-04    0.20      66.0  T
     SCC iter.                  ...        0 min,  3.755 sec
     gradient                   ...        0 min,  0.981 sec
 * total energy  :  -394.9275881 Eh     change       -0.2492580E-01 Eh
   gradient norm :     0.0609211 Eh/α   predicted    -0.2239084E-01 ( -10.17%)
   displ. norm   :     0.7666684 α      lambda       -0.2459584E-01
   maximum displ.:     0.2254318 α      in ANC's #13, #86, #89, ...

........................................................................
.............................. CYCLE    6 ..............................
........................................................................
   1   -400.1807212 -0.400181E+03  0.353E-02    0.26       0.0  T
   2   -400.1800899  0.631273E-03  0.434E-02    0.18       1.0  T
   3   -400.1810170 -0.927085E-03  0.170E-02    0.26       1.0  T
   4   -400.1811472 -0.130148E-03  0.104E-02    0.22       1.0  T
   5   -400.1811758 -0.286560E-04  0.746E-03    0.23       1.0  T
   6   -400.1811883 -0.125136E-04  0.449E-03    0.22       1.5  T
   7   -400.1811949 -0.660163E-05  0.165E-03    0.22       4.1  T
   8   -400.1811968 -0.187016E-05  0.385E-04    0.23      17.4  T
   9   -400.1811969 -0.731773E-07  0.175E-04    0.23      38.2  T
  10   -400.1811969 -0.184551E-07  0.958E-05    0.23      69.9  T
     SCC iter.                  ...        0 min,  3.046 sec
     gradient                   ...        0 min,  1.276 sec
 * total energy  :  -394.9467641 Eh     change       -0.1917603E-01 Eh
   gradient norm :     0.0403174 Eh/α   predicted    -0.1952643E-01 (   1.83%)
   displ. norm   :     0.8325843 α      lambda       -0.1906394E-01
   maximum displ.:     0.2920895 α      in ANC's #13, #36, #86, ...

........................................................................
.............................. CYCLE    7 ..............................
........................................................................
   1   -400.1975879 -0.400198E+03  0.446E-02    0.32       0.0  T
   2   -400.1953056  0.228230E-02  0.945E-02    0.28       1.0  T
   3   -400.1986526 -0.334707E-02  0.193E-02    0.28       1.0  T
   4   -400.1986190  0.335951E-04  0.177E-02    0.30       1.0  T
   5   -400.1987431 -0.124084E-03  0.545E-03    0.29       1.2  T
   6   -400.1987474 -0.423399E-05  0.395E-03    0.29       1.7  T
   7   -400.1987542 -0.678600E-05  0.874E-04    0.29       7.7  T
   8   -400.1987546 -0.453519E-06  0.464E-04    0.29      14.4  T
   9   -400.1987547 -0.892622E-07  0.155E-04    0.29      43.1  T
  10   -400.1987547 -0.959045E-08  0.777E-05    0.29      86.1  T
     SCC iter.                  ...        0 min,  2.974 sec
     gradient                   ...        0 min,  1.184 sec
 * total energy  :  -394.9634821 Eh     change       -0.1671799E-01 Eh
   gradient norm :     0.0470393 Eh/α   predicted    -0.1613950E-01 (  -3.46%)
   displ. norm   :     0.9198921 α      lambda       -0.2128173E-01
   maximum displ.:     0.3704766 α      in ANC's #13, #36, #86, ...

........................................................................
.............................. CYCLE    8 ..............................
........................................................................
   1   -400.1950092 -0.400195E+03  0.553E-02    0.46       0.0  T
   2   -400.1934188  0.159041E-02  0.970E-02    0.43       1.0  T
   3   -400.1965707 -0.315191E-02  0.234E-02    0.43       1.0  T
   4   -400.1965301  0.406375E-04  0.195E-02    0.45       1.0  T
   5   -400.1966608 -0.130678E-03  0.560E-03    0.45       1.2  T
   6   -400.1966636 -0.277045E-05  0.348E-03    0.45       1.9  T
   7   -400.1966706 -0.704472E-05  0.788E-04    0.45       8.5  T
   8   -400.1966711 -0.461823E-06  0.405E-04    0.45      16.5  T
   9   -400.1966711 -0.621336E-07  0.136E-04    0.45      49.1  T
  10   -400.1966711 -0.455520E-08  0.830E-05    0.45      80.6  T
     SCC iter.                  ...        0 min,  2.350 sec
     gradient                   ...        0 min,  0.984 sec
 * total energy  :  -394.9836155 Eh     change       -0.2013337E-01 Eh
   gradient norm :     0.0823791 Eh/α   predicted    -0.1964519E-01 (  -2.42%)
   displ. norm   :     0.8953670 α      lambda       -0.2544892E-01
   maximum displ.:     0.3341347 α      in ANC's #13, #36, #86, ...

........................................................................
.............................. CYCLE    9 ..............................
........................................................................
   1   -400.1627030 -0.400163E+03  0.676E-02    0.76       0.0  T
   2   -400.1621465  0.556544E-03  0.915E-02    0.74       1.0  T
   3   -400.1646799 -0.253339E-02  0.250E-02    0.75       1.0  T
   4   -400.1646299  0.499754E-04  0.177E-02    0.78       1.0  T
   5   -400.1647119 -0.819917E-04  0.861E-03    0.76       1.0  T
   6   -400.1647364 -0.245581E-04  0.291E-03    0.78       2.3  T
   7   -400.1647410 -0.455346E-05  0.814E-04    0.77       8.2  T
   8   -400.1647413 -0.358880E-06  0.418E-04    0.77      16.0  T
   9   -400.1647414 -0.950928E-07  0.210E-04    0.77      31.9  T
  10   -400.1647415 -0.223805E-07  0.920E-05    0.77      72.8  T
  11   -400.1647415 -0.383221E-08  0.291E-05    0.77     229.8  T
     SCC iter.                  ...        0 min,  2.465 sec
     gradient                   ...        0 min,  0.989 sec
 * total energy  :  -395.0087658 Eh     change       -0.2515033E-01 Eh
   gradient norm :     0.0934853 Eh/α   predicted    -0.2292543E-01 (  -8.85%)
   displ. norm   :     0.8707948 α      lambda       -0.3534386E-01
   maximum displ.:     0.2926030 α      in ANC's #13, #36, #86, ...

........................................................................
.............................. CYCLE   10 ..............................
........................................................................
   1   -400.1034384 -0.400103E+03  0.878E-02    1.29       0.0  T
   2   -400.1042506 -0.812208E-03  0.917E-02    1.32       1.0  T
   3   -400.1060001 -0.174951E-02  0.348E-02    1.32       1.0  T
   4   -400.1058607  0.139391E-03  0.217E-02    1.33       1.0  T
   5   -400.1059496 -0.889182E-04  0.113E-02    1.33       1.0  T
   6   -400.1060273 -0.777059E-04  0.263E-03    1.33       2.6  T
   7   -400.1060305 -0.317085E-05  0.876E-04    1.33       7.6  T
   8   -400.1060308 -0.318880E-06  0.477E-04    1.33      14.0  T
   9   -400.1060309 -0.130303E-06  0.237E-04    1.33      28.3  T
  10   -400.1060310 -0.257866E-07  0.749E-05    1.33      89.4  T
  11   -400.1060310 -0.278828E-08  0.370E-05    1.33     181.0  T
     SCC iter.                  ...        0 min,  2.457 sec
     gradient                   ...        0 min,  1.015 sec
 * total energy  :  -395.0306648 Eh     change       -0.2189899E-01 Eh
   gradient norm :     0.1213104 Eh/α   predicted    -0.3107226E-01 (  41.89%)
   displ. norm   :     0.7796570 α      lambda       -0.2685993E-01
   maximum displ.:     0.2533735 α      in ANC's #36, #15, #12, ...

........................................................................
.............................. CYCLE   11 ..............................
........................................................................
   1   -400.1090838 -0.400109E+03  0.320E-02    1.31       0.0  T
   2   -400.1091551 -0.712913E-04  0.304E-02    1.31       1.0  T
   3   -400.1093200 -0.164919E-03  0.106E-02    1.31       1.0  T
   4   -400.1092942  0.257537E-04  0.785E-03    1.31       1.0  T
   5   -400.1093186 -0.243364E-04  0.271E-03    1.31       2.5  T
   6   -400.1093241 -0.550306E-05  0.678E-04    1.31       9.9  T
   7   -400.1093242 -0.168329E-06  0.218E-04    1.31      30.8  T
   8   -400.1093242 -0.196512E-07  0.983E-05    1.31      68.1  T
   9   -400.1093242 -0.316749E-08  0.510E-05    1.31     131.3  T
     SCC iter.                  ...        0 min,  2.230 sec
     gradient                   ...        0 min,  1.191 sec
 * total energy  :  -395.0466768 Eh     change       -0.1601198E-01 Eh
   gradient norm :     0.1206488 Eh/α   predicted    -0.2159359E-01 (  34.86%)
   displ. norm   :     0.6102378 α      lambda       -0.3737247E-01
   maximum displ.:     0.1809913 α      in ANC's #13, #36, #169, ...

........................................................................
.............................. CYCLE   12 ..............................
........................................................................
   1   -400.1590903 -0.400159E+03  0.542E-02    1.35       0.0  T
   2   -400.1593651 -0.274858E-03  0.477E-02    1.35       1.0  T
   3   -400.1596956 -0.330459E-03  0.229E-02    1.35       1.0  T
   4   -400.1594942  0.201362E-03  0.194E-02    1.35       1.0  T
   5   -400.1597094 -0.215181E-03  0.456E-03    1.35       1.5  T
   6   -400.1597224 -0.129717E-04  0.135E-03    1.35       4.9  T
   7   -400.1597237 -0.131070E-05  0.552E-04    1.35      12.1  T
   8   -400.1597239 -0.228457E-06  0.200E-04    1.35      33.5  T
   9   -400.1597239 -0.165684E-07  0.871E-05    1.35      76.9  T
  10   -400.1597239 -0.338656E-08  0.380E-05    1.35     176.3  T
     SCC iter.                  ...        0 min,  3.083 sec
     gradient                   ...        0 min,  1.131 sec
 * total energy  :  -395.0693579 Eh     change       -0.2268108E-01 Eh
   gradient norm :     0.0883231 Eh/α   predicted    -0.2564478E-01 (  13.07%)
   displ. norm   :     0.8149507 α      lambda       -0.3613181E-01
   maximum displ.:     0.3639389 α      in ANC's #13, #36, #86, ...

........................................................................
.............................. CYCLE   13 ..............................
........................................................................
   1   -400.1689490 -0.400169E+03  0.447E-02    1.32       0.0  T
   2   -400.1690809 -0.131853E-03  0.461E-02    1.31       1.0  T
   3   -400.1693298 -0.248931E-03  0.229E-02    1.32       1.0  T
   4   -400.1691833  0.146480E-03  0.151E-02    1.31       1.0  T
   5   -400.1693278 -0.144464E-03  0.304E-03    1.31       2.2  T
   6   -400.1693359 -0.817331E-05  0.104E-03    1.31       6.4  T
   7   -400.1693366 -0.645022E-06  0.513E-04    1.31      13.1  T
   8   -400.1693368 -0.202636E-06  0.152E-04    1.31      44.0  T
   9   -400.1693368 -0.120515E-07  0.683E-05    1.31      98.0  T
     SCC iter.                  ...        0 min,  3.444 sec
     gradient                   ...        0 min,  1.181 sec
 * total energy  :  -395.0984086 Eh     change       -0.2905071E-01 Eh
   gradient norm :     0.0791906 Eh/α   predicted    -0.3006429E-01 (   3.49%)
   displ. norm   :     0.8212140 α      lambda       -0.3196355E-01
   maximum displ.:     0.3020465 α      in ANC's #13, #36, #38, ...

........................................................................
.............................. CYCLE   14 ..............................
........................................................................
   1   -400.1904867 -0.400190E+03  0.633E-02    1.22       0.0  T
   2   -400.1906897 -0.202945E-03  0.668E-02    1.22       1.0  T
   3   -400.1913765 -0.686797E-03  0.294E-02    1.22       1.0  T
   4   -400.1909291  0.447331E-03  0.269E-02    1.22       1.0  T
   5   -400.1913816 -0.452456E-03  0.558E-03    1.22       1.2  T
   6   -400.1913973 -0.156895E-04  0.127E-03    1.22       5.3  T
   7   -400.1913981 -0.778383E-06  0.799E-04    1.22       8.4  T
   8   -400.1913986 -0.507406E-06  0.186E-04    1.22      36.0  T
   9   -400.1913986 -0.143026E-07  0.851E-05    1.22      78.7  T
     SCC iter.                  ...        0 min,  2.536 sec
     gradient                   ...        0 min,  1.280 sec
 * total energy  :  -395.1097805 Eh     change       -0.1137195E-01 Eh
   gradient norm :     0.1151553 Eh/α   predicted    -0.2675977E-01 ( 135.31%)
   displ. norm   :     0.6193049 α      lambda       -0.3042090E-01
   maximum displ.:     0.3066339 α      in ANC's #13, #36, #51, ...

........................................................................
.............................. CYCLE   15 ..............................
........................................................................
   1   -400.2219899 -0.400222E+03  0.315E-02    1.28       0.0  T
   2   -400.2220626 -0.726482E-04  0.307E-02    1.27       1.0  T
   3   -400.2222559 -0.193393E-03  0.133E-02    1.27       1.0  T
   4   -400.2221581  0.978414E-04  0.130E-02    1.27       1.0  T
   5   -400.2222600 -0.101862E-03  0.354E-03    1.27       1.9  T
   6   -400.2222653 -0.529126E-05  0.912E-04    1.27       7.3  T
   7   -400.2222660 -0.706907E-06  0.254E-04    1.27      26.4  T
   8   -400.2222660 -0.406592E-07  0.999E-05    1.27      67.0  T
   9   -400.2222660 -0.346330E-08  0.438E-05    1.27     153.1  T
     SCC iter.                  ...        0 min,  2.696 sec
     gradient                   ...        0 min,  1.264 sec
 * total energy  :  -395.1292427 Eh     change       -0.1946213E-01 Eh
   gradient norm :     0.0410036 Eh/α   predicted    -0.2104426E-01 (   8.13%)
   displ. norm   :     0.8275063 α      lambda       -0.1836297E-01
   maximum displ.:     0.4211989 α      in ANC's #13, #36, #51, ...

........................................................................
.............................. CYCLE   16 ..............................
........................................................................
   1   -400.2537597 -0.400254E+03  0.145E-02    1.25       0.0  T
   2   -400.2537641 -0.442904E-05  0.125E-02    1.26       1.0  T
   3   -400.2538103 -0.461685E-04  0.530E-03    1.25       1.3  T
   4   -400.2538015  0.884950E-05  0.494E-03    1.26       1.4  T
   5   -400.2538147 -0.132478E-04  0.107E-03    1.26       6.3  T
   6   -400.2538153 -0.582486E-06  0.303E-04    1.26      22.1  T
   7   -400.2538154 -0.547942E-07  0.157E-04    1.26      42.6  T
   8   -400.2538154 -0.175689E-07  0.615E-05    1.26     108.9  T
     SCC iter.                  ...        0 min,  1.987 sec
     gradient                   ...        0 min,  1.008 sec
 * total energy  :  -395.1442270 Eh     change       -0.1498431E-01 Eh
   gradient norm :     0.0444347 Eh/α   predicted    -0.1546866E-01 (   3.23%)
   displ. norm   :     0.8851167 α      lambda       -0.1981866E-01
   maximum displ.:     0.4943253 α      in ANC's #13, #36, #51, ...

........................................................................
.............................. CYCLE   17 ..............................
........................................................................
   1   -400.2980547 -0.400298E+03  0.150E-02    1.20       0.0  T
   2   -400.2980715 -0.168374E-04  0.115E-02    1.22       1.0  T
   3   -400.2981034 -0.318544E-04  0.563E-03    1.21       1.2  T
   4   -400.2981004  0.295308E-05  0.419E-03    1.22       1.6  T
   5   -400.2981083 -0.787261E-05  0.136E-03    1.22       4.9  T
   6   -400.2981093 -0.100499E-05  0.360E-04    1.21      18.6  T
   7   -400.2981094 -0.833880E-07  0.109E-04    1.21      61.7  T
   8   -400.2981094 -0.582770E-08  0.556E-05    1.21     120.4  T
     SCC iter.                  ...        0 min,  1.839 sec
     gradient                   ...        0 min,  0.994 sec
 * total energy  :  -395.1597165 Eh     change       -0.1548951E-01 Eh
   gradient norm :     0.0486322 Eh/α   predicted    -0.1767264E-01 (  14.09%)
   displ. norm   :     0.8635338 α      lambda       -0.1840341E-01
   maximum displ.:     0.5149894 α      in ANC's #13, #36, #14, ...

........................................................................
.............................. CYCLE   18 ..............................
........................................................................
   1   -400.3318124 -0.400332E+03  0.196E-02    1.17       0.0  T
   2   -400.3318454 -0.330501E-04  0.166E-02    1.18       1.0  T
   3   -400.3318803 -0.348906E-04  0.749E-03    1.18       1.0  T
   4   -400.3318563  0.240196E-04  0.639E-03    1.18       1.0  T
   5   -400.3318811 -0.248138E-04  0.151E-03    1.18       4.4  T
   6   -400.3318827 -0.158942E-05  0.393E-04    1.18      17.0  T
   7   -400.3318828 -0.826593E-07  0.202E-04    1.18      33.2  T
   8   -400.3318828 -0.363990E-07  0.582E-05    1.18     115.1  T
   9   -400.3318828 -0.185298E-08  0.225E-05    1.18     298.0  T
     SCC iter.                  ...        0 min,  2.009 sec
     gradient                   ...        0 min,  1.006 sec
 * total energy  :  -395.1742689 Eh     change       -0.1455247E-01 Eh
   gradient norm :     0.0470814 Eh/α   predicted    -0.1606334E-01 (  10.38%)
   displ. norm   :     0.8781168 α      lambda       -0.1687944E-01
   maximum displ.:     0.5258802 α      in ANC's #13, #36, #51, ...

........................................................................
.............................. CYCLE   19 ..............................
........................................................................
   1   -400.3463386 -0.400346E+03  0.139E-02    1.16       0.0  T
   2   -400.3463438 -0.525597E-05  0.132E-02    1.16       1.0  T
   3   -400.3463806 -0.367908E-04  0.606E-03    1.16       1.1  T
   4   -400.3463644  0.162785E-04  0.546E-03    1.16       1.2  T
   5   -400.3463821 -0.177496E-04  0.104E-03    1.16       6.4  T
   6   -400.3463828 -0.729404E-06  0.445E-04    1.16      15.1  T
   7   -400.3463830 -0.182251E-06  0.124E-04    1.16      53.8  T
   8   -400.3463830 -0.129788E-07  0.357E-05    1.16     187.8  T
     SCC iter.                  ...        0 min,  1.808 sec
     gradient                   ...        0 min,  1.028 sec
 * total energy  :  -395.1887988 Eh     change       -0.1452989E-01 Eh
   gradient norm :     0.0308314 Eh/α   predicted    -0.1494750E-01 (   2.87%)
   displ. norm   :     0.9106539 α      lambda       -0.1610112E-01
   maximum displ.:     0.5401475 α      in ANC's #13, #36, #14, ...

........................................................................
.............................. CYCLE   20 ..............................
........................................................................
   1   -400.3691670 -0.400369E+03  0.156E-02    1.17       0.0  T
   2   -400.3691940 -0.269310E-04  0.128E-02    1.16       1.0  T
   3   -400.3692122 -0.182015E-04  0.561E-03    1.16       1.2  T
   4   -400.3692014  0.107166E-04  0.438E-03    1.16       1.5  T
   5   -400.3692111 -0.971104E-05  0.147E-03    1.16       4.5  T
   6   -400.3692130 -0.180460E-05  0.278E-04    1.16      24.1  T
   7   -400.3692130 -0.519291E-07  0.113E-04    1.16      59.2  T
   8   -400.3692130 -0.659139E-08  0.401E-05    1.16     167.2  T
     SCC iter.                  ...        0 min,  2.117 sec
     gradient                   ...        0 min,  1.217 sec
 * total energy  :  -395.2025976 Eh     change       -0.1379874E-01 Eh
   gradient norm :     0.0348339 Eh/α   predicted    -0.1472680E-01 (   6.73%)
   displ. norm   :     0.9248000 α      lambda       -0.1496805E-01
   maximum displ.:     0.5739296 α      in ANC's #13, #36, #14, ...
 * RMSD in coord.:     0.7845756 α      energy gain  -0.6446882E+00 Eh

generating ANC from model Hessian ...
Using Lindh-Hessian (1995)
 Shifting diagonal of input Hessian by    1.0043436679862237E-002
 Lowest  eigenvalues of input Hessian
    0.010000    0.010015    0.010023    0.010031    0.010033    0.010037
    0.010039    0.010042    0.000000    0.000000    0.000000    0.000000
    0.000000    0.000000    0.010084    0.010096    0.010107    0.010114
 Highest eigenvalues
    2.090607    2.091270    2.140593    2.140653    2.471602    2.507473


........................................................................
.............................. CYCLE   21 ..............................
........................................................................
   1   -400.4000833 -0.400400E+03  0.114E-02    1.18       0.0  T
   2   -400.4000904 -0.711039E-05  0.868E-03    1.16       1.0  T
   3   -400.4001024 -0.120209E-04  0.429E-03    1.17       1.6  T
   4   -400.4000959  0.654758E-05  0.381E-03    1.17       1.8  T
   5   -400.4001050 -0.912798E-05  0.952E-04    1.17       7.0  T
   6   -400.4001056 -0.631622E-06  0.285E-04    1.17      23.5  T
   7   -400.4001057 -0.659344E-07  0.116E-04    1.17      57.8  T
   8   -400.4001057 -0.125374E-07  0.266E-05    1.17     252.1  T
     SCC iter.                  ...        0 min,  2.509 sec
     gradient                   ...        0 min,  1.227 sec
 * total energy  :  -395.2162571 Eh     change       -0.1365957E-01 Eh
   gradient norm :     0.0225914 Eh/α   predicted     0.0000000E+00 (-100.00%)
   displ. norm   :     0.6661374 α      lambda       -0.1004046E-01
   maximum displ.:     0.3635602 α      in ANC's #39, #22, #46, ...

........................................................................
.............................. CYCLE   22 ..............................
........................................................................
   1   -400.4244832 -0.400424E+03  0.703E-03    1.19       0.0  T
   2   -400.4244831  0.911095E-07  0.479E-03    1.18       1.4  T
   3   -400.4244904 -0.730180E-05  0.270E-03    1.19       2.5  T
   4   -400.4244917 -0.137312E-05  0.173E-03    1.19       3.9  T
   5   -400.4244929 -0.119642E-05  0.360E-04    1.19      18.6  T
   6   -400.4244930 -0.926812E-07  0.129E-04    1.19      51.9  T
   7   -400.4244930 -0.111260E-07  0.552E-05    1.19     121.4  T
     SCC iter.                  ...        0 min,  2.655 sec
     gradient                   ...        0 min,  1.209 sec
 * total energy  :  -395.2256835 Eh     change       -0.9426391E-02 Eh
   gradient norm :     0.0170012 Eh/α   predicted    -0.7247913E-02 ( -23.11%)
   displ. norm   :     0.9334568 α      lambda       -0.1331153E-01
   maximum displ.:     0.5006033 α      in ANC's #39, #22, #46, ...

........................................................................
.............................. CYCLE   23 ..............................
........................................................................
   1   -400.4539159 -0.400454E+03  0.110E-02    1.19       0.0  T
   2   -400.4539163 -0.311036E-06  0.805E-03    1.20       1.0  T
   3   -400.4539396 -0.233823E-04  0.381E-03    1.20       1.8  T
   4   -400.4539410 -0.133586E-05  0.283E-03    1.20       2.4  T
   5   -400.4539444 -0.338708E-05  0.533E-04    1.20      12.6  T
   6   -400.4539446 -0.204739E-06  0.166E-04    1.20      40.3  T
   7   -400.4539446 -0.131893E-07  0.752E-05    1.20      89.1  T
     SCC iter.                  ...        0 min,  1.861 sec
     gradient                   ...        0 min,  1.286 sec
 * total energy  :  -395.2374986 Eh     change       -0.1181509E-01 Eh
   gradient norm :     0.0206211 Eh/α   predicted    -0.1245522E-01 (   5.42%)
   displ. norm   :     0.9320196 α      lambda       -0.1333213E-01
   maximum displ.:     0.4867889 α      in ANC's #39, #22, #46, ...

........................................................................
.............................. CYCLE   24 ..............................
........................................................................
   1   -400.4780934 -0.400478E+03  0.105E-02    1.19       0.0  T
   2   -400.4780932  0.172726E-06  0.709E-03    1.19       1.0  T
   3   -400.4781134 -0.202206E-04  0.381E-03    1.19       1.8  T
   4   -400.4781175 -0.409662E-05  0.253E-03    1.19       2.6  T
   5   -400.4781195 -0.203244E-05  0.502E-04    1.19      13.3  T
   6   -400.4781197 -0.182393E-06  0.118E-04    1.19      56.7  T
   7   -400.4781197 -0.453446E-08  0.627E-05    1.19     106.7  T
     SCC iter.                  ...        0 min,  2.119 sec
     gradient                   ...        0 min,  1.285 sec
 * total energy  :  -395.2486531 Eh     change       -0.1115447E-01 Eh
   gradient norm :     0.0245835 Eh/α   predicted    -0.1245665E-01 (  11.67%)
   displ. norm   :     0.9082694 α      lambda       -0.1196812E-01
   maximum displ.:     0.4864956 α      in ANC's #39, #22, #46, ...

........................................................................
.............................. CYCLE   25 ..............................
........................................................................
   1   -400.4981673 -0.400498E+03  0.858E-03    1.19       0.0  T
   2   -400.4981660  0.132577E-05  0.584E-03    1.19       1.1  T
   3   -400.4981799 -0.139385E-04  0.359E-03    1.19       1.9  T
   4   -400.4981852 -0.525153E-05  0.204E-03    1.19       3.3  T
   5   -400.4981860 -0.800948E-06  0.507E-04    1.19      13.2  T
   6   -400.4981861 -0.185860E-06  0.116E-04    1.19      57.5  T
   7   -400.4981862 -0.444578E-08  0.753E-05    1.19      89.0  T
     SCC iter.                  ...        0 min,  2.015 sec
     gradient                   ...        0 min,  1.029 sec
 * total energy  :  -395.2595977 Eh     change       -0.1094462E-01 Eh
   gradient norm :     0.0205264 Eh/α   predicted    -0.1092063E-01 (  -0.22%)
   displ. norm   :     0.9365546 α      lambda       -0.1111383E-01
   maximum displ.:     0.5058526 α      in ANC's #39, #22, #46, ...

........................................................................
.............................. CYCLE   26 ..............................
........................................................................
   1   -400.5209364 -0.400521E+03  0.770E-03    1.18       0.0  T
   2   -400.5209366 -0.233517E-06  0.510E-03    1.18       1.3  T
   3   -400.5209466 -0.992902E-05  0.339E-03    1.18       2.0  T
   4   -400.5209520 -0.538947E-05  0.178E-03    1.18       3.8  T
   5   -400.5209524 -0.469407E-06  0.500E-04    1.18      13.4  T
   6   -400.5209526 -0.150670E-06  0.808E-05    1.18      82.9  T
   7   -400.5209526 -0.910404E-09  0.422E-05    1.18     158.8  T
     SCC iter.                  ...        0 min,  1.642 sec
     gradient                   ...        0 min,  1.000 sec
 * total energy  :  -395.2697205 Eh     change       -0.1012280E-01 Eh
   gradient norm :     0.0172795 Eh/α   predicted    -0.1043108E-01 (   3.05%)
   displ. norm   :     0.9424991 α      lambda       -0.1076344E-01
   maximum displ.:     0.5015449 α      in ANC's #39, #22, #18, ...

........................................................................
.............................. CYCLE   27 ..............................
........................................................................
   1   -400.5454039 -0.400545E+03  0.724E-03    1.17       0.0  T
   2   -400.5454041 -0.227785E-06  0.504E-03    1.17       1.3  T
   3   -400.5454152 -0.110710E-04  0.307E-03    1.17       2.2  T
   4   -400.5454195 -0.434969E-05  0.171E-03    1.17       3.9  T
   5   -400.5454200 -0.513669E-06  0.480E-04    1.17      13.9  T
   6   -400.5454202 -0.107800E-06  0.844E-05    1.17      79.3  T
   7   -400.5454202 -0.118553E-08  0.434E-05    1.17     154.2  T
     SCC iter.                  ...        0 min,  1.576 sec
     gradient                   ...        0 min,  0.994 sec
 * total energy  :  -395.2791331 Eh     change       -0.9412583E-02 Eh
   gradient norm :     0.0158819 Eh/α   predicted    -0.1016233E-01 (   7.97%)
   displ. norm   :     0.9220678 α      lambda       -0.1035245E-01
   maximum displ.:     0.4893675 α      in ANC's #39, #22, #18, ...

........................................................................
.............................. CYCLE   28 ..............................
........................................................................
   1   -400.5689108 -0.400569E+03  0.723E-03    1.16       0.0  T
   2   -400.5689096  0.120579E-05  0.537E-03    1.16       1.2  T
   3   -400.5689219 -0.123501E-04  0.313E-03    1.16       2.1  T
   4   -400.5689259 -0.394938E-05  0.178E-03    1.16       3.8  T
   5   -400.5689265 -0.636783E-06  0.493E-04    1.16      13.6  T
   6   -400.5689266 -0.108526E-06  0.123E-04    1.16      54.4  T
   7   -400.5689266 -0.757433E-08  0.739E-05    1.16      90.6  T
     SCC iter.                  ...        0 min,  1.566 sec
     gradient                   ...        0 min,  1.016 sec
 * total energy  :  -395.2877732 Eh     change       -0.8640106E-02 Eh
   gradient norm :     0.0155078 Eh/α   predicted    -0.9577099E-02 (  10.84%)
   displ. norm   :     0.9151813 α      lambda       -0.9193514E-02
   maximum displ.:     0.4830116 α      in ANC's #39, #22, #18, ...

........................................................................
.............................. CYCLE   29 ..............................
........................................................................
   1   -400.5885130 -0.400589E+03  0.721E-03    1.15       0.0  T
   2   -400.5885110  0.203793E-05  0.561E-03    1.15       1.2  T
   3   -400.5885253 -0.143361E-04  0.285E-03    1.15       2.3  T
   4   -400.5885279 -0.258429E-05  0.184E-03    1.15       3.6  T
   5   -400.5885287 -0.816644E-06  0.433E-04    1.15      15.5  T
   6   -400.5885288 -0.102553E-06  0.617E-05    1.15     108.5  T
   7   -400.5885288 -0.604643E-09  0.305E-05    1.15     219.8  T
     SCC iter.                  ...        0 min,  1.603 sec
     gradient                   ...        0 min,  1.036 sec
 * total energy  :  -395.2960898 Eh     change       -0.8316592E-02 Eh
   gradient norm :     0.0129502 Eh/α   predicted    -0.8446813E-02 (   1.57%)
   displ. norm   :     0.9310174 α      lambda       -0.8364350E-02
   maximum displ.:     0.4895052 α      in ANC's #22, #39, #18, ...

........................................................................
.............................. CYCLE   30 ..............................
........................................................................
   1   -400.6109362 -0.400611E+03  0.626E-03    1.15       0.0  T
   2   -400.6109347  0.146973E-05  0.495E-03    1.15       1.4  T
   3   -400.6109465 -0.117889E-04  0.236E-03    1.15       2.8  T
   4   -400.6109482 -0.164351E-05  0.160E-03    1.15       4.2  T
   5   -400.6109488 -0.655293E-06  0.371E-04    1.15      18.0  T
   6   -400.6109489 -0.733436E-07  0.783E-05    1.15      85.5  T
   7   -400.6109489 -0.748798E-09  0.578E-05    1.15     115.8  T
     SCC iter.                  ...        0 min,  1.974 sec
     gradient                   ...        0 min,  1.242 sec
 * total energy  :  -395.3035745 Eh     change       -0.7484674E-02 Eh
   gradient norm :     0.0124478 Eh/α   predicted    -0.7807235E-02 (   4.31%)
   displ. norm   :     0.9261969 α      lambda       -0.7774569E-02
   maximum displ.:     0.4962808 α      in ANC's #22, #39, #18, ...

........................................................................
.............................. CYCLE   31 ..............................
........................................................................
   1   -400.6363054 -0.400636E+03  0.627E-03    1.14       0.0  T
   2   -400.6363041  0.125091E-05  0.474E-03    1.15       1.4  T
   3   -400.6363128 -0.863266E-05  0.258E-03    1.15       2.6  T
   4   -400.6363152 -0.248250E-05  0.156E-03    1.14       4.3  T
   5   -400.6363158 -0.602266E-06  0.356E-04    1.15      18.8  T
   6   -400.6363159 -0.595142E-07  0.597E-05    1.15     112.1  T
   7   -400.6363159 -0.510624E-09  0.302E-05    1.14     222.1  T
     SCC iter.                  ...        0 min,  2.174 sec
     gradient                   ...        0 min,  1.617 sec
 * total energy  :  -395.3107091 Eh     change       -0.7134609E-02 Eh
   gradient norm :     0.0092118 Eh/α   predicted    -0.7221954E-02 (   1.22%)
   displ. norm   :     0.9379296 α      lambda       -0.6932554E-02
   maximum displ.:     0.5174903 α      in ANC's #22, #39, #18, ...

........................................................................
.............................. CYCLE   32 ..............................
........................................................................
   1   -400.6552702 -0.400655E+03  0.614E-03    1.14       0.0  T
   2   -400.6552685  0.169911E-05  0.480E-03    1.14       1.4  T
   3   -400.6552807 -0.121986E-04  0.229E-03    1.14       2.9  T
   4   -400.6552827 -0.200249E-05  0.148E-03    1.14       4.5  T
   5   -400.6552832 -0.476008E-06  0.348E-04    1.14      19.2  T
   6   -400.6552832 -0.493697E-07  0.721E-05    1.14      92.9  T
   7   -400.6552832 -0.790010E-09  0.343E-05    1.14     195.0  T
     SCC iter.                  ...        0 min,  2.532 sec
     gradient                   ...        0 min,  1.195 sec
 * total energy  :  -395.3171964 Eh     change       -0.6487325E-02 Eh
   gradient norm :     0.0079970 Eh/α   predicted    -0.6515603E-02 (   0.44%)
   displ. norm   :     0.9348922 α      lambda       -0.6358166E-02
   maximum displ.:     0.5343202 α      in ANC's #22, #39, #18, ...

........................................................................
.............................. CYCLE   33 ..............................
........................................................................
   1   -400.6746560 -0.400675E+03  0.584E-03    1.14       0.0  T
   2   -400.6746550  0.982572E-06  0.431E-03    1.14       1.6  T
   3   -400.6746643 -0.922076E-05  0.224E-03    1.14       3.0  T
   4   -400.6746665 -0.223167E-05  0.137E-03    1.14       4.9  T
   5   -400.6746669 -0.392901E-06  0.322E-04    1.14      20.8  T
   6   -400.6746669 -0.400551E-07  0.696E-05    1.14      96.3  T
   7   -400.6746669 -0.767841E-09  0.358E-05    1.14     186.9  T
     SCC iter.                  ...        0 min,  1.927 sec
     gradient                   ...        0 min,  1.311 sec
 * total energy  :  -395.3230986 Eh     change       -0.5902171E-02 Eh
   gradient norm :     0.0073709 Eh/α   predicted    -0.5957682E-02 (   0.94%)
   displ. norm   :     0.9260251 α      lambda       -0.5768154E-02
   maximum displ.:     0.5463871 α      in ANC's #22, #39, #18, ...

........................................................................
.............................. CYCLE   34 ..............................
........................................................................
   1   -400.6946757 -0.400695E+03  0.563E-03    1.14       0.0  T
   2   -400.6946751  0.561150E-06  0.402E-03    1.14       1.7  T
   3   -400.6946822 -0.707815E-05  0.223E-03    1.14       3.0  T
   4   -400.6946845 -0.229245E-05  0.132E-03    1.14       5.1  T
   5   -400.6946849 -0.391468E-06  0.307E-04    1.14      21.8  T
   6   -400.6946849 -0.349933E-07  0.618E-05    1.14     108.3  T
   7   -400.6946849 -0.838725E-09  0.301E-05    1.14     222.4  T
     SCC iter.                  ...        0 min,  2.125 sec
     gradient                   ...        0 min,  1.303 sec
 * total energy  :  -395.3284642 Eh     change       -0.5365665E-02 Eh
   gradient norm :     0.0066118 Eh/α   predicted    -0.5357249E-02 (  -0.16%)
   displ. norm   :     0.9238186 α      lambda       -0.5161029E-02
   maximum displ.:     0.5504814 α      in ANC's #22, #39, #18, ...

........................................................................
.............................. CYCLE   35 ..............................
........................................................................
   1   -400.7082414 -0.400708E+03  0.579E-03    1.14       0.0  T
   2   -400.7082402  0.122825E-05  0.447E-03    1.14       1.5  T
   3   -400.7082513 -0.111568E-04  0.212E-03    1.14       3.2  T
   4   -400.7082532 -0.184094E-05  0.135E-03    1.14       5.0  T
   5   -400.7082535 -0.370478E-06  0.344E-04    1.14      19.4  T
   6   -400.7082536 -0.400032E-07  0.690E-05    1.14      97.0  T
   7   -400.7082536 -0.952014E-09  0.344E-05    1.14     194.6  T
     SCC iter.                  ...        0 min,  1.961 sec
     gradient                   ...        0 min,  1.036 sec
 * total energy  :  -395.3333099 Eh     change       -0.4845711E-02 Eh
   gradient norm :     0.0058562 Eh/α   predicted    -0.4782843E-02 (  -1.30%)
   displ. norm   :     0.9116562 α      lambda       -0.4598700E-02
   maximum displ.:     0.5689771 α      in ANC's #22, #18, #39, ...

........................................................................
.............................. CYCLE   36 ..............................
........................................................................
   1   -400.7279083 -0.400728E+03  0.526E-03    1.13       0.0  T
   2   -400.7279079  0.361573E-06  0.375E-03    1.13       1.8  T
   3   -400.7279130 -0.510102E-05  0.213E-03    1.13       3.1  T
   4   -400.7279148 -0.181788E-05  0.126E-03    1.13       5.3  T
   5   -400.7279153 -0.449991E-06  0.281E-04    1.13      23.9  T
   6   -400.7279153 -0.289810E-07  0.551E-05    1.13     121.6  T
   7   -400.7279153 -0.725151E-09  0.299E-05    1.13     224.2  T
     SCC iter.                  ...        0 min,  1.645 sec
     gradient                   ...        0 min,  1.007 sec
 * total energy  :  -395.3376273 Eh     change       -0.4317402E-02 Eh
   gradient norm :     0.0060655 Eh/α   predicted    -0.4210388E-02 (  -2.48%)
   displ. norm   :     0.9095519 α      lambda       -0.4154453E-02
   maximum displ.:     0.5621260 α      in ANC's #22, #18, #39, ...

........................................................................
.............................. CYCLE   37 ..............................
........................................................................
   1   -400.7374569 -0.400737E+03  0.575E-03    1.13       0.0  T
   2   -400.7374559  0.106678E-05  0.445E-03    1.13       1.5  T
   3   -400.7374663 -0.104264E-04  0.223E-03    1.13       3.0  T
   4   -400.7374682 -0.186201E-05  0.135E-03    1.13       5.0  T
   5   -400.7374685 -0.365687E-06  0.384E-04    1.13      17.4  T
   6   -400.7374686 -0.478072E-07  0.708E-05    1.13      94.5  T
   7   -400.7374686 -0.112055E-08  0.345E-05    1.13     194.2  T
     SCC iter.                  ...        0 min,  1.569 sec
     gradient                   ...        0 min,  1.009 sec
 * total energy  :  -395.3414724 Eh     change       -0.3845095E-02 Eh
   gradient norm :     0.0056472 Eh/α   predicted    -0.3795681E-02 (  -1.29%)
   displ. norm   :     0.8889392 α      lambda       -0.3695493E-02
   maximum displ.:     0.5779648 α      in ANC's #22, #18, #39, ...

........................................................................
.............................. CYCLE   38 ..............................
........................................................................
   1   -400.7564604 -0.400756E+03  0.503E-03    1.13       0.0  T
   2   -400.7564602  0.170212E-06  0.349E-03    1.13       1.9  T
   3   -400.7564627 -0.244052E-05  0.219E-03    1.13       3.1  T
   4   -400.7564646 -0.193372E-05  0.116E-03    1.13       5.8  T
   5   -400.7564651 -0.479230E-06  0.269E-04    1.13      24.9  T
   6   -400.7564651 -0.306133E-07  0.612E-05    1.13     109.4  T
   7   -400.7564651 -0.134884E-08  0.374E-05    1.13     179.0  T
     SCC iter.                  ...        0 min,  1.571 sec
     gradient                   ...        0 min,  1.024 sec
 * total energy  :  -395.3448843 Eh     change       -0.3411818E-02 Eh
   gradient norm :     0.0057516 Eh/α   predicted    -0.3307868E-02 (  -3.05%)
   displ. norm   :     0.8826112 α      lambda       -0.3244262E-02
   maximum displ.:     0.5684788 α      in ANC's #22, #18, #39, ...

........................................................................
.............................. CYCLE   39 ..............................
........................................................................
   1   -400.7668210 -0.400767E+03  0.467E-03    1.13       0.0  T
   2   -400.7668206  0.383848E-06  0.356E-03    1.13       1.9  T
   3   -400.7668270 -0.642710E-05  0.172E-03    1.13       3.9  T
   4   -400.7668282 -0.114138E-05  0.110E-03    1.13       6.1  T
   5   -400.7668285 -0.290134E-06  0.323E-04    1.13      20.7  T
   6   -400.7668285 -0.299334E-07  0.623E-05    1.13     107.5  T
   7   -400.7668285 -0.901025E-09  0.339E-05    1.13     197.3  T
     SCC iter.                  ...        0 min,  1.608 sec
     gradient                   ...        0 min,  1.038 sec
 * total energy  :  -395.3478867 Eh     change       -0.3002443E-02 Eh
   gradient norm :     0.0044569 Eh/α   predicted    -0.2885780E-02 (  -3.89%)
   displ. norm   :     0.8672041 α      lambda       -0.2877129E-02
   maximum displ.:     0.5722739 α      in ANC's #22, #18, #39, ...

........................................................................
.............................. CYCLE   40 ..............................
........................................................................
   1   -400.7793424 -0.400779E+03  0.413E-03    1.12       0.0  T
   2   -400.7793422  0.175174E-06  0.302E-03    1.12       2.2  T
   3   -400.7793458 -0.354333E-05  0.160E-03    1.12       4.2  T
   4   -400.7793467 -0.975659E-06  0.993E-04    1.12       6.7  T
   5   -400.7793470 -0.296432E-06  0.267E-04    1.12      25.1  T
   6   -400.7793471 -0.228414E-07  0.620E-05    1.12     107.9  T
   7   -400.7793471 -0.137402E-08  0.383E-05    1.12     175.0  T
     SCC iter.                  ...        0 min,  1.976 sec
     gradient                   ...        0 min,  1.261 sec
 * total energy  :  -395.3505145 Eh     change       -0.2627762E-02 Eh
   gradient norm :     0.0050336 Eh/α   predicted    -0.2520429E-02 (  -4.08%)
   displ. norm   :     0.8427797 α      lambda       -0.2510963E-02
   maximum displ.:     0.5630922 α      in ANC's #22, #18, #39, ...

........................................................................
.............................. CYCLE   41 ..............................
........................................................................
   1   -400.7912097 -0.400791E+03  0.400E-03    1.12       0.0  T
   2   -400.7912098 -0.114185E-06  0.277E-03    1.12       2.4  T
   3   -400.7912115 -0.171127E-05  0.166E-03    1.12       4.0  T
   4   -400.7912125 -0.100523E-05  0.951E-04    1.12       7.0  T
   5   -400.7912128 -0.333025E-06  0.239E-04    1.12      28.0  T
   6   -400.7912129 -0.205266E-07  0.456E-05    1.12     146.7  T
   7   -400.7912129 -0.559623E-09  0.238E-05    1.12     281.0  T
     SCC iter.                  ...        0 min,  2.138 sec
     gradient                   ...        0 min,  1.767 sec
 * total energy  :  -395.3528137 Eh     change       -0.2299214E-02 Eh
   gradient norm :     0.0055286 Eh/α   predicted    -0.2147224E-02 (  -6.61%)
   displ. norm   :     0.8380563 α      lambda       -0.2235955E-02
   maximum displ.:     0.5607231 α      in ANC's #22, #18, #23, ...

........................................................................
.............................. CYCLE   42 ..............................
........................................................................
   1   -400.7986843 -0.400799E+03  0.427E-03    1.12       0.0  T
   2   -400.7986844 -0.870648E-07  0.295E-03    1.12       2.3  T
   3   -400.7986862 -0.184207E-05  0.182E-03    1.12       3.7  T
   4   -400.7986875 -0.126725E-05  0.101E-03    1.12       6.6  T
   5   -400.7986878 -0.371343E-06  0.265E-04    1.12      25.3  T
   6   -400.7986879 -0.258321E-07  0.645E-05    1.12     103.8  T
   7   -400.7986879 -0.145411E-08  0.393E-05    1.12     170.3  T
     SCC iter.                  ...        0 min,  2.439 sec
     gradient                   ...        0 min,  1.184 sec
 * total energy  :  -395.3548258 Eh     change       -0.2012157E-02 Eh
   gradient norm :     0.0055307 Eh/α   predicted    -0.1903178E-02 (  -5.42%)
   displ. norm   :     0.8212715 α      lambda       -0.2040919E-02
   maximum displ.:     0.5585736 α      in ANC's #22, #18, #23, ...
 * RMSD in coord.:     1.2660815 α      energy gain  -0.1522283E+00 Eh

generating ANC from model Hessian ...
Using Lindh-Hessian (1995)
 Shifting diagonal of input Hessian by    1.0030363484975378E-002
 Lowest  eigenvalues of input Hessian
    0.010000    0.010005    0.010014    0.010019    0.010021    0.010021
    0.000000    0.000000    0.000000    0.000000    0.000000    0.000000
    0.010038    0.010040    0.010082    0.010107    0.010110    0.010143
 Highest eigenvalues
    2.152917    2.153225    2.334335    2.336127    2.832642    2.835157


........................................................................
.............................. CYCLE   43 ..............................
........................................................................
   1   -400.8096226 -0.400810E+03  0.378E-03    1.12       0.0  T
   2   -400.8096229 -0.309467E-06  0.240E-03    1.12       2.8  T
   3   -400.8096227  0.208929E-06  0.163E-03    1.12       4.1  T
   4   -400.8096235 -0.859565E-06  0.793E-04    1.12       8.4  T
   5   -400.8096239 -0.389809E-06  0.174E-04    1.12      38.4  T
   6   -400.8096239 -0.132026E-07  0.365E-05    1.12     183.2  T
     SCC iter.                  ...        0 min,  1.785 sec
     gradient                   ...        0 min,  1.313 sec
 * total energy  :  -395.3566496 Eh     change       -0.1823784E-02 Eh
   gradient norm :     0.0056560 Eh/α   predicted     0.0000000E+00 (-100.00%)
   displ. norm   :     0.2183960 α      lambda       -0.5970615E-03
   maximum displ.:     0.1734901 α      in ANC's #20, #17, #22, ...

........................................................................
.............................. CYCLE   44 ..............................
........................................................................
   1   -400.8096058 -0.400810E+03  0.190E-03    1.12       0.0  T
   2   -400.8096059 -0.115299E-06  0.120E-03    1.12       5.6  T
   3   -400.8096060 -0.840318E-07  0.918E-04    1.12       7.3  T
   4   -400.8096064 -0.377969E-06  0.400E-04    1.12      16.7  T
   5   -400.8096064 -0.527719E-07  0.957E-05    1.12      70.0  T
   6   -400.8096064 -0.394579E-08  0.254E-05    1.12     263.4  T
     SCC iter.                  ...        0 min,  1.823 sec
     gradient                   ...        0 min,  1.307 sec
 * total energy  :  -395.3572076 Eh     change       -0.5579944E-03 Eh
   gradient norm :     0.0031107 Eh/α   predicted    -0.3134228E-03 ( -43.83%)
   displ. norm   :     0.4714048 α      lambda       -0.1154416E-02
   maximum displ.:     0.3272949 α      in ANC's #20, #17, #22, ...

........................................................................
.............................. CYCLE   45 ..............................
........................................................................
   1   -400.8094646 -0.400809E+03  0.406E-03    1.12       0.0  T
   2   -400.8094650 -0.484056E-06  0.272E-03    1.12       2.5  T
   3   -400.8094676 -0.260509E-05  0.185E-03    1.12       3.6  T
   4   -400.8094692 -0.155371E-05  0.854E-04    1.12       7.8  T
   5   -400.8094693 -0.132942E-06  0.240E-04    1.12      27.9  T
   6   -400.8094694 -0.188037E-07  0.639E-05    1.12     104.8  T
   7   -400.8094694 -0.111464E-08  0.322E-05    1.12     208.1  T
     SCC iter.                  ...        0 min,  1.960 sec
     gradient                   ...        0 min,  1.043 sec
 * total energy  :  -395.3582715 Eh     change       -0.1063862E-02 Eh
   gradient norm :     0.0063198 Eh/α   predicted    -0.7054819E-03 ( -33.69%)
   displ. norm   :     0.6599854 α      lambda       -0.1482650E-02
   maximum displ.:     0.4429268 α      in ANC's #20, #17, #22, ...

........................................................................
.............................. CYCLE   46 ..............................
........................................................................
   1   -400.8103589 -0.400810E+03  0.468E-03    1.12       0.0  T
   2   -400.8103595 -0.570834E-06  0.329E-03    1.12       2.0  T
   3   -400.8103666 -0.709224E-05  0.188E-03    1.12       3.6  T
   4   -400.8103685 -0.186891E-05  0.834E-04    1.12       8.0  T
   5   -400.8103685 -0.609771E-07  0.309E-04    1.12      21.6  T
   6   -400.8103686 -0.201305E-07  0.845E-05    1.12      79.2  T
   7   -400.8103686 -0.148179E-08  0.384E-05    1.12     174.3  T
     SCC iter.                  ...        0 min,  1.628 sec
     gradient                   ...        0 min,  1.016 sec
 * total energy  :  -395.3596222 Eh     change       -0.1350746E-02 Eh
   gradient norm :     0.0110049 Eh/α   predicted    -0.1064237E-02 ( -21.21%)
   displ. norm   :     0.7334498 α      lambda       -0.1611249E-02
   maximum displ.:     0.4887915 α      in ANC's #20, #17, #22, ...

........................................................................
.............................. CYCLE   47 ..............................
........................................................................
   1   -400.8133954 -0.400813E+03  0.442E-03    1.12       0.0  T
   2   -400.8133960 -0.625222E-06  0.305E-03    1.12       2.2  T
   3   -400.8134035 -0.753539E-05  0.162E-03    1.12       4.1  T
   4   -400.8134053 -0.176424E-05  0.577E-04    1.12      11.6  T
   5   -400.8134053 -0.186726E-07  0.265E-04    1.12      25.3  T
   6   -400.8134053 -0.106388E-07  0.823E-05    1.12      81.4  T
   7   -400.8134053 -0.125300E-08  0.339E-05    1.12     197.5  T
     SCC iter.                  ...        0 min,  1.566 sec
     gradient                   ...        0 min,  1.015 sec
 * total energy  :  -395.3610915 Eh     change       -0.1469310E-02 Eh
   gradient norm :     0.0128290 Eh/α   predicted    -0.1239009E-02 ( -15.67%)
   displ. norm   :     0.7640888 α      lambda       -0.1679289E-02
   maximum displ.:     0.5186641 α      in ANC's #20, #17, #22, ...

........................................................................
.............................. CYCLE   48 ..............................
........................................................................
   1   -400.8194057 -0.400819E+03  0.409E-03    1.12       0.0  T
   2   -400.8194070 -0.129862E-05  0.252E-03    1.12       2.7  T
   3   -400.8194115 -0.450224E-05  0.157E-03    1.12       4.3  T
   4   -400.8194132 -0.172679E-05  0.538E-04    1.12      12.4  T
   5   -400.8194132 -0.551887E-08  0.262E-04    1.12      25.5  T
   6   -400.8194132 -0.889065E-08  0.756E-05    1.12      88.6  T
   7   -400.8194132 -0.150317E-08  0.284E-05    1.12     235.5  T
     SCC iter.                  ...        0 min,  1.572 sec
     gradient                   ...        0 min,  1.029 sec
 * total energy  :  -395.3626626 Eh     change       -0.1571038E-02 Eh
   gradient norm :     0.0105037 Eh/α   predicted    -0.1329857E-02 ( -15.35%)
   displ. norm   :     0.8125618 α      lambda       -0.1714988E-02
   maximum displ.:     0.5635511 α      in ANC's #20, #17, #22, ...

........................................................................
.............................. CYCLE   49 ..............................
........................................................................
   1   -400.8274808 -0.400827E+03  0.451E-03    1.12       0.0  T
   2   -400.8274830 -0.220156E-05  0.258E-03    1.12       2.6  T
   3   -400.8274847 -0.173325E-05  0.195E-03    1.12       3.4  T
   4   -400.8274867 -0.202294E-05  0.901E-04    1.12       7.4  T
   5   -400.8274868 -0.801831E-07  0.296E-04    1.12      22.6  T
   6   -400.8274868 -0.185375E-07  0.798E-05    1.12      83.9  T
   7   -400.8274868 -0.234394E-08  0.285E-05    1.12     234.6  T
     SCC iter.                  ...        0 min,  1.616 sec
     gradient                   ...        0 min,  1.052 sec
 * total energy  :  -395.3642450 Eh     change       -0.1582419E-02 Eh
   gradient norm :     0.0050680 Eh/α   predicted    -0.1423661E-02 ( -10.03%)
   displ. norm   :     0.8704537 α      lambda       -0.1574215E-02
   maximum displ.:     0.6037848 α      in ANC's #20, #17, #22, ...

........................................................................
.............................. CYCLE   50 ..............................
........................................................................
   1   -400.8311882 -0.400831E+03  0.364E-03    1.12       0.0  T
   2   -400.8311900 -0.178786E-05  0.212E-03    1.12       3.2  T
   3   -400.8311931 -0.308602E-05  0.137E-03    1.12       4.9  T
   4   -400.8311945 -0.138893E-05  0.433E-04    1.12      15.5  T
   5   -400.8311945 -0.170797E-08  0.242E-04    1.12      27.7  T
   6   -400.8311945 -0.523312E-08  0.787E-05    1.12      85.1  T
   7   -400.8311945 -0.154569E-08  0.284E-05    1.12     235.7  T
     SCC iter.                  ...        0 min,  1.981 sec
     gradient                   ...        0 min,  1.279 sec
 * total energy  :  -395.3657310 Eh     change       -0.1486012E-02 Eh
   gradient norm :     0.0035347 Eh/α   predicted    -0.1383495E-02 (  -6.90%)
   displ. norm   :     0.8727737 α      lambda       -0.1440314E-02
   maximum displ.:     0.6108385 α      in ANC's #20, #17, #22, ...

........................................................................
.............................. CYCLE   51 ..............................
........................................................................
   1   -400.8344120 -0.400834E+03  0.297E-03    1.12       0.0  T
   2   -400.8344128 -0.739368E-06  0.190E-03    1.12       3.5  T
   3   -400.8344158 -0.301948E-05  0.113E-03    1.12       5.9  T
   4   -400.8344167 -0.915224E-06  0.339E-04    1.12      19.7  T
   5   -400.8344167 -0.107946E-08  0.192E-04    1.12      35.0  T
   6   -400.8344167 -0.500512E-08  0.658E-05    1.12     101.8  T
     SCC iter.                  ...        0 min,  1.884 sec
     gradient                   ...        0 min,  1.733 sec
 * total energy  :  -395.3670914 Eh     change       -0.1360447E-02 Eh
   gradient norm :     0.0030674 Eh/α   predicted    -0.1268733E-02 (  -6.74%)
   displ. norm   :     0.8808267 α      lambda       -0.1323193E-02
   maximum displ.:     0.6230972 α      in ANC's #20, #17, #22, ...

........................................................................
.............................. CYCLE   52 ..............................
........................................................................
   1   -400.8374990 -0.400837E+03  0.263E-03    1.12       0.0  T
   2   -400.8374994 -0.310340E-06  0.176E-03    1.12       3.8  T
   3   -400.8375021 -0.276331E-05  0.102E-03    1.12       6.6  T
   4   -400.8375028 -0.706041E-06  0.320E-04    1.12      20.9  T
   5   -400.8375028 -0.235173E-08  0.174E-04    1.12      38.6  T
   6   -400.8375028 -0.618257E-08  0.600E-05    1.12     111.6  T
     SCC iter.                  ...        0 min,  2.292 sec
     gradient                   ...        0 min,  1.216 sec
 * total energy  :  -395.3683327 Eh     change       -0.1241233E-02 Eh
   gradient norm :     0.0033688 Eh/α   predicted    -0.1174903E-02 (  -5.34%)
   displ. norm   :     0.8930083 α      lambda       -0.1222920E-02
   maximum displ.:     0.6422693 α      in ANC's #20, #17, #22, ...

........................................................................
.............................. CYCLE   53 ..............................
........................................................................
   1   -400.8416943 -0.400842E+03  0.246E-03    1.11       0.0  T
   2   -400.8416946 -0.264985E-06  0.159E-03    1.11       4.2  T
   3   -400.8416968 -0.215071E-05  0.998E-04    1.11       6.7  T
   4   -400.8416974 -0.658341E-06  0.330E-04    1.11      20.3  T
[...]
   214   1 H    1.002 --   184 C    0.974
   215   1 H    1.009 --   191 C    0.980
   216   1 H    1.015 --   191 C    0.983
   217   1 H    1.009 --   191 C    0.980
   218   1 H    1.000 --   192 C    0.969
   219   1 H    1.003 --   193 C    0.974
   220   1 H    1.000 --   194 C    0.969
   221   1 H    1.009 --   197 C    0.980
   222   1 H    1.009 --   197 C    0.980
   223   1 H    1.015 --   197 C    0.983
 ---------------------------------------------------------------------------

Topologies differ in total number of bonds
Writing topology from bond orders to xtbtopo.mol

 dipole moment from electron density (au)
     X       Y       Z   
  -0.0134  -0.4339   0.3120  total (Debye):    1.359

           -------------------------------------------------
          |                Geometry Summary                 |
           -------------------------------------------------

      molecular mass/u    :     2010.0339633
   center of mass at/Å    :       44.6202673       0.0309944      -0.0396264
  moments of inertia/u·Å² :        0.3743902E+05   0.2476071E+06   0.2733284E+06
rotational constants/cm⁻¹ :        0.4502690E-03   0.6808220E-04   0.6167537E-04

 * 228 selected distances

     #   Z          #   Z                                           value/Å
     2   6 C        3   6 C                                       1.3797317
     3   6 C        4   6 C                                       1.4315125
     4   6 C        5   6 C                                       1.3534302
     5   6 C        6   6 C                                       1.4332177
     3   6 C        7   7 N                                       1.3719066
     6   6 C        7   7 N                                       1.3726931
     6   6 C        8   6 C                                       1.3875638
     8   6 C        9   6 C                                       1.3871408
     9   6 C       10   6 C                                       1.4314174
    10   6 C       11   6 C                                       1.3544208
     9   6 C       12   7 N                                       1.3763902
    11   6 C       13   6 C                                       1.4289179
    12   7 N       13   6 C                                       1.3675217
    13   6 C       14   6 C                                       1.3969661
    14   6 C       15   6 C                                       1.3971152
    15   6 C       16   6 C                                       1.4290703
    16   6 C       17   6 C                                       1.3542774
    17   6 C       18   6 C                                       1.4312960
    18   6 C       19   6 C                                       1.3867225
    20   6 C       21   6 C                                       1.4010116
    21   6 C       22   8 O                                       1.3592797
    22   8 O       23   6 C                                       1.4131127
    21   6 C       24   6 C                                       1.3944735
    24   6 C       25   6 C                                       1.3867440
    25   6 C       26   6 C                                       1.3866686
    20   6 C       27   6 C                                       1.4008563
    26   6 C       27   6 C                                       1.3946475
    27   6 C       28   8 O                                       1.3589572
    28   8 O       29   6 C                                       1.4131545
    19   6 C       30   6 C                                       1.3876630
    30   6 C       31   6 C                                       1.4332254 (max)
    31   6 C       32   6 C                                       1.3536165
     2   6 C       33   6 C                                       1.3796586
    32   6 C       33   6 C                                       1.4315074
    30   6 C       34   7 N                                       1.3720694
    33   6 C       34   7 N                                       1.3720086
    15   6 C       35   7 N                                       1.3672916
    18   6 C       35   7 N                                       1.3769193
    36   6 C       37   6 C                                       1.4009687
    37   6 C       38   8 O                                       1.3588865
    38   8 O       39   6 C                                       1.4131822
    37   6 C       40   6 C                                       1.3946613
    40   6 C       41   6 C                                       1.3866332
    41   6 C       42   6 C                                       1.3867129
    36   6 C       43   6 C                                       1.4011203
    42   6 C       43   6 C                                       1.3944248
    43   6 C       44   8 O                                       1.3594220
    44   8 O       45   6 C                                       1.4131093
     2   6 C       46   1 H                                       1.0839565
     4   6 C       47   1 H                                       1.0786633
     5   6 C       48   1 H                                       1.0778154
    10   6 C       49   1 H                                       1.0778889
    11   6 C       50   1 H                                       1.0782313
    16   6 C       51   1 H                                       1.0782139
    17   6 C       52   1 H                                       1.0776657 (min)
    23   6 C       53   1 H                                       1.0967815
    23   6 C       54   1 H                                       1.0915822
    23   6 C       55   1 H                                       1.0968236
    24   6 C       56   1 H                                       1.0817956
    25   6 C       57   1 H                                       1.0845062
    26   6 C       58   1 H                                       1.0817800
    29   6 C       59   1 H                                       1.0915746
    29   6 C       60   1 H                                       1.0968253
    29   6 C       61   1 H                                       1.0967922
    31   6 C       62   1 H                                       1.0781059
    32   6 C       63   1 H                                       1.0786559
    39   6 C       64   1 H                                       1.0915453
    39   6 C       65   1 H                                       1.0967999
    39   6 C       66   1 H                                       1.0968288
    40   6 C       67   1 H                                       1.0817769
    41   6 C       68   1 H                                       1.0844966
    42   6 C       69   1 H                                       1.0817804
    45   6 C       70   1 H                                       1.0967355
    45   6 C       71   1 H                                       1.0915964
    45   6 C       72   1 H                                       1.0968509
    74   6 C       75   6 C                                       1.3800480
    75   6 C       76   6 C                                       1.4314766
    76   6 C       77   6 C                                       1.3536493
    77   6 C       78   6 C                                       1.4331705
    75   6 C       79   7 N                                       1.3716047
    78   6 C       79   7 N                                       1.3730317
    78   6 C       80   6 C                                       1.3873112
    80   6 C       81   6 C                                       1.3874397
    81   6 C       82   6 C                                       1.4309980
    82   6 C       83   6 C                                       1.3546760
    81   6 C       84   7 N                                       1.3761333
    83   6 C       85   6 C                                       1.4289085
    84   7 N       85   6 C                                       1.3677029
    85   6 C       86   6 C                                       1.3976409
    86   6 C       87   6 C                                       1.3979954
    87   6 C       88   6 C                                       1.4286218
    88   6 C       89   6 C                                       1.3546256
    89   6 C       90   6 C                                       1.4312973
    90   6 C       91   6 C                                       1.3869850
    92   6 C       93   6 C                                       1.4016366
    93   6 C       94   8 O                                       1.3589926
    94   8 O       95   6 C                                       1.4132415
    93   6 C       96   6 C                                       1.3945148
    96   6 C       97   6 C                                       1.3865903
    97   6 C       98   6 C                                       1.3866501
    92   6 C       99   6 C                                       1.4015045
    98   6 C       99   6 C                                       1.3944943
    99   6 C      100   8 O                                       1.3591271
   100   8 O      101   6 C                                       1.4130668
    91   6 C      102   6 C                                       1.3884839
   102   6 C      103   6 C                                       1.4330989
   103   6 C      104   6 C                                       1.3536601
    74   6 C      105   6 C                                       1.3795942
   104   6 C      105   6 C                                       1.4315603
   102   6 C      106   7 N                                       1.3718934
   105   6 C      106   7 N                                       1.3725709
    87   6 C      107   7 N                                       1.3668668
    90   6 C      107   7 N                                       1.3775398
   108   6 C      109   6 C                                       1.4014523
   109   6 C      110   8 O                                       1.3586508
   110   8 O      111   6 C                                       1.4132206
   109   6 C      112   6 C                                       1.3945380
   112   6 C      113   6 C                                       1.3866323
   113   6 C      114   6 C                                       1.3866913
   108   6 C      115   6 C                                       1.4010748
   114   6 C      115   6 C                                       1.3945412
   115   6 C      116   8 O                                       1.3594174
   116   8 O      117   6 C                                       1.4130889
    74   6 C      118   1 H                                       1.0839580
    76   6 C      119   1 H                                       1.0786888
    77   6 C      120   1 H                                       1.0779172
    82   6 C      121   1 H                                       1.0779356
    83   6 C      122   1 H                                       1.0782089
    88   6 C      123   1 H                                       1.0782695
    89   6 C      124   1 H                                       1.0777266
    95   6 C      125   1 H                                       1.0967830
    95   6 C      126   1 H                                       1.0915670
    95   6 C      127   1 H                                       1.0967641
    96   6 C      128   1 H                                       1.0817557
    97   6 C      129   1 H                                       1.0844909
    98   6 C      130   1 H                                       1.0817728
   101   6 C      131   1 H                                       1.0916106
   101   6 C      132   1 H                                       1.0968371
   101   6 C      133   1 H                                       1.0968033
   103   6 C      134   1 H                                       1.0780506
   104   6 C      135   1 H                                       1.0786601
   111   6 C      136   1 H                                       1.0915509
   111   6 C      137   1 H                                       1.0967908
   111   6 C      138   1 H                                       1.0967721
   112   6 C      139   1 H                                       1.0817714
   113   6 C      140   1 H                                       1.0844936
   114   6 C      141   1 H                                       1.0817835
   117   6 C      142   1 H                                       1.0967667
   117   6 C      143   1 H                                       1.0915899
   117   6 C      144   1 H                                       1.0968426
   145   6 C      146   6 C                                       1.2210235
   147   6 C      148   6 C                                       1.2210970
   149   6 C      150   6 C                                       1.2216669
   151   6 C      152   6 C                                       1.2215484
   154   6 C      155   6 C                                       1.3972834
   155   6 C      156   6 C                                       1.4287351
   156   6 C      157   6 C                                       1.3547718
   157   6 C      158   6 C                                       1.4307080
   155   6 C      159   7 N                                       1.3673100
   158   6 C      159   7 N                                       1.3765466
   158   6 C      160   6 C                                       1.3868442
   160   6 C      161   6 C                                       1.3871815
   161   6 C      162   6 C                                       1.4305111
   162   6 C      163   6 C                                       1.3549398
   161   6 C      164   7 N                                       1.3763015
   163   6 C      165   6 C                                       1.4285380
   164   7 N      165   6 C                                       1.3674324
   165   6 C      166   6 C                                       1.3978828
   166   6 C      167   6 C                                       1.3978864
   167   6 C      168   6 C                                       1.4284445
   168   6 C      169   6 C                                       1.3549374
   169   6 C      170   6 C                                       1.4306403
   170   6 C      171   6 C                                       1.3872068
   172   6 C      173   6 C                                       1.4015295
   173   6 C      174   8 O                                       1.3588619
   174   8 O      175   6 C                                       1.4130927
   173   6 C      176   6 C                                       1.3944719
   176   6 C      177   6 C                                       1.3866913
   177   6 C      178   6 C                                       1.3866401
   172   6 C      179   6 C                                       1.4016346
   178   6 C      179   6 C                                       1.3945128
   179   6 C      180   8 O                                       1.3586494
   180   8 O      181   6 C                                       1.4132482
   171   6 C      182   6 C                                       1.3874263
   182   6 C      183   6 C                                       1.4307760
   183   6 C      184   6 C                                       1.3547694
   154   6 C      185   6 C                                       1.3970523
   184   6 C      185   6 C                                       1.4286529
   182   6 C      186   7 N                                       1.3762905
   185   6 C      186   7 N                                       1.3677112
   167   6 C      187   7 N                                       1.3672869
   170   6 C      187   7 N                                       1.3766833
   188   6 C      189   6 C                                       1.4015021
   189   6 C      190   8 O                                       1.3585997
   190   8 O      191   6 C                                       1.4131856
   189   6 C      192   6 C                                       1.3944619
   192   6 C      193   6 C                                       1.3867037
   193   6 C      194   6 C                                       1.3867077
   188   6 C      195   6 C                                       1.4011634
   194   6 C      195   6 C                                       1.3945686
   195   6 C      196   8 O                                       1.3588432
   196   8 O      197   6 C                                       1.4131578
   156   6 C      198   1 H                                       1.0782131
   157   6 C      199   1 H                                       1.0778211
   162   6 C      200   1 H                                       1.0778796
   163   6 C      201   1 H                                       1.0782106
   168   6 C      202   1 H                                       1.0782436
   169   6 C      203   1 H                                       1.0778192
   175   6 C      204   1 H                                       1.0968147
   175   6 C      205   1 H                                       1.0915833
   175   6 C      206   1 H                                       1.0967695
   176   6 C      207   1 H                                       1.0817886
   177   6 C      208   1 H                                       1.0844998
   178   6 C      209   1 H                                       1.0817781
   181   6 C      210   1 H                                       1.0915722
   181   6 C      211   1 H                                       1.0967629
   181   6 C      212   1 H                                       1.0967291
   183   6 C      213   1 H                                       1.0778244
   184   6 C      214   1 H                                       1.0782270
   191   6 C      215   1 H                                       1.0967786
   191   6 C      216   1 H                                       1.0915820
   191   6 C      217   1 H                                       1.0967587
   192   6 C      218   1 H                                       1.0817832
   193   6 C      219   1 H                                       1.0845055
   194   6 C      220   1 H                                       1.0817845
   197   6 C      221   1 H                                       1.0968048
   197   6 C      222   1 H                                       1.0967711
   197   6 C      223   1 H                                       1.0915862

 * 4 distinct bonds (by element types)

   Z      Z             #   av. dist./Å        max./Å        min./Å
   1 H    6 C          80     1.0869140     1.0968509     1.0776657
   6 C    6 C         100     1.3901007     1.4332254     1.2210235
   6 C    7 N          24     1.3720711     1.3775398     1.3668668
   6 C    8 O          24     1.3860645     1.4132482     1.3585997


optimized geometry written to: xtbopt.xyz


           -------------------------------------------------
          | TOTAL ENERGY             -395.375827993336 Eh   |
          | GRADIENT NORM               0.000535093570 Eh/α |
          | HOMO-LUMO GAP               1.076521468876 eV   |
           -------------------------------------------------

------------------------------------------------------------------------
 * finished run on 2022/07/30 at 09:51:12.090     
------------------------------------------------------------------------
 total:
 * wall-time:     0 d,  0 h,  8 min, 40.381 sec
 *  cpu-time:     0 d,  0 h,  8 min, 37.445 sec
 * ratio c/w:     0.994 speedup
 SCF:
 * wall-time:     0 d,  0 h,  0 min, 24.584 sec
 *  cpu-time:     0 d,  0 h,  0 min, 24.436 sec
 * ratio c/w:     0.994 speedup
 ANC optimizer:
 * wall-time:     0 d,  0 h,  8 min, 15.322 sec
 *  cpu-time:     0 d,  0 h,  8 min, 12.541 sec
 * ratio c/w:     0.994 speedup

