246
 energy: -426.888664903462 gnorm: 1.791026737493 xtb: 6.5.1 (b24c23e)
Ni          34.64140099999999        0.06486300000000        0.01445400000000
C           31.30483800000000       -0.09120700000000        0.00404200000000
C           31.96894800000000       -1.24341100000000       -0.12378700000000
C           31.31926899999999       -2.54015200000000       -0.27417700000000
C           32.26109800000000       -3.46386500000000       -0.32156900000000
C           33.56592700000000       -2.79944400000000       -0.20210100000000
N           33.38764100000000       -1.38786500000000       -0.08166500000000
C           34.75613100000000       -3.43117100000000       -0.15692100000000
C           36.04976300000000       -2.71513300000000       -0.00645300000000
C           37.34030700000000       -3.38993100000000        0.17845800000000
C           38.27502200000000       -2.46345500000000        0.23625200000000
N           36.19038100000000       -1.42607800000000       -0.06642100000000
C           37.58988700000000       -1.18604200000000        0.08085100000000
C           38.18446000000000        0.01638600000000        0.01016200000000
C           37.42344600000000        1.27397000000000       -0.16874800000000
C           37.96041400000000        2.41904100000000       -0.57095200000000
C           36.91667900000000        3.42379100000000       -0.52889400000000
C           35.81066100000000        2.82734600000000       -0.09960100000000
C           34.52555300000000        3.52936000000000        0.15160200000000
C           34.54467300000000        5.00416000000000        0.30956300000000
C           33.88540999999999        5.83011300000000       -0.61668500000000
C           33.92411200000000        7.22022600000000       -0.47158800000000
C           34.62566700000000        7.79418500000000        0.59238800000000
C           35.29171100000000        6.97895100000000        1.51188600000000
C           35.25491599999999        5.58829800000000        1.37096300000000
C           33.36050500000000        2.85935700000000        0.24030500000000
C           32.04814600000000        3.44029400000000        0.51908800000000
C           31.18655300000000        2.44322100000000        0.46660400000000
C           31.93953500000000        1.22627300000000        0.16832100000000
N           33.20768600000000        1.45638000000000        0.03488800000000
N           36.04042000000000        1.43872000000000        0.14742300000000
C           34.79491200000000       -4.90608000000000       -0.24882900000000
C           34.69392300000000       -5.53823200000000       -1.49772400000000
C           34.73201500000000       -6.93348000000000       -1.58231700000000
C           34.87193100000000       -7.70201400000000       -0.42271700000000
C           34.97377900000000       -7.07643100000000        0.82353400000000
C           34.93539800000000       -5.68148100000000        0.91238600000000
H           30.22143700000000       -0.11980700000000        0.00105300000000
H           30.25494300000000       -2.72986900000000       -0.32870000000000
H           32.07566500000000       -4.52573100000000       -0.41935400000000
H           37.51772600000000       -4.45478200000000        0.25056300000000
H           39.33369200000000       -2.64793900000000        0.36110400000000
H           38.98975399999999        2.58672300000000       -0.85811300000000
H           37.02952900000000        4.47043400000000       -0.78031300000000
H           33.34655000000000        5.39680100000000       -1.45036600000000
H           33.41284000000000        7.85266500000000       -1.18574100000000
H           34.65556700000000        8.87045400000000        0.70268200000000
H           35.83751200000000        7.42471200000000        2.33335800000000
H           35.77600600000000        4.96640500000000        2.08858200000000
H           31.80330100000000        4.47250200000000        0.73202600000000
H           30.11927700000000        2.52469000000000        0.62547900000000
H           34.58584800000000       -4.95068200000000       -2.40118400000000
H           34.65345200000000       -7.41894300000000       -2.54643900000000
H           34.90156900000000       -8.78183200000000       -0.48985500000000
H           35.08237700000000       -7.67244000000000        1.72039100000000
H           35.01503500000000       -5.20519600000000        1.88189600000000
Ni          92.31645500000000       -0.03223100000000        0.01234500000000
C           95.65301800000000        0.12414400000000        0.00871900000000
C           94.98890899999999        1.28081200000000       -0.06895800000000
C           95.63858700000000        2.58286000000000       -0.16289900000000
C           94.69675900000000        3.50775900000000       -0.17013700000000
C           93.39192900000000        2.83877800000000       -0.07963200000000
N           93.57021600000000        1.42330000000000       -0.02060300000000
C           92.20172599999999        3.46794600000000       -0.00706400000000
C           90.90809299999999        2.74605100000000        0.11217000000000
C           89.61754999999998        3.41218300000000        0.32620800000000
C           88.68283399999999        2.48407100000000        0.34371800000000
N           90.76747499999999        1.46081600000000       -0.00371500000000
C           89.36797000000000        1.21461100000000        0.13299600000000
C           88.77339600000001        0.01638600000000        0.01016200000000
C           89.53440999999999       -1.23224300000000       -0.22318600000000
C           88.99744200000001       -2.35876900000000       -0.67473200000000
C           90.04117699999999       -3.36439800000000       -0.67634200000000
C           91.14719500000000       -2.78715600000000       -0.22155400000000
C           92.43230400000000       -3.49941600000000       -0.00107100000000
C           92.41318400000000       -4.97968400000000        0.09270200000000
C           93.07244700000000       -5.76463800000000       -0.86853700000000
C           93.03374500000000       -7.15974100000000       -0.78393700000000
C           92.33218899999999       -7.77935800000000        0.25411200000000
C           91.66614599999998       -7.00482000000000        1.20814200000000
C           91.70294000000000       -5.60935900000000        1.12773600000000
C           93.59735100000000       -2.83389700000000        0.11664100000000
C           94.90971099999999       -3.42639000000000        0.36993600000000
C           95.77130299999999       -2.42798000000000        0.36079600000000
C           95.01832099999999       -1.19922700000000        0.11563600000000
N           93.75017099999998       -1.42332400000000       -0.02766200000000
N           90.91743600000000       -1.41056600000000        0.08553300000000
C           92.16294499999999        4.94545600000000       -0.03484200000000
C           92.26393400000001        5.63124000000000       -1.25511000000000
C           92.22584100000000        7.02884600000000       -1.27903800000000
C           92.08592500000000        7.74630200000000       -0.08716100000000
C           91.98407700000000        7.06719600000000        1.13075000000000
C           92.02245799999999        5.66970200000000        1.15894700000000
H           96.73641999999998        0.15284700000000        0.00697500000000
H           96.70291399999999        2.77476500000000       -0.20913300000000
H           94.88219200000000        4.57287000000000       -0.22172100000000
H           89.44013099999998        4.47289800000000        0.44448300000000
H           87.62416399999998        2.66296000000000        0.47646300000000
H           87.96810200000000       -2.51382400000000       -0.96890300000000
H           89.92832699999998       -4.39913700000000       -0.97297000000000
H           93.61130599999998       -5.29553500000000       -1.68261600000000
H           93.54501700000000       -7.76057300000000       -1.52487900000000
H           92.30228900000000       -8.85940200000000        0.31756900000000
H           91.12034499999999       -7.48583000000000        2.00948300000000
H           91.18185099999998       -5.01921300000000        1.87168200000000
H           95.15455499999999       -4.46687200000000        0.53785200000000
H           96.83857900000000       -2.51627000000000        0.51598400000000
H           92.37200799999999        5.08347500000000       -2.18323000000000
H           92.30440500000000        7.55571500000000       -2.22117200000000
H           92.05628700000000        8.82801800000000       -0.10734800000000
H           91.87548000000000        7.62369900000000        2.05264100000000
H           91.94282100000000        5.15176900000000        2.10686100000000
C           40.76828000000000        0.03004400000000        0.01971600000000
C           42.22650600000000        0.00820700000000        0.00184300000000
C           43.36043400000000       -0.01254600000000        0.00035200000000
C           44.72181600000000       -0.02513600000000       -0.00183900000000
C           45.99603500000000       -0.01483000000000       -0.00660400000000
C           47.18449700000000        0.00396900000000       -0.01276000000000
C           48.53685800000000        0.02875300000000        0.00310800000000
C           49.63712500000000        0.03004400000000        0.01971600000000
C           58.98684500000000        0.03004400000000        0.01971600000000
C           60.44507100000000        0.00820700000000        0.00184300000000
C           61.57900000000000       -0.01254600000000        0.00035200000000
C           62.94038100000000       -0.02513600000000       -0.00183900000000
C           64.21460000000000       -0.01483000000000       -0.00660400000000
C           65.40306300000000        0.00396900000000       -0.01276000000000
C           66.75542299999999        0.02875300000000        0.00310800000000
C           67.85569099999999        0.03004400000000        0.01971600000000
C           77.20541100000000        0.03004400000000        0.01971600000000
C           78.66363699999998        0.00820700000000        0.00184300000000
C           79.79756500000001       -0.01254600000000        0.00035200000000
C           81.15894700000000       -0.02513600000000       -0.00183900000000
C           82.43316600000000       -0.01483000000000       -0.00660400000000
C           83.62162800000000        0.00396900000000       -0.01276000000000
C           84.97398900000000        0.02875300000000        0.00310800000000
C           86.07425600000001        0.03004400000000        0.01971600000000
Ni          54.29414300000000        0.07372000000000        0.02690800000000
C           50.91993600000000       -0.02323900000000       -0.01464900000000
C           51.57875600000000       -1.19631100000000       -0.01945700000000
C           50.93330900000000       -2.51100000000000       -0.00753600000000
C           51.87305500000000       -3.43368300000000       -0.01581500000000
C           53.17671799999999       -2.76376500000000       -0.03720400000000
N           53.00078299999999       -1.34524400000000       -0.03628500000000
C           54.36324900000000       -3.40301300000000       -0.05564900000000
C           55.67237200000000       -2.70692200000000       -0.08132700000000
C           56.95733300000000       -3.41051300000000       -0.17935600000000
C           57.91197900000000       -2.50631900000000       -0.17365200000000
N           55.83328900000000       -1.42017400000000       -0.01736200000000
C           57.24583999999999       -1.21295000000000       -0.06986200000000
C           57.86790599999999       -0.02323900000000       -0.01464900000000
C           57.14357800000000        1.26511700000000        0.09948400000000
C           57.74432399999999        2.43753400000000        0.25389600000000
C           56.71375500000000        3.45036100000000        0.29349000000000
C           55.54435099999999        2.83677600000000        0.15371800000000
C           54.23754100000000        3.54617800000000        0.11765500000000
C           54.24670300000000        5.02834700000000        0.14030300000000
C           53.87906899999999        5.72084800000000        1.30535900000000
C           53.90311899999999        7.11865400000000        1.32881600000000
C           54.29983500000000        7.83076000000000        0.19271100000000
C           54.67023700000000        7.14640000000000       -0.96884900000000
C           54.64603699999999        5.74829100000000       -0.99683700000000
C           53.05544000000000        2.90112100000000        0.06505700000000
C           51.74678200000000        3.54482800000000       -0.00024200000000
C           50.86109400000000        2.57346000000000       -0.04147600000000
C           51.58939100000000        1.30059300000000       -0.00448800000000
N           52.87415599999999        1.48362900000000        0.05646100000000
N           55.72334899999999        1.42381600000000        0.02928000000000
C           54.38503000000000       -4.88165800000000       -0.06175600000000
C           54.24436600000000       -5.58517900000000       -1.26815000000000
C           54.28202600000000       -6.98287000000000       -1.27247800000000
C           54.46118300000000       -7.68253000000000       -0.07536100000000
C           54.60159000000000       -6.98530300000000        1.12863500000000
C           54.56615300000000       -5.58770100000000        1.13691700000000
H           49.87303100000000       -2.72503300000000        0.00881300000000
H           51.68674700000000       -4.50000400000000       -0.00503900000000
H           57.11383800000000       -4.47850200000000       -0.24968900000000
H           58.97112200000000       -2.71648400000000       -0.23644200000000
H           58.80708300000000        2.62144400000000        0.33153500000000
H           56.87951100000000        4.51239100000000        0.40768800000000
H           53.57873900000000        5.17806600000000        2.19263700000000
H           53.61749900000000        7.65043800000000        2.22802600000000
H           54.32031900000000        8.91241500000000        0.21423500000000
H           54.97966800000000        7.69875900000000       -1.84672400000000
H           54.93971600000000        5.22689200000000       -1.89968000000000
H           51.51953399999999        4.60338600000000       -0.01824300000000
H           49.79095599999999        2.71879600000000       -0.09617500000000
H           54.10910100000000       -5.05111300000000       -2.20034400000000
H           54.17483800000000       -7.52391100000000       -2.20368600000000
H           54.49197400000000       -8.76400200000000       -0.08023500000000
H           54.74032999999999       -7.52877500000000        2.05454500000000
H           54.67958100000000       -5.05511600000000        2.07286800000000
Ni          72.51270800000000        0.07372000000000        0.02690800000000
C           69.13850100000001       -0.02323900000000       -0.01464900000000
C           69.79732199999999       -1.19631100000000       -0.01945700000000
C           69.15187400000001       -2.51100000000000       -0.00753600000000
C           70.09162000000001       -3.43368300000000       -0.01581500000000
C           71.39528300000001       -2.76376500000000       -0.03720400000000
N           71.21934800000000       -1.34524400000000       -0.03628500000000
C           72.58181399999998       -3.40301300000000       -0.05564900000000
C           73.89093699999999       -2.70692200000000       -0.08132700000000
C           75.17589900000000       -3.41051300000000       -0.17935600000000
C           76.13054500000000       -2.50631900000000       -0.17365200000000
N           74.05185400000001       -1.42017400000000       -0.01736200000000
C           75.46440600000000       -1.21295000000000       -0.06986200000000
C           76.08647200000000       -0.02323900000000       -0.01464900000000
C           75.36214300000000        1.26511700000000        0.09948400000000
C           75.96289000000000        2.43753400000000        0.25389600000000
C           74.93232099999999        3.45036100000000        0.29349000000000
C           73.76291700000000        2.83677600000000        0.15371800000000
C           72.45610600000001        3.54617800000000        0.11765500000000
C           72.46526899999999        5.02834700000000        0.14030300000000
C           72.09763500000000        5.72084800000000        1.30535900000000
C           72.12168400000000        7.11865400000000        1.32881600000000
C           72.51839999999999        7.83076000000000        0.19271100000000
C           72.88880300000000        7.14640000000000       -0.96884900000000
C           72.86460200000000        5.74829100000000       -0.99683700000000
C           71.27400600000000        2.90112100000000        0.06505700000000
C           69.96534699999998        3.54482800000000       -0.00024200000000
C           69.07965900000001        2.57346000000000       -0.04147600000000
C           69.80795600000000        1.30059300000000       -0.00448800000000
N           71.09272100000000        1.48362900000000        0.05646100000000
N           73.94191400000000        1.42381600000000        0.02928000000000
C           72.60359499999998       -4.88165800000000       -0.06175600000000
C           72.46293100000000       -5.58517900000000       -1.26815000000000
C           72.50059100000000       -6.98287000000000       -1.27247800000000
C           72.67974799999999       -7.68253000000000       -0.07536100000000
C           72.82015600000000       -6.98530300000000        1.12863500000000
C           72.78471900000000       -5.58770100000000        1.13691700000000
H           68.09159699999998       -2.72503300000000        0.00881300000000
H           69.90531299999999       -4.50000400000000       -0.00503900000000
H           75.33240399999998       -4.47850200000000       -0.24968900000000
H           77.18968800000000       -2.71648400000000       -0.23644200000000
H           77.02564800000000        2.62144400000000        0.33153500000000
H           75.09807699999999        4.51239100000000        0.40768800000000
H           71.79730499999998        5.17806600000000        2.19263700000000
H           71.83606399999998        7.65043800000000        2.22802600000000
H           72.53888399999998        8.91241500000000        0.21423500000000
H           73.19823300000000        7.69875900000000       -1.84672400000000
H           73.15828100000000        5.22689200000000       -1.89968000000000
H           69.73810000000000        4.60338600000000       -0.01824300000000
H           68.00952200000000        2.71879600000000       -0.09617500000000
H           72.32766700000001       -5.05111300000000       -2.20034400000000
H           72.39340300000001       -7.52391100000000       -2.20368600000000
H           72.71053900000000       -8.76400200000000       -0.08023500000000
H           72.95889500000000       -7.52877500000000        2.05454500000000
H           72.89814699999998       -5.05511600000000        2.07286800000000
246
 energy: -427.490859832676 gnorm: 0.723872341703 xtb: 6.5.1 (b24c23e)
Ni          34.64840100905305        0.06038838217261        0.01319817728074
C           31.30537306074885       -0.07837590401307        0.00579192249056
C           31.97543274445341       -1.24488498408356       -0.12422341159561
C           31.31860282615260       -2.53518949150522       -0.27386472879182
C           32.26804702776232       -3.46526515070607       -0.32156214257695
C           33.56468538587814       -2.79229061481373       -0.20244712404143
N           33.37724618111429       -1.39506853314900       -0.08107693765673
C           34.76724711033523       -3.42790593865531       -0.15548595016956
C           36.04351799356012       -2.72615484247205       -0.00695308767875
C           37.33104303318258       -3.39626889017516        0.17683569591198
C           38.27521361387085       -2.45744552185262        0.23652645812449
N           36.19269500900499       -1.41952867959063       -0.06505545308033
C           37.59456676896607       -1.18306135326660        0.08138311722662
C           38.17347591324580        0.02735133688305        0.00779094030585
C           37.41982581976121        1.26017365073204       -0.16284614706532
C           37.96104647941340        2.43558896438833       -0.57409122144126
C           36.93317445498086        3.42478932192274       -0.53142012649401
C           35.80039728237119        2.81819339918842       -0.09303976896416
C           34.53520915496223        3.52437981703127        0.15055607014828
C           34.54822493830037        5.00432406750282        0.30779760326387
C           33.88636985766651        5.83115940187765       -0.61381459118116
C           33.92559579173689        7.21801951496809       -0.46923943142001
C           34.62559010706345        7.79138702001058        0.59210308219309
C           35.28977686840177        6.97736964327582        1.50945045990869
C           35.25427296336274        5.59026184151246        1.36867817884308
C           33.35987150595508        2.85725546452396        0.24067179897315
C           32.05466427143968        3.44043741160635        0.51828614796750
C           31.18092221082593        2.43444766259829        0.46520437618478
C           31.92620848433972        1.21803981824150        0.16759609730033
N           33.21357591433051        1.45943493239521        0.03819345454815
N           36.03913321075621        1.43982528622346        0.14394708520469
C           34.79701997842482       -4.90862628983508       -0.24871615057011
C           34.69396029222965       -5.54047814817369       -1.49520278013711
C           34.73212865918350       -6.93213177322646       -1.57927111230535
C           34.87186000316572       -7.69918909144489       -0.42255053922311
C           34.97338016414850       -7.07483770246887        0.82074152938997
C           34.93575320113079       -5.68368346581195        0.90982049606375
H           30.22178664187647       -0.11736393270255        0.00172468851470
H           30.25514817877145       -2.72593476624829       -0.32844609702075
H           32.08051070151988       -4.52586645896847       -0.41929859981044
H           37.51368151717002       -4.45653550333421        0.25019930550961
H           39.33327286687789       -2.64296931110195        0.36084878810107
H           38.98982402784596        2.58885732430902       -0.85850560845209
H           37.03187255188598        4.47018843823996       -0.78100843081898
H           33.34727392849094        5.39650949009490       -1.44950974670317
H           33.41321212602119        7.85198865319157       -1.18532512085410
H           34.65558163999951        8.86988403707331        0.70258932334368
H           35.83709367945172        7.42417707607439        2.33281982620822
H           35.77540431810069        4.96639516624064        2.08766129133042
H           31.80792566653016        4.47207373469249        0.73133520889198
H           30.11795482979241        2.52123230029442        0.62503752701834
H           34.58605289607942       -4.95066049358697       -2.39999344399630
H           34.65351150499508       -7.41849423680370       -2.54582114088722
H           34.90157243577518       -8.78125227669894       -0.48982578716693
H           35.08225604280462       -7.67196542540882        1.71985304736991
H           35.01490969186560       -5.20510835008035        1.88077593362345
Ni          92.30947344026319       -0.02771380999145        0.01129708884744
C           95.65248168990721        0.11125368227410        0.00991094829336
C           94.98242188554835        1.28230063260947       -0.06933086668027
C           95.63925412668097        2.57789330037027       -0.16280316325220
C           94.68981472119017        3.50915794510152       -0.17006744165482
C           93.39317021057455        2.83163463364541       -0.08029010277412
N           93.58061186105779        1.43048000541760       -0.01970290386276
C           92.19058930376647        3.46459212789319       -0.00578800918717
C           90.91431441430699        2.75701582072941        0.11213969019537
C           89.62684356016004        3.41858911232198        0.32487723466848
C           88.68265384850130        2.47812623393953        0.34370159077300
N           90.76485742416210        1.45400636704471       -0.00254444635005
C           89.36275730724377        1.21151440028446        0.13342167628930
C           88.78079588913759        0.00582415099233        0.00760154533804
C           89.53737797090122       -1.21858638433946       -0.21652816204635
C           88.99676347662168       -2.37516649190347       -0.67853830262143
C           90.02471861118043       -3.36527328388062       -0.67891538044555
C           91.15739554027731       -2.77824729305838       -0.21461736659987
C           92.42265264523887       -3.49437808283080       -0.00189773298149
C           92.40963239033198       -4.97976491151706        0.09094003806023
C           93.07148564742444       -5.76580497213516       -0.86571216868241
C           93.03226020488700       -7.15763746517551       -0.78149475515472
C           92.33226608219671       -7.77655101022654        0.25394839622981
C           91.66807913311305       -7.00313469204372        1.20577666369045
C           91.70358319020490       -5.61122286612635        1.12536874735344
C           93.59797476111362       -2.83181720984535        0.11709290896255
C           94.90319710955784       -3.42649884311129        0.36912865442436
C           95.77693211343093       -2.41916030760604        0.35977623737017
C           95.03163706518805       -1.19096896641619        0.11526764463707
N           93.74427870929553       -1.42650956407625       -0.02448063224439
N           90.91844259716808       -1.41132126762894        0.08186892678733
C           92.16083431834140        4.94798981056160       -0.03461806060572
C           92.26389591880047        5.63337357201490       -1.25249137610842
C           92.22572712968179        7.02736682183919       -1.27605336075661
C           92.08599572960824        7.74347294197183       -0.08711727626868
C           91.98447550922096        7.06572566335253        1.12789084054326
C           92.02210418324417        5.67201298851599        1.15647772924405
H           96.73606969341759        0.15037705511373        0.00753948146340
H           96.70270914171756        2.77082417291561       -0.20905014408533
H           94.87734734425101        4.57300326867236       -0.22165994671828
H           89.44418714168971        4.47466845880878        0.44419871230931
H           87.62463941017789        2.65804759533029        0.47599796753484
H           87.96806017154618       -2.51598857874715       -0.96940089314471
H           89.92599527289306       -4.39885703424946       -0.97365900252021
H           93.61058221923673       -5.29528053450261       -1.68174711349776
H           93.54464468588014       -7.75991482340800       -1.52443365705987
H           92.30227474368418       -8.85882848842449        0.31750131859106
H           91.12076334303914       -7.48527284528017        2.00896916767225
H           91.18245262236971       -5.01916329008567        1.87076318035841
H           95.14993151111688       -4.46641427124100        0.53718026097548
H           96.83990048776445       -2.51279706178197        0.51569326541105
H           92.37180354324303        5.08340169335283       -2.18204120997081
H           92.30434569327156        7.55523998932714       -2.22057398568840
H           92.05628395500408        8.82743744884145       -0.10734394074574
H           91.87560090535723        7.62324870077182        2.05208305028853
H           91.94294661957331        5.15172994525192        2.10573792982597
C           40.79119393779612        0.02963255640548        0.02026843725479
C           42.14935201587636        0.00906510374671        0.00146025695005
C           43.40261847935076       -0.01311211019508        0.00038353257448
C           44.69603411947667       -0.02526921552140       -0.00168928493403
C           45.97246452969470       -0.01504423643849       -0.00667873991355
C           47.18749749405405        0.00455779703385       -0.01278216725646
C           48.47735426975490        0.02868618826166        0.00196577214888
C           49.66622566191234        0.03203346924423        0.02140025016692
C           59.07788621634705        0.03943086787208        0.02067448035577
C           60.39463588198799        0.00913671907362        0.00210851580689
C           61.62626874013745       -0.01289071272041        0.00056925254522
C           62.92089491955028       -0.02531712566204       -0.00199299791162
C           64.19085882522771       -0.01512214489454       -0.00665436004705
C           65.40777891774071        0.00455279831074       -0.01269392591103
C           66.69551997426510        0.02865231321254        0.00196964414561
C           67.88534424473816        0.03200784552103        0.02133820652389
C           77.29774887678118        0.03943883110992        0.02064359703749
C           78.61214219005930        0.00913615531619        0.00208891121256
C           79.84613043692073       -0.01287729374742        0.00054164092042
C           81.13824502932587       -0.02525016868177       -0.00194907525893
C           82.41436330323053       -0.01513109908058       -0.00654605900969
C           83.63064970946508        0.00427780252205       -0.01290719587143
C           84.94789352010378        0.02853430661735        0.00222946690329
C           86.15430519561183        0.02998900141403        0.02051787300562