404
 energy: -747.320347602332 gnorm: 2.180555679062 xtb: 6.5.1 (b24c23e)
C           69.64094900000001       -0.16943900000000       -0.33475100000000
C           70.35274200000001        1.18189200000000       -0.64266800000000
C           69.71736900000001        2.37369500000000       -0.90746200000000
C           70.72822600000001        3.34563300000000       -1.11587500000000
C           71.94988200000000        2.71334900000000       -0.97311000000000
N           71.70806200000000        1.39508000000000       -0.67565100000000
C           73.37802200000000        3.39175100000000       -1.09820600000000
C           73.41510800000000        4.81044900000000       -1.52946500000000
C           73.57248000000000        5.84455900000000       -0.59825300000000
C           73.56348400000000        7.17530300000000       -1.02805400000000
C           73.75212599999999        8.24897200000000       -0.02528600000000
O           73.34183500000000        9.45394100000000       -0.47513600000000
O           74.21437800000000        8.14099800000000        1.09425200000000
C           73.39696300000000        7.47313200000000       -2.38951700000000
C           73.24603299999998        6.44317300000000       -3.31881200000000
C           73.25542700000000        5.11682300000000       -2.88861800000000
C           74.51195400000000        2.68905000000000       -0.83470500000000
C           75.82067800000000        3.30886000000000       -0.88750100000000
C           76.72662699999999        2.40281200000000       -0.53931500000000
N           74.71185699999999        1.37899500000000       -0.48298700000000
C           76.04980900000000        1.14510200000000       -0.28795500000000
C           76.73186099999999        0.01983000000000        0.05654100000000
C           75.98336700000000       -1.37241600000000        0.23020300000000
C           76.58983600000001       -2.61423000000000        0.25194900000000
C           75.57468900000001       -3.58548700000000        0.42250100000000
C           74.37118200000000       -2.91528900000000        0.48704000000000
N           74.62679299999999       -1.56813500000000        0.35360600000000
C           72.94558900000000       -3.58932600000000        0.65915900000000
C           72.89684699999999       -5.01352200000000        1.05960500000000
C           72.91282099999998       -6.02034200000000        0.08488200000000
C           72.87811000000001       -7.36470800000000        0.45511000000000
C           72.82143599999999       -7.70889700000000        1.80639100000000
C           72.80315200000000       -6.70766500000000        2.78986300000000
C           72.73331899999999       -7.12336500000000        4.20997900000000
O           72.91373700000000       -6.10320900000000        5.06723200000000
O           72.55267200000000       -8.26058900000000        4.61219200000000
C           72.84390299999998       -5.36094500000000        2.41527600000000
C           71.81542899999999       -2.86964400000000        0.44024400000000
C           70.48728699999998       -3.44768500000000        0.55725100000000
C           69.59594199999999       -2.50411900000000        0.27421600000000
C           70.31742199999998       -1.29070200000000       -0.02384700000000
N           71.64642899999998       -1.55980500000000        0.08830400000000
H           68.55732899999998       -0.18951500000000       -0.36752900000000
H           68.64910200000000        2.52763800000000       -0.94188600000000
H           70.58064299999999        4.39071200000000       -1.34224300000000
H           72.42109900000000        0.68871200000000       -0.51120900000000
H           73.69788699999999        5.59468500000000        0.45363000000000
H           73.51699800000000       10.03006700000000        0.29660800000000
H           73.39358300000001        8.50345100000000       -2.73328600000000
H           73.12258699999998        6.66472400000000       -4.37455200000000
H           73.13670999999999        4.30297900000000       -3.60361800000000
H           76.03857099999999        4.32958900000000       -1.14443400000000
H           77.78388900000000        2.58840500000000       -0.48657200000000
H           77.64767000000001       -2.80887100000000        0.15448400000000
H           75.70988199999999       -4.65557600000000        0.48064800000000
H           73.91357499999999       -0.84399700000000        0.30003000000000
H           72.95190700000001       -5.73654800000000       -0.96513000000000
H           72.89478600000000       -8.13576700000000       -0.31034400000000
H           72.79161199999999       -8.75744000000000        2.09283600000000
H           72.84197700000000       -6.50191900000000        5.95530800000000
H           72.82714899999999       -4.56423100000000        3.15751400000000
H           70.25742500000000       -4.46438000000000        0.82244800000000
H           68.52730999999999       -2.61729100000000        0.27076100000000
C          158.63758400000000        0.03233500000000       -0.37794300000000
C          157.92579100000000       -1.32663200000000       -0.10569500000000
C          158.56116399999999       -2.52239600000000        0.14059300000000
C          157.55030700000000       -3.49448200000000        0.34831700000000
C          156.32865099999998       -2.85916100000000        0.21973800000000
N          156.57047099999997       -1.53464000000000       -0.04851600000000
C          154.90051000000000       -3.52932600000000        0.38331600000000
C          154.86342499999998       -5.00024700000000        0.57060800000000
C          154.70605300000000       -5.56253800000000        1.84354400000000
C          154.71504899999999       -6.95261600000000        1.99616100000000
C          154.52640700000001       -7.52170700000000        3.35057800000000
O          154.93669800000001       -8.80523900000000        3.43341400000000
O          154.06415500000000       -6.96489900000000        4.32781200000000
C          154.88157000000001       -7.78167800000000        0.87591900000000
C          155.03249999999997       -7.22238900000000       -0.39356800000000
C          155.02310599999998       -5.83615900000000       -0.54402800000000
C          153.76657900000001       -2.78033300000000        0.33606800000000
C          152.45785499999997       -3.36744400000000        0.54162500000000
C          151.55190500000000       -2.39825700000000        0.48839900000000
N          153.56667600000000       -1.44109600000000        0.12068000000000
C          152.22872400000000       -1.14786000000000        0.20287600000000
C          151.54667200000000        0.01983000000000        0.05654100000000
C          152.29516599999999        1.36116700000000       -0.35494600000000
C          151.68869699999999        2.50306600000000       -0.84345700000000
C          152.70384300000001        3.45903200000000       -1.08544500000000
C          153.90735100000001        2.87398200000000       -0.75220800000000
N          153.65173999999996        1.59025300000000       -0.32247700000000
C          155.33294400000000        3.55941300000000       -0.87109600000000
C          155.38168599999997        5.02273700000000       -1.08875100000000
C          155.36571200000000        5.54231800000000       -2.39021500000000
C          155.40042299999996        6.92043800000000       -2.60276100000000
C          155.45709699999998        7.78762800000000       -1.51078700000000
C          155.47538100000000        7.27672700000000       -0.20362900000000
C          155.54521399999999        8.23734100000000        0.92187400000000
O          155.36479600000001        7.65750500000000        2.12162100000000
O          155.72586100000001        9.43956300000000        0.82330700000000
C          155.43463000000000        5.89467600000000        0.00590400000000
C          156.46310399999999        2.81317900000000       -0.77621800000000
C          157.79124600000000        3.38846600000000       -0.90609200000000
C          158.68259100000000        2.41172000000000       -0.77806600000000
C          157.96111099999999        1.18261600000000       -0.55328400000000
N          156.63210399999997        1.47404800000000       -0.56112100000000
H          159.72120399999997        0.03723300000000       -0.41606600000000
H          159.62943100000001       -2.67694200000000        0.17220400000000
H          157.69789000000000       -4.54064900000000        0.56960000000000
H          155.85743400000001       -0.82285400000000       -0.18764400000000
H          154.58064600000000       -4.90396000000000        2.70096400000000
H          154.76153500000001       -9.01495800000000        4.37337600000000
H          154.88495000000000       -8.86243800000000        0.98404800000000
H          155.15594600000000       -7.85670500000000       -1.26610300000000
H          155.14182299999996       -5.38632400000000       -1.52953100000000
H          152.23996199999999       -4.40390700000000        0.72505400000000
H          150.49464399999997       -2.54599500000000        0.61249600000000
H          150.63086300000001        2.64075300000000       -1.01205900000000
H          152.56864999999999        4.45915400000000       -1.47044700000000
H          154.36495800000000        0.90763700000000       -0.07492400000000
H          155.32662600000000        4.85355800000000       -3.23204300000000
H          155.38374700000000        7.31058300000000       -3.61678100000000
H          155.48692099999997        8.86154900000000       -1.67867600000000
H          155.43655600000000        8.38482100000000        2.76866000000000
H          155.45138399999999        5.47161900000000        1.00924500000000
H          158.02110700000000        4.42463200000000       -1.08032900000000
H          159.75122300000001        2.51356000000000       -0.82754600000000
C           82.91698300000000        0.02093300000000        0.06503100000000
C           81.70804400000000        0.00747800000000        0.05658400000000
C           80.28651499999998        0.01629700000000        0.04460100000000
C           79.07484599999999        0.02373600000000        0.05546400000000
C           84.33358800000001        0.01425800000000        0.06556400000000
C           85.55428400000000        0.02373600000000        0.05546400000000
C           98.83004699999999        0.02093300000000        0.06503100000000
C           97.62110800000001        0.00747800000000        0.05658400000000
C           96.19957899999999        0.01629700000000        0.04460100000000
C           94.98790899999999        0.02373600000000        0.05546400000000
C          100.24665100000000        0.01425800000000        0.06556400000000
C          101.46734700000000        0.02373600000000        0.05546400000000
C          114.74311000000000        0.02093300000000        0.06503100000000
C          113.53417100000000        0.00747800000000        0.05658400000000
C          112.11264199999999        0.01629700000000        0.04460100000000
C          110.90097299999998        0.02373600000000        0.05546400000000
C          116.15971500000001        0.01425800000000        0.06556400000000
C          117.38041000000000        0.02373600000000        0.05546400000000
C          130.65617399999999        0.02093300000000        0.06503100000000
C          129.44723400000001        0.00747800000000        0.05658400000000
C          128.02570600000001        0.01629700000000        0.04460100000000
C          126.81403600000000        0.02373600000000        0.05546400000000
C          132.07277800000000        0.01425800000000        0.06556400000000
C          133.29347400000000        0.02373600000000        0.05546400000000
C          146.56923699999999        0.02093300000000        0.06503100000000
C          145.36029800000000        0.00747800000000        0.05658400000000
C          143.93876899999998        0.01629700000000        0.04460100000000
C          142.72710000000001        0.02373600000000        0.05546400000000
C          147.98584199999999        0.01425800000000        0.06556400000000
C          149.20653700000000        0.02373600000000        0.05546400000000
C           86.61905800000000       -0.01294600000000       -0.03543600000000
C           87.41480599999998        1.35358400000000       -0.13288200000000
C           86.91432600000000        2.57309100000000       -0.54160200000000
C           87.95314700000000        3.52800000000000       -0.39436500000000
C           89.05639300000000        2.86006600000000        0.09385600000000
N           88.74181899999999        1.52681600000000        0.17473600000000
C           90.44244399999999        3.50530300000000        0.50135400000000
C           90.42408700000000        4.89652000000000        1.00577400000000
C           90.80310100000000        5.96437700000000        0.18224400000000
C           90.77046000000000        7.27338500000000        0.67463300000000
C           91.17582600000000        8.38007600000000       -0.22506800000000
O           91.14762999999999        9.58497900000000        0.38099100000000
O           91.50957399999999        8.29660700000000       -1.39228100000000
C           90.35572300000000        7.51338800000000        1.99357200000000
C           89.97506900000000        6.45078900000000        2.81410000000000
C           90.00849199999999        5.14770700000000        2.31976100000000
C           91.57983299999999        2.76382900000000        0.45618800000000
C           92.86509800000000        3.28874200000000        0.86904300000000
C           93.77446600000000        2.33096600000000        0.72349700000000
N           91.79067300000000        1.46860900000000        0.07321000000000
C           93.11407899999999        1.14660900000000        0.21262300000000
C           93.77751200000000       -0.01294600000000       -0.03543600000000
C           92.98227499999999       -1.27096600000000       -0.57890500000000
C           93.48530499999998       -2.28892400000000       -1.36325700000000
C           92.44743099999998       -3.23969800000000       -1.53951500000000
C           91.34149400000000       -2.76909900000000       -0.86293500000000
N           91.65494699999999       -1.53645800000000       -0.34730500000000
C           89.95299100000000       -3.51146800000000       -0.69925500000000
C           89.96109500000000       -4.99128500000000       -0.74494200000000
C           89.52498300000001       -5.66361200000000       -1.89505300000000
C           89.54469599999999       -7.05680800000000       -1.95031700000000
C           90.00546299999999       -7.78634300000000       -0.85365900000000
C           90.44730199999998       -7.12345300000000        0.30109700000000
C           90.92873400000001       -7.94540500000000        1.43668800000000
O           91.31955700000000       -7.21243700000000        2.49277900000000
O           90.98509700000000       -9.16335100000000        1.46273600000000
C           90.42568500000000       -5.72560500000000        0.35304900000000
C           88.81728400000000       -2.79645400000000       -0.48674200000000
C           87.53017599999998       -3.42784200000000       -0.27901400000000
C           86.62136200000000       -2.47585800000000       -0.09669200000000
C           87.28337100000000       -1.18959000000000       -0.17888800000000
N           88.60867999999999       -1.44788400000000       -0.40593400000000
H           85.90907199999999        2.76155000000000       -0.88677500000000
H           87.89610100000000        4.58585700000000       -0.60178800000000
H           89.39936500000000        0.78149000000000        0.38483600000000
H           91.12414699999999        5.75612900000000       -0.83699300000000
H           91.44000100000000       10.18140600000000       -0.33841800000000
H           90.32466300000000        8.52386200000000        2.39012900000000
H           89.65254400000001        6.62990100000000        3.83509800000000
H           89.71429000000001        4.31049400000000        2.95048800000000
H           93.06062300000001        4.27992900000000        1.23674500000000
H           94.81901600000000        2.43540000000000        0.95386600000000
H           94.49183499999999       -2.35343500000000       -1.74793500000000
H           92.50671699999999       -4.17115500000000       -2.08201800000000
H           90.99639400000000       -0.90216700000000        0.09547500000000
H           89.16672300000000       -5.08148000000000       -2.74249300000000
H           89.20097800000001       -7.56524500000000       -2.84570200000000
H           90.01964200000000       -8.87219800000000       -0.90018700000000
H           91.61111300000000       -7.86592700000000        3.15679600000000
H           90.76418200000001       -5.18679400000000        1.23558400000000
H           87.33378599999999       -4.48485700000000       -0.26391500000000
H           85.57626600000000       -2.65039900000000        0.08311200000000
C          102.53212100000000       -0.01294600000000       -0.03543600000000
C          103.32786900000001        1.35358400000000       -0.13288200000000
C          102.82738900000000        2.57309100000000       -0.54160200000000
C          103.86621100000001        3.52800000000000       -0.39436500000000
C          104.96945699999999        2.86006600000000        0.09385600000000
N          104.65488199999999        1.52681600000000        0.17473600000000
C          106.35550700000000        3.50530300000000        0.50135400000000
C          106.33715100000001        4.89652000000000        1.00577400000000
C          106.71616500000000        5.96437700000000        0.18224400000000
C          106.68352399999999        7.27338500000000        0.67463300000000
C          107.08888899999998        8.38007600000000       -0.22506800000000
O          107.06069400000000        9.58497900000000        0.38099100000000
O          107.42263799999999        8.29660700000000       -1.39228100000000
C          106.26878600000001        7.51338800000000        1.99357200000000
C          105.88813199999998        6.45078900000000        2.81410000000000
C          105.92155500000000        5.14770700000000        2.31976100000000
C          107.49289700000000        2.76382900000000        0.45618800000000
C          108.77816099999998        3.28874200000000        0.86904300000000
C          109.68753000000000        2.33096600000000        0.72349700000000
N          107.70373599999999        1.46860900000000        0.07321000000000
C          109.02714200000000        1.14660900000000        0.21262300000000
C          109.69057500000000       -0.01294600000000       -0.03543600000000
C          108.89533899999999       -1.27096600000000       -0.57890500000000
C          109.39836799999999       -2.28892400000000       -1.36325700000000
C          108.36049400000000       -3.23969800000000       -1.53951500000000
C          107.25455800000000       -2.76909900000000       -0.86293500000000
N          107.56800999999999       -1.53645800000000       -0.34730500000000
C          105.86605500000000       -3.51146800000000       -0.69925500000000
C          105.87415799999998       -4.99128500000000       -0.74494200000000
C          105.43804700000000       -5.66361200000000       -1.89505300000000
C          105.45775999999999       -7.05680800000000       -1.95031700000000
C          105.91852600000000       -7.78634300000000       -0.85365900000000
C          106.36036500000000       -7.12345300000000        0.30109700000000
C          106.84179700000000       -7.94540500000000        1.43668800000000
O          107.23262000000000       -7.21243700000000        2.49277900000000
O          106.89815999999999       -9.16335100000000        1.46273600000000
C          106.33874900000001       -5.72560500000000        0.35304900000000
C          104.73034699999999       -2.79645400000000       -0.48674200000000
C          103.44323900000001       -3.42784200000000       -0.27901400000000
C          102.53442600000000       -2.47585800000000       -0.09669200000000
C          103.19643499999998       -1.18959000000000       -0.17888800000000
N          104.52174299999999       -1.44788400000000       -0.40593400000000
H          101.82213600000000        2.76155000000000       -0.88677500000000
H          103.80916400000000        4.58585700000000       -0.60178800000000
H          105.31242899999999        0.78149000000000        0.38483600000000
H          107.03721100000000        5.75612900000000       -0.83699300000000
H          107.35306500000000       10.18140600000000       -0.33841800000000
H          106.23772599999999        8.52386200000000        2.39012900000000
H          105.56560700000000        6.62990100000000        3.83509800000000
H          105.62735300000000        4.31049400000000        2.95048800000000
H          108.97368700000000        4.27992900000000        1.23674500000000
H          110.73208000000000        2.43540000000000        0.95386600000000
H          110.40489900000000       -2.35343500000000       -1.74793500000000
H          108.41978100000000       -4.17115500000000       -2.08201800000000
H          106.90945799999999       -0.90216700000000        0.09547500000000
H          105.07978700000000       -5.08148000000000       -2.74249300000000
H          105.11404200000000       -7.56524500000000       -2.84570200000000
H          105.93270600000000       -8.87219800000000       -0.90018700000000
H          107.52417699999998       -7.86592700000000        3.15679600000000
H          106.67724500000000       -5.18679400000000        1.23558400000000
H          103.24684999999998       -4.48485700000000       -0.26391500000000
H          101.48932999999998       -2.65039900000000        0.08311200000000
C          118.44518499999998       -0.01294600000000       -0.03543600000000
C          119.24093300000000        1.35358400000000       -0.13288200000000
C          118.74045300000000        2.57309100000000       -0.54160200000000
C          119.77927400000000        3.52800000000000       -0.39436500000000
C          120.88251999999999        2.86006600000000        0.09385600000000
N          120.56794600000001        1.52681600000000        0.17473600000000
C          122.26857099999999        3.50530300000000        0.50135400000000
C          122.25021400000000        4.89652000000000        1.00577400000000
C          122.62922800000000        5.96437700000000        0.18224400000000
C          122.59658699999999        7.27338500000000        0.67463300000000
C          123.00195299999999        8.38007600000000       -0.22506800000000
O          122.97375700000001        9.58497900000000        0.38099100000000
O          123.33570100000000        8.29660700000000       -1.39228100000000
C          122.18184999999998        7.51338800000000        1.99357200000000
C          121.80119599999999        6.45078900000000        2.81410000000000
C          121.83461900000000        5.14770700000000        2.31976100000000
C          123.40595999999998        2.76382900000000        0.45618800000000
C          124.69122499999999        3.28874200000000        0.86904300000000
C          125.60059299999999        2.33096600000000        0.72349700000000
N          123.61679999999998        1.46860900000000        0.07321000000000
C          124.94020600000000        1.14660900000000        0.21262300000000
C          125.60363899999999       -0.01294600000000       -0.03543600000000
C          124.80840200000000       -1.27096600000000       -0.57890500000000
C          125.31143200000000       -2.28892400000000       -1.36325700000000
C          124.27355799999999       -3.23969800000000       -1.53951500000000
C          123.16762100000000       -2.76909900000000       -0.86293500000000
N          123.48107400000001       -1.53645800000000       -0.34730500000000
C          121.77911800000000       -3.51146800000000       -0.69925500000000
C          121.78722199999999       -4.99128500000000       -0.74494200000000
C          121.35110999999999       -5.66361200000000       -1.89505300000000
C          121.37082300000000       -7.05680800000000       -1.95031700000000
C          121.83159000000001       -7.78634300000000       -0.85365900000000
C          122.27342899999999       -7.12345300000000        0.30109700000000
C          122.75486099999999       -7.94540500000000        1.43668800000000
O          123.14568400000000       -7.21243700000000        2.49277900000000
O          122.81122399999998       -9.16335100000000        1.46273600000000
C          122.25181199999999       -5.72560500000000        0.35304900000000
C          120.64341100000000       -2.79645400000000       -0.48674200000000
C          119.35630300000000       -3.42784200000000       -0.27901400000000
C          118.44748900000000       -2.47585800000000       -0.09669200000000
C          119.10949799999999       -1.18959000000000       -0.17888800000000
N          120.43480700000001       -1.44788400000000       -0.40593400000000
H          117.73519899999999        2.76155000000000       -0.88677500000000
H          119.72222800000000        4.58585700000000       -0.60178800000000
H          121.22549199999999        0.78149000000000        0.38483600000000
H          122.95027399999999        5.75612900000000       -0.83699300000000
H          123.26612799999999       10.18140600000000       -0.33841800000000
H          122.15079000000000        8.52386200000000        2.39012900000000
H          121.47867100000001        6.62990100000000        3.83509800000000
H          121.54041700000001        4.31049400000000        2.95048800000000
H          124.88675000000001        4.27992900000000        1.23674500000000
H          126.64514299999999        2.43540000000000        0.95386600000000
H          126.31796199999999       -2.35343500000000       -1.74793500000000
H          124.33284399999999       -4.17115500000000       -2.08201800000000
H          122.82252099999998       -0.90216700000000        0.09547500000000
H          120.99285000000000       -5.08148000000000       -2.74249300000000
H          121.02710500000001       -7.56524500000000       -2.84570200000000
H          121.84576900000000       -8.87219800000000       -0.90018700000000
H          123.43723999999999       -7.86592700000000        3.15679600000000
H          122.59030899999999       -5.18679400000000        1.23558400000000
H          119.15991300000000       -4.48485700000000       -0.26391500000000
H          117.40239299999999       -2.65039900000000        0.08311200000000
C          134.35824800000000       -0.01294600000000       -0.03543600000000
C          135.15399600000001        1.35358400000000       -0.13288200000000
C          134.65351600000000        2.57309100000000       -0.54160200000000
C          135.69233800000001        3.52800000000000       -0.39436500000000
C          136.79558399999999        2.86006600000000        0.09385600000000
N          136.48100900000000        1.52681600000000        0.17473600000000
C          138.18163400000000        3.50530300000000        0.50135400000000
C          138.16327799999999        4.89652000000000        1.00577400000000
C          138.54229200000000        5.96437700000000        0.18224400000000
C          138.50964999999999        7.27338500000000        0.67463300000000
C          138.91501599999998        8.38007600000000       -0.22506800000000
O          138.88682099999997        9.58497900000000        0.38099100000000
O          139.24876499999996        8.29660700000000       -1.39228100000000
C          138.09491299999999        7.51338800000000        1.99357200000000
C          137.71425900000000        6.45078900000000        2.81410000000000
C          137.74768200000000        5.14770700000000        2.31976100000000
C          139.31902400000001        2.76382900000000        0.45618800000000
C          140.60428799999997        3.28874200000000        0.86904300000000
C          141.51365699999999        2.33096600000000        0.72349700000000
N          139.52986299999998        1.46860900000000        0.07321000000000
C          140.85326900000001        1.14660900000000        0.21262300000000
C          141.51670200000001       -0.01294600000000       -0.03543600000000
C          140.72146599999996       -1.27096600000000       -0.57890500000000
C          141.22449499999996       -2.28892400000000       -1.36325700000000
C          140.18662100000000       -3.23969800000000       -1.53951500000000
C          139.08068499999999       -2.76909900000000       -0.86293500000000
N          139.39413700000000       -1.53645800000000       -0.34730500000000
C          137.69218200000000       -3.51146800000000       -0.69925500000000
C          137.70028500000001       -4.99128500000000       -0.74494200000000
C          137.26417400000000       -5.66361200000000       -1.89505300000000
C          137.28388699999996       -7.05680800000000       -1.95031700000000
C          137.74465300000000       -7.78634300000000       -0.85365900000000
C          138.18649199999996       -7.12345300000000        0.30109700000000
C          138.66792400000000       -7.94540500000000        1.43668800000000
O          139.05874700000001       -7.21243700000000        2.49277900000000
O          138.72428700000000       -9.16335100000000        1.46273600000000
C          138.16487599999999       -5.72560500000000        0.35304900000000
C          136.55647400000001       -2.79645400000000       -0.48674200000000
C          135.26936599999999       -3.42784200000000       -0.27901400000000
C          134.36055300000001       -2.47585800000000       -0.09669200000000
C          135.02256199999999       -1.18959000000000       -0.17888800000000