      -----------------------------------------------------------      
     |                   =====================                   |     
     |                           x T B                           |     
     |                   =====================                   |     
     |                         S. Grimme                         |     
     |          Mulliken Center for Theoretical Chemistry        |     
     |                    University of Bonn                     |     
      -----------------------------------------------------------      

   * xtb version 6.5.1 (b24c23e) compiled by 'conda@728c89f4b128' on 2022-07-12

   xtb is free software: you can redistribute it and/or modify it under
   the terms of the GNU Lesser General Public License as published by
   the Free Software Foundation, either version 3 of the License, or
   (at your option) any later version.
   
   xtb is distributed in the hope that it will be useful,
   but WITHOUT ANY WARRANTY; without even the implied warranty of
   MERCHANTABILITY or FITNESS FOR A PARTICULAR PURPOSE.  See the
   GNU Lesser General Public License for more details.
   
   Cite this work as:
   * C. Bannwarth, E. Caldeweyher, S. Ehlert, A. Hansen, P. Pracht,
     J. Seibert, S. Spicher, S. Grimme, WIREs Comput. Mol. Sci., 2020, 11,
     e01493. DOI: 10.1002/wcms.1493
   
   for GFN2-xTB:
   * C. Bannwarth, S. Ehlert and S. Grimme., J. Chem. Theory Comput., 2019,
     15, 1652-1671. DOI: 10.1021/acs.jctc.8b01176
   for GFN1-xTB:
   * S. Grimme, C. Bannwarth, P. Shushkov, J. Chem. Theory Comput., 2017,
     13, 1989-2009. DOI: 10.1021/acs.jctc.7b00118
   for GFN0-xTB:
   * P. Pracht, E. Caldeweyher, S. Ehlert, S. Grimme, ChemRxiv, 2019, preprint.
     DOI: 10.26434/chemrxiv.8326202.v1
   for GFN-FF:
   * S. Spicher and S. Grimme, Angew. Chem. Int. Ed., 2020, 59, 15665-15673.
     DOI: 10.1002/anie.202004239
   
   for ALPB and GBSA implicit solvation:
   * S. Ehlert, M. Stahn, S. Spicher, S. Grimme, J. Chem. Theory Comput.,
     2021, 17, 4250-4261. DOI: 10.1021/acs.jctc.1c00471
   
   for DFT-D4:
   * E. Caldeweyher, C. Bannwarth and S. Grimme, J. Chem. Phys., 2017,
     147, 034112. DOI: 10.1063/1.4993215
   * E. Caldeweyher, S. Ehlert, A. Hansen, H. Neugebauer, S. Spicher,
     C. Bannwarth and S. Grimme, J. Chem. Phys., 2019, 150, 154122.
     DOI: 10.1063/1.5090222
   * E. Caldeweyher, J.-M. Mewes, S. Ehlert and S. Grimme, Phys. Chem. Chem. Phys.
     2020, 22, 8499-8512. DOI: 10.1039/D0CP00502A
   
   for sTDA-xTB:
   * S. Grimme and C. Bannwarth, J. Chem. Phys., 2016, 145, 054103.
     DOI: 10.1063/1.4959605
   
   in the mass-spec context:
   * V. Asgeirsson, C. Bauer and S. Grimme, Chem. Sci., 2017, 8, 4879.
     DOI: 10.1039/c7sc00601b
   * J. Koopman and S. Grimme, ACS Omega 2019, 4, 12, 15120-15133.
     DOI: 10.1021/acsomega.9b02011
   
   for metadynamics refer to:
   * S. Grimme, J. Chem. Theory Comput., 2019, 155, 2847-2862
     DOI: 10.1021/acs.jctc.9b00143
   
   for SPH calculations refer to:
   * S. Spicher and S. Grimme, J. Chem. Theory Comput., 2021, 17, 1701-1714
     DOI: 10.1021/acs.jctc.0c01306
   
   with help from (in alphabetical order)
   P. Atkinson, C. Bannwarth, F. Bohle, G. Brandenburg, E. Caldeweyher
   M. Checinski, S. Dohm, S. Ehlert, S. Ehrlich, I. Gerasimov, C. Hölzer
   A. Katbashev, J. Koopman, C. Lavigne, S. Lehtola, F. März, M. Müller,
   F. Musil, H. Neugebauer, J. Pisarek, C. Plett, P. Pracht, F. Pultar,
   J. Seibert, P. Shushkov, S. Spicher, M. Stahn, M. Steiner, T. Strunk,
   J. Stückrath, T. Rose, and J. Unsleber
   
 * started run on 2022/07/30 at 08:13:37.380     

           -------------------------------------------------
          |                Calculation Setup                |
           -------------------------------------------------

          program call               : xtb xtbopt.xyz --gfn 1 --vipea
          hostname                   : cx3-15-15.cx3.hpc.ic.ac.uk
          coordinate file            : xtbopt.xyz
          omp threads                :                     1

   ID    Z sym.   atoms
    1   29 Cu     1, 75
    2    6 C      2-6, 8-20, 22-27, 29-42, 76-80, 82-94, 96-101, 103-116,
                  149-152
    3    7 N      7, 21, 28, 43, 81, 95, 102, 117
    4    1 H      44-74, 118-148

           -------------------------------------------------
          |                 I P E A - x T B                 |
           -------------------------------------------------

        Reference                      10.1039/c7sc00601b
      * Hamiltonian:
        H0-scaling (s, p, d)           2.150000    2.300000    2.000000
        zeta-weighting                 0.000000
      * Dispersion:
        s8                             2.400000
        a1                             0.630000
        a2                             5.000000
        s9                             0.000000
      * Repulsion:
        kExp                           1.500000
        rExp                           1.000000
      * Coulomb:
        alpha                          1.000000
        third order                    atomic
        anisotropic                    false
      * Halogen bond correction:
        rad-scale                      1.300000
        damping                        0.440000


          ...................................................
          :                      SETUP                      :
          :.................................................:
          :  # basis functions                 584          :
          :  # atomic orbitals                 582          :
          :  # shells                          394          :
          :  # electrons                       444          :
          :  # halogen bonds                     0          :
          :  max. iterations                   250          :
          :  Hamiltonian                  GFN1-xTB          :
          :  restarted?                      false          :
          :  GBSA solvation                  false          :
          :  PC potential                    false          :
          :  electronic temp.          300.0000000     K    :
          :  accuracy                    1.0000000          :
          :  -> integral cutoff          0.2500000E+02      :
          :  -> integral neglect         0.1000000E-07      :
          :  -> SCF convergence          0.1000000E-05 Eh   :
          :  -> wf. convergence          0.2000000E-04 e    :
          :  Broyden damping             0.4000000          :
          ...................................................

 iter      E             dE          RMSdq      gap      omega  full diag
   1   -271.5739340 -0.271574E+03  0.970E+00    0.00       0.0  T
   2   -272.2550835 -0.681150E+00  0.615E+00    0.00       1.0  T
   3   -268.0210800  0.423400E+01  0.432E+00    0.45       1.0  T
   4   -272.6081109 -0.458703E+01  0.102E+00    0.05       1.0  T
   5   -272.7973351 -0.189224E+00  0.833E-01    0.48       1.0  T
   6   -272.9720722 -0.174737E+00  0.361E-01    0.06       1.0  T
   7   -272.8894446  0.826275E-01  0.635E-01    0.11       1.0  T
   8   -273.0112992 -0.121855E+00  0.179E-01    0.01       1.0  T
   9   -273.0120733 -0.774107E-03  0.145E-01    0.02       1.0  T
  10   -273.0111005  0.972790E-03  0.147E-01    0.02       1.0  T
  11   -272.9997908  0.113098E-01  0.237E-01    0.04       1.0  T
  12   -273.0128021 -0.130113E-01  0.131E-01    0.02       1.0  T
  13   -273.0184945 -0.569243E-02  0.818E-03    0.00       1.0  T
  14   -273.0184959 -0.145194E-05  0.800E-03    0.00       1.0  T
  15   -273.0184307  0.652183E-04  0.161E-02    0.00       1.0  T
  16   -273.0185121 -0.813545E-04  0.329E-03    0.00       2.5  T
  17   -273.0185156 -0.348495E-05  0.249E-04    0.00      32.5  T
  18   -273.0185155  0.390099E-07  0.422E-04    0.00      19.2  T
  19   -273.0185156 -0.290264E-07  0.289E-04    0.00      28.0  T
  20   -273.0185156 -0.248850E-07  0.879E-05    0.00      92.3  T
  21   -273.0185156 -0.232046E-08  0.275E-05    0.00     294.9  T

   *** convergence criteria satisfied after 21 iterations ***

         #    Occupation            Energy/Eh            Energy/eV
      -------------------------------------------------------------
         1        2.0000           -1.0142421             -27.5989
       ...           ...                  ...                  ...
       216        2.0000           -0.4138055             -11.2602
       217        2.0000           -0.4111447             -11.1878
       218        2.0000           -0.3863567             -10.5133
       219        2.0000           -0.3858331             -10.4991
       220        2.0000           -0.3858318             -10.4990
       221        2.0000           -0.3691142             -10.0441
       222        0.8457           -0.3132364              -8.5236 (HOMO)
       223        0.8121           -0.3131707              -8.5218 (LUMO)
       224        0.3422           -0.3120328              -8.4908
       225        0.0000           -0.2994875              -8.1495
       226        0.0000           -0.2994854              -8.1494
       227                         -0.2946440              -8.0177
       ...                                ...                  ...
       582                        565.2240522           15380.5293
      -------------------------------------------------------------
                  HL-Gap            0.0000657 Eh            0.0018 eV
             Fermi-level           -0.3135319 Eh           -8.5316 eV

 SCC (total)                   0 d,  0 h,  0 min,  3.151 sec
 SCC setup                      ...        0 min,  0.003 sec (  0.096%)
 Dispersion                     ...        0 min,  0.005 sec (  0.154%)
 classical contributions        ...        0 min,  0.002 sec (  0.068%)
 integral evaluation            ...        0 min,  0.375 sec ( 11.914%)
 iterations                     ...        0 min,  1.859 sec ( 59.013%)
 molecular gradient             ...        0 min,  0.885 sec ( 28.103%)
 printout                       ...        0 min,  0.020 sec (  0.650%)

         :::::::::::::::::::::::::::::::::::::::::::::::::::::
         ::                     SUMMARY                     ::
         :::::::::::::::::::::::::::::::::::::::::::::::::::::
         :: total energy            -267.754176359884 Eh    ::
         :: gradient norm              0.063609117442 Eh/a0 ::
         :: HOMO-LUMO gap              0.001787854654 eV    ::
         ::.................................................::
         :: SCC energy              -273.018515587497 Eh    ::
         :: -> electrostatic           0.111599932290 Eh    ::
         :: repulsion energy           5.401154386499 Eh    ::
         :: dispersion energy         -0.136815158886 Eh    ::
         :: halogen bond corr.         0.000000000000 Eh    ::
         :: add. restraining           0.000000000000 Eh    ::
         :: total charge              -0.000000000050 e     ::
         :::::::::::::::::::::::::::::::::::::::::::::::::::::

           ------------------------------------------------- 
          |        vertical delta SCC IP calculation        |
           ------------------------------------------------- 
   1   -272.6538403 -0.272654E+03  0.279E-01    0.00       0.0  T
   2   -272.6647550 -0.109147E-01  0.114E-01    0.00       1.0  T
   3   -272.6660477 -0.129269E-02  0.757E-02    0.00       1.0  T
   4   -272.6656197  0.427957E-03  0.728E-02    0.02       1.0  T
   5   -272.6404453  0.251744E-01  0.273E-01    0.11       1.0  T
   6   -272.6667676 -0.263223E-01  0.253E-02    0.00       1.0  T
   7   -272.6669167 -0.149131E-03  0.150E-02    0.00       1.0  T
   8   -272.6669911 -0.743714E-04  0.295E-03    0.00       2.8  T
   9   -272.6669922 -0.111153E-05  0.199E-03    0.00       4.1  T
  10   -272.6669936 -0.136289E-05  0.726E-04    0.00      11.2  T
  11   -272.6669936 -0.703620E-07  0.513E-04    0.00      15.8  T
  12   -272.6669937 -0.890870E-07  0.140E-04    0.00      58.0  T
  13   -272.6669937 -0.420732E-08  0.609E-05    0.00     133.3  T
     SCC iter.                  ...        0 min,  1.156 sec
     gradient                   ...        0 min,  0.885 sec
------------------------------------------------------------------------
empirical IP shift (eV):    4.8455
delta SCC IP (eV):    4.7199
------------------------------------------------------------------------
           ------------------------------------------------- 
          |        vertical delta SCC EA calculation        |
           ------------------------------------------------- 
   1   -273.2351744 -0.273235E+03  0.642E-01    0.20       0.0  T
   2   -273.1080138  0.127161E+00  0.799E-01    0.00       1.0  T
   3   -273.2591249 -0.151111E+00  0.515E-01    0.18       1.0  T
   4   -273.2860026 -0.268777E-01  0.275E-01    0.05       1.0  T
   5   -273.2733180  0.126846E-01  0.279E-01    0.00       1.0  T
   6   -273.2213238  0.519942E-01  0.475E-01    0.04       1.0  T
   7   -273.2942364 -0.729126E-01  0.800E-02    0.00       1.0  T
   8   -273.2946733 -0.436883E-03  0.552E-02    0.00       1.0  T
   9   -273.2957049 -0.103158E-02  0.124E-02    0.00       1.0  T
  10   -273.2957295 -0.246078E-04  0.683E-03    0.00       1.2  T
  11   -273.2956996  0.299108E-04  0.105E-02    0.00       1.0  T
  12   -273.2957393 -0.396960E-04  0.117E-03    0.00       6.9  T
  13   -273.2957392  0.164318E-07  0.108E-03    0.00       7.5  T
  14   -273.2957395 -0.299779E-06  0.358E-04    0.00      22.7  T
  15   -273.2957396 -0.976104E-08  0.254E-04    0.00      31.9  T
  16   -273.2957395  0.535283E-07  0.455E-04    0.00      17.8  T
  17   -273.2957396 -0.711436E-07  0.360E-05    0.00     225.4  T
  18   -273.2957396 -0.174907E-09  0.160E-05    0.00     506.1  T
     SCC iter.                  ...        0 min,  1.585 sec
     gradient                   ...        0 min,  0.878 sec
------------------------------------------------------------------------
empirical EA shift (eV):    4.8455
delta SCC EA (eV):    2.6981
------------------------------------------------------------------------
           -------------------------------------------------
          |                Property Printout                |
           -------------------------------------------------

    * Orbital Energies and Occupations

         #    Occupation            Energy/Eh            Energy/eV
      -------------------------------------------------------------
         1        2.0000           -0.9443115             -25.6960
       ...           ...                  ...                  ...
       211        2.0000           -0.3540189              -9.6333
       212        2.0000           -0.3519150              -9.5761
       213        2.0000           -0.3450023              -9.3880
       214        2.0000           -0.3449984              -9.3879
       215        2.0000           -0.3448976              -9.3851
       216        2.0000           -0.3433906              -9.3441
       217        2.0000           -0.3387213              -9.2171
       218        2.0000           -0.3170680              -8.6279
       219        2.0000           -0.3168954              -8.6232
       220        2.0000           -0.3168948              -8.6231
       221        2.0000           -0.2990453              -8.1374
       222        1.0444           -0.2417832              -6.5793
       223        0.9960           -0.2416796              -6.5764 (HOMO)
       224        0.9594           -0.2416012              -6.5743 (LUMO)
       225        0.0001           -0.2317215              -6.3055
       226        0.0001           -0.2317196              -6.3054
       227                         -0.2245096              -6.1092
       228                         -0.1898508              -5.1661
       229                         -0.1840212              -5.0075
       230                         -0.1790616              -4.8725
       231                         -0.1748020              -4.7566
       232                         -0.1728428              -4.7033
       233                         -0.1679958              -4.5714
       234                         -0.1604300              -4.3655
       ...                                ...                  ...
       582                        565.2849671           15382.1869
      -------------------------------------------------------------
                  HL-Gap            0.0000784 Eh            0.0021 eV
             Fermi-level           -0.2416881 Eh           -6.5767 eV

  Mulliken/CM5 charges         n(s)   n(p)   n(d)
     1Cu    0.25397  0.61027   0.536  0.891  9.319
     2C    -0.03547 -0.07665   1.079  2.957  0.000
     3C     0.05579  0.11735   1.118  2.826  0.000
     4C    -0.04470 -0.09082   1.087  2.958  0.000
     5C    -0.03856 -0.08445   1.080  2.959  0.000
     6C     0.05597  0.12040   1.100  2.844  0.000
     7N    -0.21537 -0.46664   1.319  3.897  0.000
     8C     0.01321  0.01758   1.072  2.914  0.000
     9C     0.00430 -0.00063   1.060  2.936  0.000
    10C     0.00202 -0.01279   1.089  2.909  0.000
    11C    -0.05584 -0.19982   1.067  2.989  0.000
    12C    -0.03327 -0.08504   1.062  2.972  0.000
    13C    -0.00612 -0.02380   1.096  2.910  0.000
    14C    -0.06221 -0.20691   1.076  2.986  0.000
    15C    -0.03321 -0.08499   1.062  2.972  0.000
    16C     0.00205 -0.01277   1.089  2.909  0.000
    17C    -0.05582 -0.19981   1.067  2.989  0.000
    18C     0.05524  0.11887   1.097  2.847  0.000
    19C    -0.03915 -0.08503   1.077  2.962  0.000
    20C    -0.04102 -0.08624   1.085  2.956  0.000
    21N    -0.21098 -0.46139   1.322  3.889  0.000
    22C     0.06094  0.12716   1.123  2.816  0.000
    23C     0.00710  0.01399   1.079  2.914  0.000
    24C     0.06093  0.12716   1.123  2.816  0.000
    25C    -0.04102 -0.08624   1.085  2.956  0.000
    26C    -0.03913 -0.08503   1.077  2.962  0.000
    27C     0.05525  0.11888   1.097  2.848  0.000
    28N    -0.21096 -0.46139   1.322  3.889  0.000
    29C     0.01321  0.01757   1.072  2.914  0.000
    30C     0.00430 -0.00063   1.060  2.936  0.000
    31C     0.00215 -0.01268   1.089  2.909  0.000
    32C    -0.05580 -0.19979   1.066  2.989  0.000
    33C    -0.03324 -0.08498   1.061  2.972  0.000
    34C    -0.00612 -0.02380   1.096  2.910  0.000
    35C    -0.06223 -0.20692   1.076  2.986  0.000
    36C    -0.03321 -0.08502   1.062  2.971  0.000
    37C     0.00193 -0.01289   1.089  2.909  0.000
    38C    -0.05585 -0.19983   1.067  2.989  0.000
    39C     0.05595  0.12038   1.100  2.844  0.000
    40C    -0.03857 -0.08446   1.080  2.959  0.000
    41C    -0.04471 -0.09083   1.087  2.958  0.000
    42C     0.05579  0.11736   1.118  2.826  0.000
    43N    -0.21537 -0.46662   1.319  3.897  0.000
    44H     0.01345  0.07231   0.987  0.000  0.000
    45H     0.01933  0.07584   0.981  0.000  0.000
    46H     0.01247  0.07095   0.988  0.000  0.000
    47H     0.01288  0.06662   0.987  0.000  0.000
    48H     0.01387  0.06779   0.986  0.000  0.000
    49H     0.01138  0.06406   0.989  0.000  0.000
    50H     0.02650  0.08400   0.974  0.000  0.000
    51H     0.01660  0.06900   0.983  0.000  0.000
    52H     0.02195  0.07384   0.978  0.000  0.000
    53H     0.01666  0.06905   0.983  0.000  0.000
    54H     0.02658  0.08408   0.973  0.000  0.000
    55H     0.01537  0.06911   0.985  0.000  0.000
    56H     0.01140  0.06409   0.989  0.000  0.000
    57H     0.01169  0.06556   0.988  0.000  0.000
    58H     0.01390  0.07241   0.986  0.000  0.000
    59H     0.01893  0.07691   0.981  0.000  0.000
    60H     0.01891  0.07688   0.981  0.000  0.000
    61H     0.01380  0.07231   0.986  0.000  0.000
    62H     0.01161  0.06552   0.988  0.000  0.000
    63H     0.01146  0.06415   0.989  0.000  0.000
    64H     0.01556  0.06926   0.984  0.000  0.000
    65H     0.02687  0.08438   0.973  0.000  0.000
    66H     0.01981  0.07196   0.980  0.000  0.000
    67H     0.01604  0.06857   0.984  0.000  0.000
    68H     0.01923  0.07122   0.981  0.000  0.000
    69H     0.02622  0.08371   0.974  0.000  0.000
    70H     0.01291  0.06666   0.987  0.000  0.000
    71H     0.01374  0.06767   0.986  0.000  0.000
    72H     0.01132  0.06401   0.989  0.000  0.000
    73H     0.01256  0.07105   0.987  0.000  0.000
    74H     0.01934  0.07585   0.981  0.000  0.000
    75Cu    0.25397  0.61026   0.536  0.891  9.319
    76C    -0.03547 -0.07665   1.079  2.957  0.000
    77C     0.05579  0.11735   1.118  2.826  0.000
    78C    -0.04470 -0.09082   1.087  2.958  0.000
    79C    -0.03856 -0.08445   1.080  2.959  0.000
    80C     0.05597  0.12040   1.100  2.844  0.000
    81N    -0.21537 -0.46663   1.319  3.897  0.000
    82C     0.01321  0.01758   1.072  2.914  0.000
    83C     0.00430 -0.00063   1.060  2.936  0.000
    84C     0.00202 -0.01279   1.089  2.909  0.000
    85C    -0.05584 -0.19981   1.067  2.989  0.000
    86C    -0.03327 -0.08504   1.062  2.972  0.000
    87C    -0.00612 -0.02380   1.096  2.910  0.000
    88C    -0.06221 -0.20691   1.076  2.986  0.000
    89C    -0.03321 -0.08499   1.062  2.972  0.000
    90C     0.00205 -0.01277   1.089  2.909  0.000
    91C    -0.05583 -0.19982   1.067  2.989  0.000
    92C     0.05524  0.11887   1.097  2.847  0.000
    93C    -0.03916 -0.08503   1.077  2.962  0.000
    94C    -0.04102 -0.08625   1.085  2.956  0.000
    95N    -0.21098 -0.46140   1.322  3.889  0.000
    96C     0.06093  0.12715   1.123  2.816  0.000
    97C     0.00709  0.01398   1.079  2.914  0.000
    98C     0.06094  0.12716   1.123  2.816  0.000
    99C    -0.04101 -0.08624   1.085  2.956  0.000
   100C    -0.03914 -0.08503   1.077  2.962  0.000
   101C     0.05525  0.11889   1.097  2.848  0.000
   102N    -0.21097 -0.46137   1.322  3.889  0.000
   103C     0.01321  0.01757   1.072  2.914  0.000
   104C     0.00430 -0.00062   1.060  2.936  0.000
   105C     0.00215 -0.01268   1.089  2.909  0.000
   106C    -0.05580 -0.19979   1.066  2.989  0.000
   107C    -0.03324 -0.08498   1.061  2.972  0.000
   108C    -0.00612 -0.02380   1.096  2.910  0.000
   109C    -0.06223 -0.20692   1.076  2.986  0.000
   110C    -0.03322 -0.08503   1.062  2.971  0.000
   111C     0.00193 -0.01289   1.089  2.909  0.000
   112C    -0.05585 -0.19983   1.067  2.989  0.000
   113C     0.05596  0.12038   1.100  2.844  0.000
   114C    -0.03857 -0.08446   1.080  2.959  0.000
   115C    -0.04471 -0.09083   1.087  2.958  0.000
   116C     0.05579  0.11736   1.118  2.826  0.000
   117N    -0.21537 -0.46661   1.319  3.897  0.000
   118H     0.01345  0.07231   0.987  0.000  0.000
   119H     0.01933  0.07584   0.981  0.000  0.000
   120H     0.01247  0.07095   0.988  0.000  0.000
   121H     0.01288  0.06662   0.987  0.000  0.000
   122H     0.01388  0.06780   0.986  0.000  0.000
   123H     0.01138  0.06406   0.989  0.000  0.000
   124H     0.02650  0.08400   0.974  0.000  0.000
   125H     0.01660  0.06900   0.983  0.000  0.000
   126H     0.02195  0.07384   0.978  0.000  0.000
   127H     0.01666  0.06905   0.983  0.000  0.000
   128H     0.02658  0.08408   0.973  0.000  0.000
   129H     0.01536  0.06910   0.985  0.000  0.000
   130H     0.01141  0.06409   0.989  0.000  0.000
   131H     0.01170  0.06556   0.988  0.000  0.000
   132H     0.01390  0.07241   0.986  0.000  0.000
   133H     0.01894  0.07692   0.981  0.000  0.000
   134H     0.01891  0.07688   0.981  0.000  0.000
   135H     0.01380  0.07231   0.986  0.000  0.000
   136H     0.01162  0.06553   0.988  0.000  0.000
   137H     0.01146  0.06414   0.989  0.000  0.000
   138H     0.01555  0.06925   0.984  0.000  0.000
   139H     0.02687  0.08438   0.973  0.000  0.000
   140H     0.01981  0.07196   0.980  0.000  0.000
   141H     0.01604  0.06857   0.984  0.000  0.000
   142H     0.01923  0.07122   0.981  0.000  0.000
   143H     0.02622  0.08371   0.974  0.000  0.000
   144H     0.01291  0.06665   0.987  0.000  0.000
   145H     0.01374  0.06767   0.986  0.000  0.000
   146H     0.01133  0.06401   0.989  0.000  0.000
   147H     0.01256  0.07105   0.987  0.000  0.000
   148H     0.01934  0.07585   0.981  0.000  0.000
   149C    -0.03343 -0.03423   1.061  2.972  0.000
   150C    -0.03113 -0.03271   1.089  2.942  0.000
   151C    -0.03340 -0.03421   1.061  2.972  0.000
   152C    -0.03110 -0.03269   1.089  2.942  0.000

Wiberg/Mayer (AO) data.
largest (>0.10) Wiberg bond orders for each atom

 ---------------------------------------------------------------------------
     #   Z sym  total        # sym  WBO       # sym  WBO       # sym  WBO
 ---------------------------------------------------------------------------
     1  29 Cu   2.615 --     7 N    0.597    43 N    0.597    28 N    0.593
                            21 N    0.593
     2   6 C    3.772 --     3 C    1.381    42 C    1.380    44 H    0.999
     3   6 C    3.945 --     2 C    1.381     7 N    1.277     4 C    1.198
     4   6 C    3.831 --     5 C    1.638     3 C    1.198    45 H    0.996
     5   6 C    3.819 --     4 C    1.638     6 C    1.208    46 H    1.003
     6   6 C    3.895 --     8 C    1.379     7 N    1.257     5 C    1.208
     7   7 N    2.913 --     3 C    1.277     6 C    1.257     1 Cu   0.597
     8   6 C    3.782 --     6 C    1.379    18 C    1.368     9 C    1.029
     9   6 C    3.820 --    16 C    1.422    10 C    1.421     8 C    1.029
    10   6 C    3.893 --    12 C    1.436     9 C    1.421    11 C    1.019
    11   6 C    3.895 --    10 C    1.019    49 H    0.997    48 H    0.995
                            47 H    0.994
    12   6 C    3.834 --    10 C    1.436    13 C    1.432    50 H    0.995
    13   6 C    3.926 --    15 C    1.433    12 C    1.432    14 C    1.008
    14   6 C    3.921 --    13 C    1.008    51 H    0.999    53 H    0.999
                            52 H    0.989
    15   6 C    3.834 --    16 C    1.435    13 C    1.433    54 H    0.995
    16   6 C    3.892 --    15 C    1.435     9 C    1.422    17 C    1.019
    17   6 C    3.895 --    16 C    1.019    56 H    0.998    57 H    0.995
                            55 H    0.993
    18   6 C    3.881 --     8 C    1.368    21 N    1.250    19 C    1.222
    19   6 C    3.804 --    20 C    1.611    18 C    1.222    58 H    1.002
    20   6 C    3.819 --    19 C    1.611    22 C    1.231    59 H    1.001
    21   7 N    2.933 --    22 C    1.306    18 C    1.250     1 Cu   0.593
    22   6 C    3.915 --    21 N    1.306    23 C    1.277    20 C    1.231
    23   6 C    3.783 --    22 C    1.277    24 C    1.277   150 C    1.242
    24   6 C    3.916 --    28 N    1.306    23 C    1.277    25 C    1.231
    25   6 C    3.819 --    26 C    1.611    24 C    1.231    60 H    1.001
    26   6 C    3.804 --    25 C    1.611    27 C    1.222    61 H    1.002
    27   6 C    3.881 --    29 C    1.368    28 N    1.250    26 C    1.222
    28   7 N    2.933 --    24 C    1.306    27 C    1.250     1 Cu   0.593
    29   6 C    3.782 --    39 C    1.379    27 C    1.368    30 C    1.029
    30   6 C    3.820 --    37 C    1.425    31 C    1.418    29 C    1.029
    31   6 C    3.893 --    33 C    1.440    30 C    1.418    32 C    1.019
    32   6 C    3.896 --    31 C    1.019    63 H    0.997    62 H    0.995
                            64 H    0.993
    33   6 C    3.834 --    31 C    1.440    34 C    1.428    65 H    0.995
    34   6 C    3.926 --    36 C    1.437    33 C    1.428    35 C    1.008
    35   6 C    3.921 --    34 C    1.008    67 H    1.002    66 H    0.994
                            68 H    0.991
    36   6 C    3.834 --    34 C    1.437    37 C    1.431    69 H    0.994
    37   6 C    3.893 --    36 C    1.431    30 C    1.425    38 C    1.019
    38   6 C    3.895 --    37 C    1.019    72 H    0.997    71 H    0.995
                            70 H    0.993
    39   6 C    3.895 --    29 C    1.379    43 N    1.257    40 C    1.208
    40   6 C    3.818 --    41 C    1.638    39 C    1.208    73 H    1.003
    41   6 C    3.831 --    40 C    1.638    42 C    1.198    74 H    0.996
    42   6 C    3.945 --     2 C    1.380    43 N    1.277    41 C    1.198
    43   7 N    2.913 --    42 C    1.277    39 C    1.257     1 Cu   0.597
    44   1 H    1.036 --     2 C    0.999
    45   1 H    1.026 --     4 C    0.996
    46   1 H    1.046 --     5 C    1.003
    47   1 H    1.057 --    11 C    0.994
    48   1 H    1.059 --    11 C    0.995
    49   1 H    1.045 --    11 C    0.997
    50   1 H    1.017 --    12 C    0.995
    51   1 H    1.036 --    14 C    0.999
    52   1 H    1.033 --    14 C    0.989
    53   1 H    1.036 --    14 C    0.999
    54   1 H    1.017 --    15 C    0.995
    55   1 H    1.056 --    17 C    0.993
    56   1 H    1.045 --    17 C    0.998
    57   1 H    1.060 --    17 C    0.995
    58   1 H    1.045 --    19 C    1.002
    59   1 H    1.034 --    20 C    1.001
    60   1 H    1.034 --    25 C    1.001
    61   1 H    1.045 --    26 C    1.002
    62   1 H    1.060 --    32 C    0.995
    63   1 H    1.046 --    32 C    0.997
    64   1 H    1.056 --    32 C    0.993
    65   1 H    1.016 --    33 C    0.995
    66   1 H    1.035 --    35 C    0.994
    67   1 H    1.035 --    35 C    1.002
    68   1 H    1.036 --    35 C    0.991
    69   1 H    1.017 --    36 C    0.994
    70   1 H    1.057 --    38 C    0.993
    71   1 H    1.059 --    38 C    0.995
    72   1 H    1.045 --    38 C    0.997
    73   1 H    1.046 --    40 C    1.003
    74   1 H    1.026 --    41 C    0.996
    75  29 Cu   2.615 --    81 N    0.597   117 N    0.597   102 N    0.593
                            95 N    0.593
    76   6 C    3.772 --    77 C    1.381   116 C    1.380   118 H    0.999
    77   6 C    3.945 --    76 C    1.381    81 N    1.277    78 C    1.198
    78   6 C    3.831 --    79 C    1.638    77 C    1.198   119 H    0.996
    79   6 C    3.819 --    78 C    1.638    80 C    1.208   120 H    1.003
    80   6 C    3.895 --    82 C    1.379    81 N    1.257    79 C    1.208
    81   7 N    2.913 --    77 C    1.277    80 C    1.257    75 Cu   0.597
    82   6 C    3.782 --    80 C    1.379    92 C    1.368    83 C    1.029
    83   6 C    3.820 --    90 C    1.422    84 C    1.421    82 C    1.029
    84   6 C    3.893 --    86 C    1.436    83 C    1.421    85 C    1.019
    85   6 C    3.895 --    84 C    1.019   123 H    0.997   122 H    0.995
                           121 H    0.994
    86   6 C    3.834 --    84 C    1.436    87 C    1.432   124 H    0.995
    87   6 C    3.926 --    89 C    1.433    86 C    1.432    88 C    1.008
    88   6 C    3.921 --    87 C    1.008   125 H    0.999   127 H    0.999
                           126 H    0.989
    89   6 C    3.834 --    90 C    1.435    87 C    1.433   128 H    0.995
    90   6 C    3.892 --    89 C    1.435    83 C    1.422    91 C    1.019
    91   6 C    3.895 --    90 C    1.019   130 H    0.998   131 H    0.995
                           129 H    0.993
    92   6 C    3.881 --    82 C    1.368    95 N    1.250    93 C    1.222
    93   6 C    3.804 --    94 C    1.611    92 C    1.222   132 H    1.002
    94   6 C    3.819 --    93 C    1.611    96 C    1.231   133 H    1.001
    95   7 N    2.933 --    96 C    1.306    92 C    1.250    75 Cu   0.593
    96   6 C    3.915 --    95 N    1.306    97 C    1.277    94 C    1.231
    97   6 C    3.783 --    96 C    1.277    98 C    1.277   152 C    1.242
    98   6 C    3.915 --   102 N    1.306    97 C    1.277    99 C    1.231
    99   6 C    3.819 --   100 C    1.611    98 C    1.231   134 H    1.001
   100   6 C    3.804 --    99 C    1.611   101 C    1.222   135 H    1.002
   101   6 C    3.881 --   103 C    1.368   102 N    1.250   100 C    1.222
   102   7 N    2.933 --    98 C    1.306   101 C    1.250    75 Cu   0.593
   103   6 C    3.782 --   113 C    1.379   101 C    1.368   104 C    1.029
   104   6 C    3.820 --   111 C    1.425   105 C    1.418   103 C    1.029
   105   6 C    3.892 --   107 C    1.440   104 C    1.418   106 C    1.019
   106   6 C    3.896 --   105 C    1.019   137 H    0.997   136 H    0.995
                           138 H    0.993
   107   6 C    3.834 --   105 C    1.440   108 C    1.428   139 H    0.995
   108   6 C    3.926 --   110 C    1.437   107 C    1.428   109 C    1.008
   109   6 C    3.921 --   108 C    1.008   141 H    1.002   140 H    0.994
                           142 H    0.991
   110   6 C    3.834 --   108 C    1.437   111 C    1.431   143 H    0.994
   111   6 C    3.893 --   110 C    1.431   104 C    1.425   112 C    1.019
   112   6 C    3.895 --   111 C    1.019   146 H    0.997   145 H    0.995
                           144 H    0.993
   113   6 C    3.895 --   103 C    1.379   117 N    1.257   114 C    1.208
   114   6 C    3.818 --   115 C    1.638   113 C    1.208   147 H    1.003
   115   6 C    3.831 --   114 C    1.638   116 C    1.198   148 H    0.996
   116   6 C    3.945 --    76 C    1.380   117 N    1.277   115 C    1.198
   117   7 N    2.913 --   116 C    1.277   113 C    1.257    75 Cu   0.597
   118   1 H    1.036 --    76 C    0.999
   119   1 H    1.026 --    78 C    0.996
   120   1 H    1.046 --    79 C    1.003
   121   1 H    1.057 --    85 C    0.994
   122   1 H    1.059 --    85 C    0.995
   123   1 H    1.045 --    85 C    0.997
   124   1 H    1.017 --    86 C    0.995
   125   1 H    1.036 --    88 C    0.999
   126   1 H    1.033 --    88 C    0.989
   127   1 H    1.036 --    88 C    0.999
   128   1 H    1.017 --    89 C    0.995
   129   1 H    1.056 --    91 C    0.993
   130   1 H    1.045 --    91 C    0.998
   131   1 H    1.060 --    91 C    0.995
   132   1 H    1.045 --    93 C    1.002
   133   1 H    1.034 --    94 C    1.001
   134   1 H    1.034 --    99 C    1.001
   135   1 H    1.045 --   100 C    1.002
   136   1 H    1.060 --   106 C    0.995
   137   1 H    1.046 --   106 C    0.997
   138   1 H    1.056 --   106 C    0.993
   139   1 H    1.016 --   107 C    0.995
   140   1 H    1.035 --   109 C    0.994
   141   1 H    1.035 --   109 C    1.002
   142   1 H    1.036 --   109 C    0.991
   143   1 H    1.017 --   110 C    0.994
   144   1 H    1.057 --   112 C    0.993
   145   1 H    1.059 --   112 C    0.995
   146   1 H    1.045 --   112 C    0.997
   147   1 H    1.046 --   114 C    1.003
   148   1 H    1.026 --   115 C    0.996
   149   6 C    3.797 --   150 C    2.474   151 C    1.345
   150   6 C    3.795 --   149 C    2.474    23 C    1.242   152 C    0.172
   151   6 C    3.797 --   152 C    2.474   149 C    1.345
   152   6 C    3.795 --   151 C    2.474    97 C    1.242   150 C    0.172
 ---------------------------------------------------------------------------

Topologies differ in total number of bonds
Writing topology from bond orders to xtbtopo.mol

 dipole moment from electron density (au)
     X       Y       Z   
 -42.5334   0.0276  -0.0706  total (Debye):  108.109


           -------------------------------------------------
          | TOTAL ENERGY             -268.031400344797 Eh   |
          | GRADIENT NORM               0.087226079951 Eh/α |
          | HOMO-LUMO GAP               0.002134023366 eV   |
           -------------------------------------------------
########################################################################
[WARNING] Runtime exception occurred
-1- restart_readRestart: Dimension missmatch in restart file.
########################################################################

------------------------------------------------------------------------
 * finished run on 2022/07/30 at 08:13:46.238     
------------------------------------------------------------------------
 total:
 * wall-time:     0 d,  0 h,  0 min,  8.858 sec
 *  cpu-time:     0 d,  0 h,  0 min,  8.816 sec
 * ratio c/w:     0.995 speedup
 SCF:
 * wall-time:     0 d,  0 h,  0 min,  8.466 sec
 *  cpu-time:     0 d,  0 h,  0 min,  8.430 sec
 * ratio c/w:     0.996 speedup

