191
 energy: -331.841522890862 gnorm: 0.879339965292 xtb: 6.5.1 (b24c23e)
Cu          28.16472800000000       -0.03266800000000        0.02981100000000
C           24.82313500000000        0.11061900000000        0.02030900000000
C           25.48540300000000        1.14969300000000       -0.49648100000000
C           24.83485500000000        2.29754900000000       -1.11666600000000
C           25.77507000000000        3.14603500000000       -1.48911000000000
C           27.07999300000000        2.58517000000000       -1.11224300000000
N           26.90283900000000        1.31166500000000       -0.49048000000000
C           28.27211500000000        3.18728500000000       -1.30488100000000
C           28.32183800000000        4.53281700000000       -1.92160200000000
C           28.87877900000000        4.70079600000000       -3.19828400000000
C           28.94203600000000        5.97180100000000       -3.77694100000000
C           28.45302900000000        7.08834000000000       -3.08401100000000
N           28.51793900000000        8.38815700000000       -3.67652000000000
C           27.90197999999999        6.92243400000000       -1.80545700000000
C           27.83906500000000        5.65208300000000       -1.22544200000000
C           29.56330300000000        2.56215600000000       -0.91481300000000
C           30.84675900000000        3.27479700000000       -0.90864300000000
C           31.78127200000000        2.41942700000000       -0.54675600000000
N           29.70596500000000        1.32026700000000       -0.56589500000000
C           31.10115800000000        1.15103500000000       -0.31522700000000
C           31.69535600000000       -0.00710000000000        0.01518000000000
C           30.93177300000000       -1.25311100000000        0.24798400000000
C           31.46229400000000       -2.46929600000000        0.22813300000000
C           30.41939800000000       -3.40089600000000        0.61187700000000
C           29.32176400000000       -2.69081700000000        0.84564600000000
N           29.55561100000000       -1.29897400000000        0.62522000000000
C           28.04315100000000       -3.26184000000000        1.34115600000000
C           28.06597100000000       -4.59982700000000        1.98106600000000
C           28.80492300000000       -4.80379200000000        3.15659600000000
C           28.84589900000000       -6.06744700000000        3.75305700000000
C           28.15371600000000       -7.14251700000000        3.17811700000000
N           28.19611400000000       -8.43487300000000        3.78872400000000
C           27.42225600000000       -6.94295700000000        1.99891000000000
C           27.38120400000000       -5.68000500000000        1.40109800000000
C           26.88109400000000       -2.59073100000000        1.22506700000000
C           25.57376199999999       -3.03336500000000        1.70701200000000
C           24.71210000000000       -2.10678000000000        1.33430500000000
C           25.46055700000000       -1.06795100000000        0.62866000000000
N           26.72541700000000       -1.33941000000000        0.55887500000000
H           23.73977200000000        0.12858300000000       -0.00315000000000
H           23.77154400000000        2.44109100000000       -1.25991500000000
H           25.58727000000000        4.08790300000000       -1.98770400000000
H           29.26184000000000        3.84717700000000       -3.74407700000000
H           29.37238500000000        6.08672400000000       -4.76380100000000
H           28.92726800000000        8.52210200000000       -4.62803100000000
H           28.15694800000000        9.22606000000000       -3.16811200000000
H           27.52378600000000        7.77686900000000       -1.25845900000000
H           27.41638800000000        5.53912100000000       -0.23457400000000
H           31.01767700000000        4.31519600000000       -1.15209200000000
H           32.83504700000000        2.64467500000000       -0.45061600000000
H           32.48797500000000       -2.72454400000000       -0.00227500000000
H           30.52814499999999       -4.47287200000000        0.71404400000000
H           29.34590500000000       -3.98303100000000        3.61158600000000
H           29.41727900000000       -6.20899700000000        4.66179800000000
H           28.73910300000000       -8.59378200000000        4.66666100000000
H           27.68461400000000       -9.24220600000000        3.36747500000000
H           26.88719200000000       -7.76594800000000        1.54206900000000
H           26.81976700000000       -5.54343600000000        0.48493300000000
H           25.33192500000000       -3.93141500000000        2.25997600000000
H           23.64754600000000       -2.12302400000000        1.52769600000000
Cu          62.08599600000000        0.01922300000000        0.00195200000000
C           65.42759000000000       -0.06786700000000        0.11613200000000
C           64.76532100000000       -1.07272500000000        0.69665600000000
C           65.41587000000000       -2.22386700000000        1.31072000000000
C           64.47565500000000       -3.00310800000000        1.81214400000000
C           63.17073200000000       -2.37909900000000        1.55289500000000
N           63.34788499999999       -1.15721700000000        0.83497400000000
C           61.97861000000000       -2.87234500000000        1.94831700000000
C           61.92888600000000       -4.12982100000000        2.72905800000000
C           61.37194600000000       -5.28674300000000        2.16366800000000
C           61.30868800000000       -6.47131400000000        2.90332200000000
C           61.79769500000000       -6.51067700000000        4.21681400000000
N           61.73278600000000       -7.72271300000000        4.97282900000000
C           62.34874500000000       -5.35334100000000        4.78496600000000
C           62.41165999999999       -4.16799900000000        4.04660800000000
C           60.68742199999999       -2.20182500000000        1.64279800000000
C           59.40396600000000       -2.59043500000000        2.24019000000000
C           58.46945300000000       -1.81619000000000        1.72719500000000
N           60.54475900000000       -1.22482800000000        0.80047500000000
C           59.14956699999999       -0.92239200000000        0.79792200000000
C           58.55536900000000       -0.00710000000000        0.01518000000000
C           59.31895200000000        0.87539600000000       -0.89473500000000
C           58.78843100000000        1.53082300000000       -1.91938800000000
C           59.83132700000000        2.36540600000000       -2.48384400000000
C           60.92896000000000        2.16791400000000       -1.76283200000000
N           60.69511400000000        1.21516100000000       -0.72452900000000
C           62.20757400000000        2.89642500000000       -1.96499600000000
C           62.18475400000000        4.16906000000000       -2.72663500000000
C           61.44580200000000        5.26155400000000       -2.24712800000000
C           61.40482600000000        6.45690400000000       -2.97081900000000
C           62.09700899999999        6.57169800000000       -4.18455400000000
N           62.05461099999999        7.79469700000000       -4.92435000000000
C           62.82846800000000        5.47857200000000       -4.66976400000000
C           62.86952100000000        4.28248500000000       -3.94740600000000
C           63.36963100000000        2.42885900000000       -1.46977100000000
C           64.67696300000000        3.07512500000000       -1.57241800000000
C           65.53862500000000        2.25251300000000       -1.00604400000000
C           64.79016700000000        1.09038100000000       -0.53007100000000
N           63.52530700000000        1.18220400000000       -0.79489000000000
H           66.51095300000000       -0.09734600000000        0.11814300000000
H           66.47918100000000       -2.42257500000000        1.35121300000000
H           64.66345500000000       -3.93909000000000        2.32170100000000
H           60.98888500000000       -5.27001300000000        1.15061500000000
H           60.87833999999999       -7.35735600000000        2.45384400000000
H           61.32345599999999       -8.58980200000000        4.55873700000000
H           62.09377700000000       -7.76192100000000        5.95212600000000
H           62.72693900000000       -5.36951800000000        5.79936500000000
H           62.83433700000000       -3.27969900000000        4.49993500000000
H           59.23304799999999       -3.36819700000000        2.97284600000000
H           57.41567800000000       -1.86051300000000        1.96805800000000
H           57.76274900000000        1.47981000000000       -2.25944200000000
H           59.72258000000000        3.04285600000000       -3.32088100000000
H           60.90481999999999        5.18729500000000       -1.31163300000000
H           60.83344600000000        7.29254600000000       -2.58669700000000
H           61.51162100000000        8.61425500000000       -4.57171700000000
H           62.56611100000000        7.88966100000000       -5.83001000000000
H           63.36353299999999        5.55252200000000       -5.60814000000000
H           63.43095800000000        3.44340800000000       -4.33978100000000
H           64.91879900000001        4.03221500000000       -2.01541200000000
H           66.60317800000000        2.42267900000000       -0.91273000000000
C           37.86148100000000       -0.00599700000000        0.02367000000000
C           36.65254199999999       -0.01945200000000        0.01522200000000
C           35.23101300000000       -0.01063300000000        0.00323900000000
C           34.01934299999999       -0.00319400000000        0.01410200000000
C           39.27808600000000       -0.01267200000000        0.02420300000000
C           40.49878100000000       -0.00319400000000        0.01410200000000
C           53.59693100000000       -0.00599700000000        0.02367000000000
C           52.38799199999999       -0.01945200000000        0.01522200000000
C           50.96646300000000       -0.01063300000000        0.00323900000000
C           49.75479299999999       -0.00319400000000        0.01410200000000
C           55.01353499999999       -0.01267200000000        0.02420300000000
C           56.23423100000000       -0.00319400000000        0.01410200000000
Cu          45.15882600000000       -0.04121400000000        0.04810200000000
C           41.67463999999999        0.01509000000000       -0.03374200000000
C           42.33150000000000        1.12498600000000       -0.41768900000000
C           41.68677500000000        2.35707200000000       -0.87780800000000
C           42.62479900000000        3.25266900000000       -1.11231700000000
C           43.92764700000000        2.64487900000000       -0.82254900000000
N           43.75122900000000        1.29485900000000       -0.38504000000000
C           45.11168300000000        3.28723900000000       -0.90956000000000
C           45.13306100000000        4.70733400000000       -1.32367600000000
C           44.99938900000000        5.05062800000000       -2.67749800000000
C           45.01641499999999        6.39337000000000       -3.06662000000000
C           45.17000399999999        7.40475700000000       -2.10694600000000
N           45.18793099999999        8.77808400000000       -2.50573500000000
C           45.30565699999999        7.06066800000000       -0.75388000000000
C           45.28655300000000        5.71841200000000       -0.36350700000000
C           46.41517200000000        2.64343000000000       -0.60540200000000
C           47.69408600000000        3.36453400000000       -0.57094800000000
C           48.64557300000000        2.48778800000000       -0.32506900000000
N           46.57861400000000        1.37346500000000       -0.39694100000000
C           47.98286200000000        1.19530300000000       -0.20900900000000
C           48.59795300000000        0.01509000000000       -0.03374200000000
C           47.85259500000000       -1.25933700000000        0.06138900000000
C           48.40109600000000       -2.45897000000000       -0.08395600000000
C           47.36857299999999       -3.43947700000000        0.18622600000000
C           46.25867200000000       -2.77283900000000        0.48141300000000
N           46.47319700000000       -1.36315300000000        0.41344700000000
C           44.99345600000000       -3.40910600000000        0.92355300000000
C           45.04664000000000       -4.79712100000000        1.44331600000000
C           44.40167800000000       -5.84004300000000        0.75711200000000
C           44.46782700000000       -7.14916400000000        1.24340000000000
C           45.18347100000000       -7.43110800000000        2.41665400000000
N           45.24763600000000       -8.76975200000000        2.91627200000000
C           45.83671000000000       -6.39207100000000        3.09690600000000
C           45.77241900000000       -5.08295000000000        2.61029500000000
C           43.81750900000000       -2.75352400000000        0.88085900000000
C           42.53491400000000       -3.26737200000000        1.35048200000000
C           41.64664699999999       -2.33154900000000        1.08702200000000
C           42.35008299999999       -1.21117400000000        0.45229500000000
N           43.61983300000000       -1.44995700000000        0.33175000000000
H           40.62741200000000        2.53888200000000       -1.00168800000000
H           42.43540200000000        4.26331800000000       -1.45170600000000
H           44.88025300000000        4.27832800000000       -3.42802100000000
H           44.91046500000000        6.64552900000000       -4.11443400000000
H           45.08882400000000        9.04410900000000       -3.51082800000000
H           45.30542799999999        9.53829400000000       -1.79877200000000
H           45.42613000000000        7.83214100000000       -0.00335000000000
H           45.39204600000000        5.46541600000000        0.68468700000000
H           47.85306200000000        4.42365400000000       -0.72435500000000
H           49.70063600000000        2.71259600000000       -0.24455200000000
H           49.43240800000000       -2.67508200000000       -0.32769200000000
H           47.49429100000000       -4.51464100000000        0.18461200000000
H           43.85050800000000       -5.63780500000000       -0.15370400000000
H           43.96322100000000       -7.94344500000000        0.70576400000000
H           45.77754700000000       -8.98987300000000        3.78945100000000
H           44.76227900000000       -9.55021400000000        2.41940600000000
H           46.39523600000000       -6.59662900000000        4.00297500000000
H           46.28304200000000       -4.29055700000000        3.14545500000000
H           42.32729500000000       -4.21494900000000        1.83037800000000
H           40.59220700000000       -2.39859600000000        1.31832300000000
191
 energy: -332.087511073943 gnorm: 0.352420066316 xtb: 6.5.1 (b24c23e)
Cu          28.17209244410106       -0.02763566865588        0.02903801049291
C           24.82358012598209        0.09568132251639        0.02828979807983
C           25.49065135081781        1.15089430016468       -0.49711622641595
C           24.83444020865149        2.29179030364862       -1.11391060644894
C           25.78501773782222        3.14842104118219       -1.48948952297814
C           27.07889400130328        2.58003437794315       -1.11018978706199
N           26.88257483038134        1.32851425126415       -0.49993730143239
C           28.28768828981582        3.18466847073367       -1.30156285848341
C           28.32774711587291        4.53535616623077       -1.92040507402835
C           28.87885006572730        4.70866334546556       -3.19587132929987
C           28.94039567254897        5.97454896580292       -3.77485795566695
C           28.45349211425375        7.09802212374941       -3.08844267313476
N           28.51755991932824        8.38123051425926       -3.67336445289521
C           27.90312155915004        6.92220641505813       -1.80914348758240
C           27.84036853524524        5.65485335163445       -1.23286473294116
C           29.55857079721921        2.57562298122516       -0.92168391522412
C           30.83451268083448        3.28403864375621       -0.91421992981036
C           31.78179822124340        2.41406998012759       -0.54527492355953
N           29.72324297268489        1.31815997950800       -0.56140599513805
C           31.11835477351513        1.14622498625947       -0.31297719479430
C           31.71212026471993       -0.02310557595518        0.01466135836098
C           30.93782336987197       -1.23707116706704        0.25427955034111
C           31.46705867864052       -2.49325309899932        0.23248549311777
C           30.44265558433058       -3.40384103315577        0.60983237344574
C           29.31470321795879       -2.67515391273882        0.85112154516019
N           29.56702347138497       -1.30271643664517        0.62321461547096
C           28.05812304654637       -3.25365017152389        1.33758856115140
C           28.07399322401580       -4.59940531979884        1.97638124935436
C           28.80457704137959       -4.81081793948061        3.15362403916993
C           28.84342400147438       -6.06923431581609        3.75103720255400
C           28.15402394039580       -7.15204390858229        3.18264056886362
N           28.19580323478315       -8.42761915832432        3.78531371506721
C           27.42409455346129       -6.94178944701174        2.00206246034189
C           27.38354044084024       -5.68110500308434        1.40813167279921
C           26.88028113366040       -2.58929523532874        1.22521918331025
C           25.58134995169461       -3.03311309345258        1.70473064841007
C           24.70203675941101       -2.09608454506422        1.32944402348133
C           25.44032060200940       -1.06124409657133        0.62451438179098
N           26.72333845840732       -1.34856630447931        0.56621252558225
H           23.74021291952571        0.12363682048991        0.00067850196529
H           23.77174112746159        2.43351297984647       -1.25609670211319
H           25.59810539998212        4.08924221685854       -1.98745808557296
H           29.26049816326389        3.85035382020373       -3.74204679823840
H           29.37175591087942        6.08742465123030       -4.76328564388325
H           28.91890887700161        8.51580579590449       -4.60727610841520
H           28.16403726020962        9.20564961852892       -3.17665586280106
H           27.52433770596390        7.77675040496085       -1.25933939102067
H           27.41817364643413        5.53931389904913       -0.23826518217709
H           31.00867931014805        4.31979934956545       -1.15499790104765
H           32.83465148790222        2.63557889659790       -0.44818735801657
H           32.48987465683518       -2.73262981382099       -0.00244077833053
H           30.53411994515863       -4.47380998052727        0.71160505453192
H           29.34423811708433       -3.98589852057102        3.60992912652579
H           29.41632384095844       -6.20930593003562        4.66118273197635
H           28.72812054431037       -8.58689439373807        4.64723302966179
H           27.69480741584534       -9.22231834402715        3.37416000751023
H           26.88803777507262       -7.76534608126266        1.54271858289460
H           26.82207841987969       -5.54348026733623        0.48815584580462
H           25.34212815500994       -3.93102644178961        2.25830489293733
H           23.64281511743726       -2.11620960506640        1.52468643637730
Cu          62.07866605000093        0.01572940459075        0.00574244974098
C           65.42713108215271       -0.05299797379293        0.10810264098827
C           64.76010476242966       -1.07392538824805        0.69735050226464
C           65.41632029318592       -2.21841404417130        1.30748430791012
C           64.46575408697625       -3.00476295099306        1.81394164564628
C           63.17187724009091       -2.37451397507544        1.54978384579396
N           63.36821982053430       -1.17467841831598        0.84369257938323
C           61.96301004965105       -2.86810165958839        1.94800778252473
C           61.92295266186330       -4.13021953455861        2.73184668717392
C           61.37187382929309       -5.28907964667239        2.17155908933015
C           61.31032804787047       -6.47109877257815        2.90676330332148
C           61.79723303124326       -6.51972566132323        4.22243748553411
N           61.73316282960981       -7.71625152090964        4.96879758378047
C           62.34760612795337       -5.35628782142898        4.78273958932029
C           62.41034979007333       -4.17571639313295        4.04482172072614
C           60.69213196871830       -2.21506579039634        1.65024631947350
C           59.41615675321950       -2.60022111747033        2.24481674827880
C           58.46886531655004       -1.81198501339719        1.72363405857730
N           60.52742130813002       -1.22014223792039        0.80113052536301
C           59.13227473179887       -0.91784935782047        0.79520112648283
C           58.53974702695184        0.00160277659670        0.00159765319942
C           59.31306240181774        0.87196028621110       -0.87808556187453
C           58.78361051693680        1.54776268003045       -1.93713914088484
C           59.80798391379539        2.36532478455157       -2.48749174336917
C           60.93597159189940        2.16378956938269       -1.74672871326081
N           60.68356918867207        1.21596117844500       -0.72857164563724
C           62.19262079276752        2.88890892909460       -1.96011976016426
C           62.17671962172822        4.16490997222835       -2.72886886054635
C           61.44614454379855        5.26295711319589       -2.25462707598844
C           61.40730026600145        6.45620903105442       -2.97342439477201
C           62.09670139742993        6.58073836050161       -4.18999916961213
N           62.05492364791120        7.78784151868723       -4.92018324229092
C           62.82663028066167        5.48055147483803       -4.66704681653781
C           62.86718169049288        4.28895333068518       -3.94443659803282
C           63.37049410954756        2.42822292654877       -1.46851136319521
C           64.66943419958659        3.07311593715539       -1.57352346733976
C           65.54871928758119        2.24263211484417       -0.99979466124726
C           64.81040929585720        1.08328722258427       -0.52681072328174
N           63.52754239559336        1.19347509546701       -0.79855796984830
H           66.51050792046567       -0.09143501005525        0.11613081203128
H           66.47900507802440       -2.41522048657978        1.34701913788381
H           64.65263297992369       -3.93963834543323        2.32296707243484
H           60.99022761894759       -5.27007600544642        1.15438347811588
H           60.87896871926039       -7.35731465336467        2.45471202730847
H           61.33181649586614       -8.56902312206463        4.56495664634968
H           62.08668838118776       -7.75776401944948        5.93039239772036
H           62.72638856045226       -5.37018609774740        5.79877851009500
H           62.83255076613213       -3.28288327678766        4.49805671838666
H           59.24200670588660       -3.37318123377602        2.97507694470002
H           57.41603476531414       -1.85347895568050        1.96185406879800
H           57.76079477329954        1.48413347902620       -2.26634270454987
H           59.71658001974296        3.04134804216466       -3.32303957512426
H           60.90648696939347        5.18750013323544       -1.31493551789038
H           60.83440102956479        7.29220495460517       -2.58729304288574
H           61.52260334115078        8.59425463611679       -4.57671232846963
H           62.55591595629775        7.88424213560019       -5.80973963103642
H           63.36268661859987        5.55272885713944       -5.60727641593511
H           63.42864600644553        3.44611895814200       -4.33803589692039
H           64.90861588232541        4.03063795049287       -2.01602211956459
H           66.60793394733810        2.41642373088149       -0.90872230325016
C           37.84677625362808       -0.00642231425853        0.02366523523704
C           36.62116564898670       -0.01870531879311        0.01479736545169
C           35.21035971165173       -0.01070047834321        0.00436684710449
C           33.97801127868440       -0.00599313152084        0.01469199121147
C           39.21344536046391       -0.01408257946941        0.02394896507265
C           40.41970169953562       -0.00914647884339        0.01832797586302
C           53.62966424520307       -0.00635275629855        0.02345141895616
C           52.40428192903615       -0.01946816376677        0.01567262428245
C           51.03847018896838       -0.01272084911665        0.00551577654889
C           49.83354958495954       -0.02058114578820        0.01763827773988
C           55.03746255996207       -0.01170761354354        0.02359517677750
C           56.27108543533240       -0.00200052725306        0.01345545229950
Cu          45.14989535811222       -0.03821638072841        0.04226663637326
C           41.72762217698461        0.00218986047121       -0.02630697466937
C           42.36438058056140        1.13842297045106       -0.42395896718259
C           41.68974267353286        2.34765714600582       -0.87470889179903
C           42.63668169590191        3.25646979260447       -1.11281099613289
C           43.92838111368562        2.64300681047640       -0.82293229138440
N           43.74216257091853        1.31895140352657       -0.39201835121345
C           45.12701989134487        3.28796372366899       -0.90840736429133
C           45.13700017566052        4.71198556232556       -1.32456898956928
C           44.99928697727204        5.05822789634431       -2.67388277249154
C           45.01662726165108        6.39610355737330       -3.06355542834048
C           45.17021547033575        7.41495272846298       -2.10991628159302
N           45.18777240833835        8.77085548384345       -2.50356450071219
C           45.30525532168976        7.06181196574610       -0.75784332358222
C           45.28767263018486        5.72369075241793       -0.37020420299715
C           46.40422907264296        2.66838209735016       -0.61179924655696
C           47.67767487295808        3.37827452993657       -0.57556303848941
C           48.63792090794060        2.48013877883828       -0.32498457305570
N           46.57846086164975        1.38160952888689       -0.39526646093049
C           47.95084857983104        1.21132009227565       -0.20969689789889
C           48.52951105306344        0.00232343665123       -0.03279309588833
C           47.82115462810304       -1.25872824843047        0.06603900386544
C           48.39943897137820       -2.48190317369676       -0.08118122703613
C           47.38927816637193       -3.44506867534551        0.18544118515032
C           46.24785821017498       -2.76537568784772        0.49037418686148
N           46.47061857997056       -1.37580836544220        0.41296709234967
C           45.00790172042811       -3.40407421886833        0.92211917711440
C           45.05421645293931       -4.79789822761173        1.43938973743453
C           44.40382934865816       -5.84224122930391        0.76436048693123
C           44.46971062602837       -7.14846465439259        1.24698051405588
C           45.18382992646857       -7.44090132732588        2.42049837418386
N           45.24735064804437       -8.76224303421984        2.91342189358175
C           45.83422177116348       -6.39413731025097        3.09456171649375
C           45.77206038550629       -5.09014644560924        2.60689128516386
C           43.81903491191989       -2.75596851643438        0.88234496741105
C           42.54330956594672       -3.26776546468583        1.34826457690242
C           41.63919465116990       -2.31851093999878        1.08224455394110
C           42.35320603330869       -1.21300645547319        0.45443968026806
N           43.63042806267533       -1.46576086868613        0.34041959331617
H           40.62858095719465        2.52601991379353       -0.99758635901088
H           42.44583762677012        4.26451715284970       -1.45178776485268
H           44.88097276008410        4.28132717030257       -3.42480211997248
H           44.91068431072390        6.64621094069243       -4.11348366718523
H           45.09084394183058        9.03499398408427       -3.48952886201964
H           45.30305400057431        9.51919125431488       -1.81195822940030
H           45.42577876649798        7.83243437381862       -0.00447906234483
H           45.39159000108381        5.46656426175596        0.68060990532595
H           47.84441603885804        4.43034362068147       -0.72634553101945
H           49.69632561683818        2.69982956227176       -0.24267118321231
H           49.43143536842349       -2.67928189785063       -0.32872568398793
H           47.50057568528384       -4.51665895275051        0.18180292298604
H           43.85295990650970       -5.63813765948540       -0.15008781077779
H           43.96432818872437       -7.94266230100239        0.70688578536162
H           45.76663580476595       -8.98156528927662        3.77034189637928
H           44.77191810415014       -9.53056761639960        2.42798560122117
H           46.39402510641561       -6.59706000619892        4.00179918012766
H           46.28119763648836       -4.29363832639103        3.14320154209744
H           42.33672184689426       -4.21432548397189        1.82836064294182
H           40.58824344711649       -2.38847150132150        1.31403448206817
191