126
 energy: -240.018330824113 gnorm: 1.707194400333 xtb: 6.5.1 (b24c23e)
Cu          19.33485200000000        0.00444600000000        0.01621000000000
C           15.91682700000000       -0.10256900000000        0.10543000000000
C           16.58211900000000       -0.20416300000000        1.25956300000000
C           15.93425700000000       -0.34669200000000        2.55814700000000
C           16.87638200000000       -0.36770700000000        3.48259100000000
C           18.17942100000000       -0.23745700000000        2.81676800000000
N           17.99994200000000       -0.13879400000000        1.40370100000000
C           19.36857700000000       -0.16652700000000        3.44789400000000
C           20.66006200000000       -0.00685600000000        2.73031100000000
C           21.94678800000000        0.20996600000000        3.40281700000000
C           22.88127400000000        0.26757900000000        2.47604300000000
N           20.80259900000000       -0.08538400000000        1.44251300000000
C           22.19972200000000        0.08047000000000        1.20091500000000
C           22.79604900000000        0.00000000000000        0.00000000000000
C           22.03831000000000       -0.21005100000000       -1.25471400000000
C           22.58141699999999       -0.62265800000000       -2.39317600000000
C           21.53762000000000       -0.61094400000000       -3.39875600000000
C           20.42544700000000       -0.18782000000000       -2.80935400000000
C           19.13745100000000        0.03517200000000       -3.51552200000000
C           19.15523700000000        0.17111400000000       -4.99251100000000
C           18.51209400000000       -0.77590000000000       -5.80351000000000
C           18.54755500000000       -0.65348000000000       -7.19532100000000
C           19.23387200000000        0.41513600000000       -7.79982300000000
C           19.27492300000000        0.54918000000000       -9.27266000000000
O           19.95892100000000        1.60930100000000       -9.86225000000000
O           18.69179900000000       -0.29358300000000      -10.00724400000000
C           19.88501700000000        1.35596400000000       -6.98328600000000
C           19.84803500000000        1.23269900000000       -5.59147900000000
C           17.97093200000000        0.11842300000000       -2.84738800000000
C           16.65529800000000        0.37065000000000       -3.43302100000000
C           15.79385500000000        0.32144900000000       -2.43562700000000
C           16.55003300000000        0.05158500000000       -1.21401900000000
N           17.82001400000000       -0.06810900000000       -1.44159300000000
N           20.65109900000000        0.08413400000000       -1.42475900000000
C           19.40832600000000       -0.23820500000000        4.92372900000000
C           19.34410300000000       -1.47917900000000        5.57078200000000
C           19.38341900000000       -1.54765000000000        6.96630000000000
C           19.48878600000000       -0.37395700000000        7.73505900000000
C           19.53132700000000       -0.44072600000000        9.21240300000000
O           19.63451100000000        0.72634000000000        9.96510700000000
O           19.47475000000000       -1.55306800000000        9.80343200000000
C           19.55363000000000        0.86781800000000        7.07866200000000
C           19.51359400000000        0.93445800000000        5.68304200000000
H           14.83358100000000       -0.12119500000000        0.13360700000000
H           14.87081800000000       -0.41492100000000        2.74836500000000
H           16.69227300000000       -0.45450500000000        4.54566800000000
H           22.12178400000000        0.30281400000000        4.46649200000000
H           23.93761400000000        0.41279500000000        2.65897900000000
H           23.61482600000000       -0.89775500000000       -2.55604300000000
H           21.65447200000000       -0.87681700000000       -4.44139700000000
H           17.98632300000000       -1.61089900000000       -5.35669400000000
H           18.04025200000000       -1.39696800000000       -7.79730100000000
H           19.99316400000000        1.71046000000000      -10.86964800000000
H           20.42444300000000        2.18771700000000       -7.41853100000000
H           20.35712800000000        1.96700000000000       -4.97907100000000
H           16.40831000000000        0.56465400000000       -4.46846000000000
H           14.72457500000000        0.46456100000000       -2.51992100000000
H           19.26341600000000       -2.39223200000000        4.99362900000000
H           19.33170100000000       -2.51875300000000        7.44250200000000
H           19.66443500000000        0.69188200000000       10.97712700000000
H           19.63543200000000        1.78863200000000        7.64223600000000
H           19.56491100000000        1.89912500000000        5.19305200000000
Cu          29.55758400000000        0.00628500000000       -0.01558900000000
C           32.97560800000000       -0.08972800000000       -0.11655400000000
C           32.31031600000000       -0.05755900000000       -1.27470300000000
C           32.95817900000000       -0.04939500000000       -2.58106100000000
C           32.01605300000000        0.03632900000000       -3.50176100000000
C           30.71301500000000        0.08893300000000       -2.82536000000000
N           30.89249400000000        0.02399500000000       -1.41034200000000
C           29.52385900000000        0.23216600000000       -3.44409700000000
C           28.23237300000000        0.30802600000000       -2.71288900000000
C           26.94564700000000        0.60094900000000       -3.35590600000000
C           26.01116200000000        0.55131000000000       -2.42867100000000
N           28.08983700000000        0.08152400000000       -1.44273600000000
C           26.69271400000000        0.21841300000000       -1.18362500000000
C           26.09638700000000        0.00000000000000        0.00000000000000
C           26.85412500000000       -0.35333300000000        1.22212300000000
C           26.31101800000000       -0.89446500000000        2.30541200000000
C           27.35481600000000       -0.99878400000000        3.30563600000000
C           28.46698800000000       -0.51051800000000        2.76895600000000
C           29.75498500000000       -0.37044200000000        3.49612700000000
C           29.73719900000000       -0.40572100000000        4.97893900000000
C           30.38034200000000       -1.43993600000000        5.67532700000000
C           30.34488100000000       -1.47882400000000        7.07197000000000
C           29.65856400000000       -0.48704300000000        7.79566300000000
C           29.61751200000000       -0.52372800000000        9.27413200000000
O           28.93351400000000        0.46133500000000        9.98203300000000
O           30.20063700000000       -1.44557500000000        9.90663600000000
C           29.00741900000000        0.54166500000000        7.09306100000000
C           29.04440000000000        0.57971400000000        5.69632500000000
C           30.92150300000000       -0.21070400000000        2.84204900000000
C           32.23713700000000       -0.02769000000000        3.45286100000000
C           33.09858100000000        0.03844900000000        2.45644700000000
C           32.34240300000000       -0.08875000000000        1.21186900000000
N           31.07242200000000       -0.23388700000000        1.42412300000000
N           28.24133700000000       -0.08071900000000        1.42495600000000
C           29.48410900000000        0.33114700000000       -4.91835300000000
C           29.54833300000000       -0.82693600000000       -5.70418800000000
C           29.50901700000000       -0.73403100000000       -7.09829200000000
C           29.40365000000000        0.52047900000000       -7.72658300000000
C           29.36110900000000        0.62451000000000       -9.20177100000000
O           29.25792500000000        1.87058700000000       -9.81487800000000
O           29.41768600000000       -0.41225900000000       -9.91712400000000
C           29.33880500000000        1.67828000000000       -6.93137300000000
C           29.37884100000000        1.58354500000000       -5.53737900000000
H           34.05885499999999       -0.10498000000000       -0.14669100000000
H           34.02161800000000       -0.09523500000000       -2.77787700000000
H           32.20016200000000        0.07269400000000       -4.56775500000000
H           26.77065199999999        0.81583200000000       -4.40178000000000
H           24.95482100000000        0.71665200000000       -2.59364200000000
H           25.27760900000000       -1.18650700000000        2.43547100000000
H           27.23796400000000       -1.38311200000000        4.31066300000000
H           30.90611300000000       -2.21784200000000        5.13520600000000
H           30.85218400000000       -2.28676800000000        7.58420200000000
H           28.89927100000000        0.44565500000000       10.99437600000000
H           28.46799300000000        1.31768100000000        7.62131400000000
H           28.53530800000000        1.37973500000000        5.17267600000000
H           32.48412600000000        0.04562300000000        4.50376400000000
H           34.16786000000000        0.17088600000000        2.55668000000000
H           29.62901900000000       -1.80045200000000       -5.23617000000000
H           29.56073500000000       -1.64374500000000       -7.68329700000000
H           29.22800100000000        1.95305600000000      -10.82412100000000
H           29.25700300000000        2.65793900000000       -7.38500800000000
H           29.32752500000000        2.48527500000000       -4.93942000000000
C           23.83525900000000        0.00000000000000        0.00000000000000
C           25.05717700000000        0.00000000000000        0.00000000000000
126
 energy: -240.418879342181 gnorm: 0.418025494277 xtb: 6.5.1 (b24c23e)
Cu          19.33224464833052        0.00073267346638        0.01425450572844
C           15.91764576541363       -0.10110304494263        0.09148861145092
C           16.58822654590088       -0.20455825816102        1.26166021505743
C           15.93334232149668       -0.34618663030603        2.55255762597423
C           16.88412700804519       -0.36794793158029        3.48460742965603
C           18.17678155711530       -0.23811724581860        2.81170163987485
N           17.98584671504307       -0.13726272388582        1.41779367242736
C           19.38026438144934       -0.16503506213167        3.44621465308276
C           20.65084548846681       -0.00724688471667        2.75356385026002
C           21.93306557187508        0.20743846791231        3.41379729334765
C           22.87504601063548        0.26711256031959        2.46589643103856
N           20.79787502559900       -0.08190103968879        1.44800918679962
C           22.14863241639095        0.08167615570251        1.22597718710047
C           22.65225289306480       -0.00004660773019       -0.01319851874520
C           21.99552185263886       -0.20604068965939       -1.26132273753263
C           22.57816895780456       -0.62562995121559       -2.40966154658786
C           21.55280816269892       -0.61300469499034       -3.40270565402563
C           20.41323180881048       -0.18123957448291       -2.80515831076850
C           19.14697911007558        0.03450215975239       -3.51074189916194
C           19.15923381428465        0.16926706961800       -4.99196735738400
C           18.51322737371914       -0.77239630195436       -5.80653490678877
C           18.54966398986163       -0.64992208270355       -7.19489347227968
C           19.23658070020691        0.41940384924283       -7.80264395522446
C           19.27093863332020        0.54370823980857       -9.28842601081190
O           19.95481370913163        1.60299709523119       -9.85596902625931
O           18.70001267620166       -0.28133726889352      -10.00004706060150
C           19.88408473990251        1.35499335729774       -6.98118341706480
C           19.84768530508552        1.23064380994941       -5.59420645092962
C           17.96961230622218        0.11884388670150       -2.84605846532248
C           16.66157410183528        0.36989798523552       -3.43330068042508
C           15.78712850880799        0.32060107026192       -2.42641145762048
C           16.53565570965296        0.05080016948463       -1.20600976353281
N           17.82232410856145       -0.06563503575018       -1.44905566421165
N           20.64495584152845        0.08118334186575       -1.43528691414561
C           19.41046318341191       -0.23785371063867        4.92628128127873
C           19.34411224710532       -1.47635622477015        5.57525777672323
C           19.38360339695202       -1.54359724921545        6.96695807250872
C           19.48923955345844       -0.36933100600164        7.73857123062114
C           19.53128786441716       -0.44956588358124        9.22706426913118
O           19.63385271533105        0.71981766844871        9.95795563154462
O           19.47562321605029       -1.53748247258450        9.79836254595087
C           19.55348924271831        0.86684901210215        7.07700506130622
C           19.51414526086208        0.93224422609304        5.68635017635773
H           14.83409347774175       -0.12039011154247        0.13060832882929
H           14.87098735174206       -0.41475977450062        2.74360255360733
H           16.69796435389721       -0.45436888506555        4.54606961656993
H           22.11742658664901        0.30250475493223        4.46978226482668
H           23.93423226677264        0.41309010852940        2.65082901587377
H           23.61314371737727       -0.89913579163497       -2.55648901725365
H           21.65746021111478       -0.87801091206897       -4.44195666556825
H           17.98726196847878       -1.60956429549165       -5.35725742518448
H           18.04140441005687       -1.39525903151011       -7.79844928320536
H           19.98708511545394        1.70041543026568      -10.85244449482213
H           20.42386784306022        2.18701791174494       -7.41913280187315
H           20.35651339595983        1.96597928858128       -4.97933373171422
H           16.41363512174363        0.56401419514142       -4.46805482503468
H           14.72263282881732        0.46412200719811       -2.51585397161477
H           19.26365809185225       -2.39064182395100        4.99457506372544
H           19.33193837110919       -2.51692315391353        7.44412341694412
H           19.66326123386070        0.68262243157748       10.95854857999754
H           19.63535802235453        1.78773087390155        7.64294477492171
H           19.56485685800786        1.89783993093078        5.19332877650599
Cu          29.56019130144777        0.00237054735239       -0.01407478277276
C           32.97478946248458       -0.08987937785296       -0.10253657640163
C           32.30420836940292       -0.05770980380844       -1.27683183006460
C           32.95909344086940       -0.04953759268527       -2.57545034746726
C           32.00830806114461        0.03632214722725       -3.50379155365299
C           30.71565412092013        0.08769290925967       -2.82040332288116
N           30.90658867256904        0.02714139939540       -1.42416357832054
C           29.51217140060606        0.23345433372757       -3.44225676314620
C           28.24158996995009        0.31031899093669       -2.73603142716241
C           26.95936966167682        0.59970444796140       -3.36710464993072
C           26.01738980705487        0.54967671944074       -2.41864581600342
N           28.09456150693597        0.08561761910843       -1.44779347366967
C           26.74380377101089        0.22250099483062       -1.20838067438561
C           26.24018311177889       -0.00156825743315        0.01310506611130
C           26.89691347927338       -0.35011153017730        1.22914989279121
C           26.31426625943924       -0.89931802693306        2.32144493083968
C           27.33962778613246       -1.00128629989117        3.30932134884307
C           28.47920355460501       -0.50349762411159        2.76554681411019
C           29.74545671926663       -0.37055630831777        3.49130154840231
C           29.73320217740937       -0.40749303079371        4.97818608194719
C           30.37920861125825       -1.43680438869207        5.67873560360760
C           30.34277205434149       -1.47524066532136        7.07195557246400
C           29.65585522929300       -0.48312888103485        7.79895736268176
C           29.62149652198266       -0.53098125125354        9.28916196375066
O           28.93762130209348        0.45579735253622        9.97506703491645
O           30.19242321214787       -1.43258098684219        9.90089909613671
C           29.00835115588771        0.54094337217952        7.09086066563150
C           29.04474986200638        0.57735799634743        5.69879718166650
C           30.92282274132819       -0.21013254987589        2.84077673115734
C           32.23086098237463       -0.02846913577941        3.45305193888904
C           33.10530709896071        0.03866920030067        2.44719506729121
C           32.35677998291365       -0.08860598420832        1.20382256782830
N           31.07011127088961       -0.23228985870615        1.43182054684746
N           28.24748053766242       -0.08486404135475        1.43507293232770
C           29.48197193188982        0.33179016731373       -4.92084751244834
C           29.54832367652067       -0.82361619088658       -5.70830827234852
C           29.50883260698815       -0.72992956663271       -7.09847847054105
C           29.40319639662408        0.52547916808655       -7.72953836687280
C           29.36114813757808        0.61741979451452       -9.21735390714750
O           29.25858328335215        1.86328349351161       -9.80852648113783
O           29.41681278435012       -0.39736202601771       -9.91029112921252
C           29.33894578282520        1.67712665370687       -6.92983908238146
C           29.37828977737415        1.58172744467651       -5.54092032185498
H           34.05834232951650       -0.10452626716175       -0.14361953290547
H           34.02144855576785       -0.09562400742960       -2.77312770205339
H           32.19447064628417        0.07287554241230       -4.56813830800707
H           26.77500943742437        0.81590416922827       -4.40508382361183
H           24.95820293703125        0.71600531466926       -2.58551227707608
H           25.27929134843040       -1.18792996992952        2.43575482882068
H           27.23497575838462       -1.38436244735913        4.31108132056961
H           30.90517399776932       -2.21658109833018        5.13591960536027
H           30.85103157794614       -2.28520281295125        7.58553963626417
H           28.90534988735111        0.43766118135069       10.97612896478804
H           28.46856815884511        1.31691716122060        7.62183115711446
H           28.53592255127623        1.37869081613724        5.17281921133735
H           32.47880080026230        0.04503413621020        4.50328759554238
H           34.16980232382843        0.17091893426907        2.55258953631052
H           29.62877692797076       -1.79876310409501       -5.23692648653794
H           29.56049764174646       -1.64174034750957       -7.68469658019693
H           29.22917476871385        1.94171588906220      -10.80673415920769
H           29.25707698599695        2.65712544643533       -7.38581588381747
H           29.32757909426859        2.48403051995174       -4.93984307925316
C           23.89231472499802       -0.00050728475161       -0.00664824761148
C           25.00012130603336       -0.00127052144807        0.00654536240559
126
 energy: -240.533549150979 gnorm: 0.253427970296 xtb: 6.5.1 (b24c23e)
Cu          19.31755099350388       -0.00623389069771        0.01259998198719
C           15.91934666011695       -0.09915748459664        0.07584422599186
C           16.59034515282725       -0.20396174991405        1.26308947534584
C           15.93349486904568       -0.34568924480152        2.54659411465869
C           16.89170194536423       -0.36784858265211        3.48629164312917
C           18.17212396620848       -0.23884449255705        2.81098679283679
N           17.96312485112433       -0.13898265436038        1.44148045145326
C           19.38682152198650       -0.16450455383850        3.45257660237482
C           20.63029272054885       -0.00712632877189        2.79259927822908
C           21.91352033161138        0.20468660977452        3.43182518204696
C           22.84985566212556        0.26572309480648        2.46081876082400
N           20.77155057284621       -0.07222781462723        1.47349210488278
C           22.09202027683448        0.08700192001135        1.24172675743850
C           22.55113170860364       -0.00329416794593       -0.02834709817367
C           21.94367220053134       -0.20162966997447       -1.26953242578007
C           22.56617347756200       -0.62439744511459       -2.43425813338967
C           21.57107902181114       -0.61028137647590       -3.41192161995334
C           20.40006712199164       -0.17197689182715       -2.81121668526887
C           19.15902415661453        0.03460719234979       -3.50608181410733
C           19.17026373806150        0.16397528386874       -4.99103694825228
C           18.51677215267038       -0.76573476063382       -5.81146649949399
C           18.55417828767442       -0.64110831685262       -7.19658354034572
C           19.24091917005249        0.42623199387342       -7.80615112642896
C           19.26658586787625        0.53727345887795       -9.30052861020809
O           19.94962077135696        1.59413721867181       -9.83251963128506
O           18.70762667508785       -0.26958788450919      -10.00067577753599
C           19.88357060561471        1.35520174511011       -6.98007546629788
C           19.84997344478641        1.22642440597987       -5.59719809684185
C           17.96669079522282        0.12098634349693       -2.84331497578903
C           16.66603616513969        0.36756570456733       -3.42822191881159
C           15.77714490145782        0.31864750445149       -2.41630137417689
C           16.51640139743177        0.04964444677467       -1.20043032492513
N           17.81737373050915       -0.05734198781870       -1.46131723233793
N           20.62073129592768        0.07024799586027       -1.45997349961579
C           19.41269443670823       -0.23684000356719        4.93422628148477
C           19.34405348765619       -1.47095626544574        5.58534809886365
C           19.38384316878400       -1.53497524510218        6.97298068659080
C           19.48988265909098       -0.36189055545008        7.74446288233718
C           19.53107609466372       -0.45897495971876        9.23864618529216
O           19.63263092479869        0.71294979329193        9.93369166011585
O           19.47654287129760       -1.52382070211705        9.80140219095439
C           19.55360753235299        0.86743488200983        7.07883216865437
C           19.51589679940884        0.93023580781694        5.69276443220716
H           14.83572946330612       -0.11774152092860        0.12204846263342
H           14.87123660898845       -0.41426547241180        2.73081127954983
H           16.71314614282914       -0.45424891699345        4.54763167865349
H           22.10700119393408        0.30107042985146        4.48340182580639
H           23.91376711221876        0.41385327367586        2.62887651083749
H           23.60309117571396       -0.90373513773825       -2.55824459100898
H           21.66757436743600       -0.88207258435438       -4.44743147850985
H           17.99082868879037       -1.60414495429700       -5.36095766757801
H           18.04625473452568       -1.38749248032719       -7.80203959994428
H           19.97122751863312        1.67444463536111      -10.81474657408944
H           20.42274538721431        2.18644250905665       -7.42058320993834
H           20.35542730606488        1.96296273571059       -4.98025656641709
H           16.42775741963353        0.56199243346020       -4.46476995882268
H           14.71474914131027        0.46281532100814       -2.50572748422757
H           19.26436625407642       -2.38462206494106        5.00049147508904
H           19.33266435278931       -2.50922493342222        7.45083353006206
H           19.66023608759667        0.65773201259026       10.91737237741342
H           19.63511996934462        1.78709548365875        7.64617004354154
H           19.56483150335938        1.89421520342823        5.19507376023366
Cu          29.57488435768035       -0.00473558128137       -0.01323493445758
C           32.97308983440691       -0.08975072164781       -0.08677250598208
C           32.30209279672410       -0.05695202181063       -1.27818459464124
C           32.95894245415667       -0.04973083084902       -2.56947058864895
C           32.00073479797869        0.03661528865118       -3.50545466860783
C           30.72031309742268        0.08688855087960       -2.81977987588601
N           30.92931457996978        0.02816010009554       -1.44789515136056
C           29.50561433738231        0.23471495892899       -3.44851581687865
C           28.26214062686876        0.31494001403890       -2.77479585314454
C           26.97891327710113        0.59905083385114       -3.38533156626383
C           26.04257819571188        0.54771117836661       -2.41376391606689
N           28.12088114477013        0.09816412787241       -1.47199625880748
C           26.80041308305349        0.22960709948665       -1.22341282587991
C           26.34130309544606       -0.00654074810958        0.02777777335731
C           26.94876097677136       -0.34667638623724        1.23781555396740
C           26.32626038063961       -0.90093095809278        2.34602101830676
C           27.32135531940902       -0.99964491270995        3.31879141622148
C           28.49236637886677       -0.49499518858555        2.77263598698439
C           29.73341186843296       -0.36991489729485        3.48668550015632
C           29.72217216569146       -0.41264239887937        4.97665227041872
C           30.37566385863484       -1.43075593224753        5.68440253706499
C           30.33825772062364       -1.46668072297494        7.07465077589174
C           29.65151665765913       -0.47675073701753        7.80322864572743
C           29.62584950166308       -0.53876855560260        9.30044195993850
O           28.94281429584963        0.44970045186343        9.95075245585331
O           30.18480910277572       -1.42098243361360        9.90287847660598
C           29.00886512484601        0.54127823962554        7.08978443228266
C           29.04246197690344        0.57282190906976        5.70128246327137
C           30.92574639949476       -0.20768859390202        2.83830161768164
C           32.22640081511322       -0.03020023863445        3.44773978374728
C           33.11529243739267        0.03789526664242        2.43692863328474
C           32.37603754715187       -0.08911112095636        1.19814906944755
N           31.07506639758769       -0.22546889804002        1.44496084224076
N           28.27170054518379       -0.09857022997642        1.45833962253200
C           29.47974086322112        0.33371315075675       -4.92862273193270
C           29.54838225815305       -0.81708896107826       -5.71770863113881
C           29.50859279726865       -0.72067080487668       -7.10346687530169
C           29.40255318580376        0.53354938901676       -7.73453279716169
C           29.36135989296600        0.60940915696739       -9.22994366455888
O           29.25980507697852        1.85366346421779       -9.78521635770111
O           29.41589313909369       -0.38344092243072       -9.91173509614833
C           29.33882758760103        1.67791954742579       -6.93158669394598
C           29.37653834882419        1.58047204720158       -5.54752341313417
H           34.05670687978151       -0.10288246171967       -0.13481135597875
H           34.02120037305658       -0.09660785499208       -2.76036558977105
H           32.17928980004796        0.07317507151560       -4.56967743359413
H           26.78543371460238        0.81605029797745       -4.41877911738400
H           24.97866703482560        0.71423234147373       -2.56361880391040
H           25.28934298090240       -1.19270191736614        2.43696897160491
H           27.22486074185781       -1.38902947282343        4.31605242435163
H           30.90160722463276       -2.21162445195467        5.14022013037005
H           30.84618127185922       -2.27790208505284        7.59000151077038
H           28.92120746972829        0.41621058137231       10.93568775702842
H           28.46969054210065        1.31617839636859        7.62320560590865
H           28.53700855073320        1.37558792770563        5.17338792680378
H           32.46467921842620        0.04340481760428        4.49979258031020
H           34.17768760073361        0.17078899430979        2.54238098167428
H           29.62806885519796       -1.79210100660860       -5.24210943416047
H           29.55977170329421       -1.63331975086491       -7.69047432975066
H           29.23219991792560        1.91224339066382      -10.76870266050340
H           29.25731504007875        2.65686607919849       -7.38909287468659
H           29.32760431250469        2.48063133706300       -4.94199439872294
C           23.83886319283913       -0.00267338015977       -0.01835641134654
C           25.05357166294338       -0.00477217642981        0.01792553168895
126
 energy: -240.583516242165 gnorm: 0.113354905758 xtb: 6.5.1 (b24c23e)
Cu          19.29747892122445       -0.01699520453989        0.00850284674375
C           15.91982003018419       -0.09657305187433        0.06316253429052